<event>
 6    3  0.3813045E-003  0.1268600E+03  0.7818608E-02  0.1232191E+00
         21   -1    0    0  501  502  0.00000000000E+00  0.00000000000E+00  0.37363457149E+02  0.37363457149E+02  0.00000000000E+00 0. -1.
          4   -1    0    0  502    0 -0.00000000000E+00 -0.00000000000E+00 -0.16329899168E+03  0.16330393009E+03  0.12700000000E+01 0. -1.
         25    2    1    2    0    0 -0.20410629036E+02 -0.73648476184E+01 -0.12618444810E+03  0.17893010093E+03  0.12499052492E+03 0.  0.
    9000005    1    3    3    0    0 -0.27271448317E+02 -0.60919223057E+02 -0.41845056797E+02  0.78783833428E+02  0.10000000000E+01 0.  0.
    9000005    1    3    3    0    0  0.68608192809E+01  0.53554375439E+02 -0.84339391299E+02  0.10014626750E+03  0.10000000000E+01 0.  0.
          4    1    1    2  501    0  0.20410629036E+02  0.73648476184E+01  0.24891356954E+00  0.21737286308E+02  0.12700000000E+01 0.  1.
<mgrwt>
<rscale>  1 0.12686003E+03</rscale>
<asrwt>0</asrwt>
<pdfrwt beam="1">  1       21 0.57482241E-02 0.12686003E+03</pdfrwt>
<pdfrwt beam="2">  1        4 0.25124962E-01 0.12686003E+03</pdfrwt>
<totfact> 0.12518069E+05</totfact>
</mgrwt>
</event>
<event>
 6    3  0.3813045E-003  0.1357997E+03  0.7818608E-02  0.1219095E+00
         -4   -1    0    0    0  501 -0.00000000000E+00  0.00000000000E+00  0.11980670352E+02  0.12047794906E+02  0.12700000000E+01 0. -1.
         21   -1    0    0  501  502  0.00000000000E+00 -0.00000000000E+00 -0.98122321401E+03  0.98122321401E+03  0.00000000000E+00 0.  1.
         25    2    1    2    0    0  0.40702180400E+02  0.34055603162E+02 -0.41862802243E+03  0.44010338922E+03  0.12500048176E+03 0.  0.
    9000005    1    3    3    0    0  0.11193290969E+02  0.80162265244E+02 -0.25807912263E+03  0.27047571438E+03  0.10000000000E+01 0.  0.
    9000005    1    3    3    0    0  0.29508889431E+02 -0.46106662082E+02 -0.16054889980E+03  0.16962767484E+03  0.10000000000E+01 0.  0.
         -4    1    1    2    0  502 -0.40702180400E+02 -0.34055603162E+02 -0.55061452123E+03  0.55316761970E+03  0.12700000000E+01 0.  1.
<mgrwt>
<rscale>  1 0.13579975E+03</rscale>
<asrwt>0</asrwt>
<pdfrwt beam="2">  1       21 0.15095748E+00 0.13579975E+03</pdfrwt>
<pdfrwt beam="1">  1       -4 0.18484059E-02 0.13579975E+03</pdfrwt>
<totfact> 0.14040913E+04</totfact>
</mgrwt>
</event>
<event>
 6    3  0.3813045E-003  0.1279789E+03  0.7818608E-02  0.1230486E+00
         21   -1    0    0  501  502  0.00000000000E+00  0.00000000000E+00  0.15429453127E+02  0.15429453127E+02  0.00000000000E+00 0.  1.
          4   -1    0    0  502    0 -0.00000000000E+00 -0.00000000000E+00 -0.39154165582E+03  0.39154371549E+03  0.12700000000E+01 0. -1.
         25    2    1    2    0    0 -0.21784511125E+02 -0.16697720656E+02 -0.30917376381E+03  0.33461471161E+03  0.12500084080E+03 0.  0.
    9000005    1    3    3    0    0  0.35821363752E+02 -0.13543403267E+02 -0.27666880513E+02  0.47255160040E+02  0.10000000000E+01 0.  0.
    9000005    1    3    3    0    0 -0.57605874877E+02 -0.31543173889E+01 -0.28150688329E+03  0.28735955157E+03  0.10000000000E+01 0.  0.
          4    1    1    2  501    0  0.21784511125E+02  0.16697720656E+02 -0.66938438888E+02  0.72358457010E+02  0.12700000000E+01 0.  1.
<mgrwt>
<rscale>  1 0.12797886E+03</rscale>
<asrwt>0</asrwt>
<pdfrwt beam="1">  1       21 0.23737619E-02 0.12797886E+03</pdfrwt>
<pdfrwt beam="2">  1        4 0.60241359E-01 0.12797886E+03</pdfrwt>
<totfact> 0.97474249E+04</totfact>
</mgrwt>
</event>
<event>
 6    3  0.3813045E-003  0.1273744E+03  0.7818608E-02  0.1231405E+00
          4   -1    0    0  502    0 -0.00000000000E+00  0.00000000000E+00  0.16206756518E+04  0.16206761494E+04  0.12700000000E+01 0.  1.
         21   -1    0    0  501  502  0.00000000000E+00 -0.00000000000E+00 -0.41484224152E+01  0.41484224152E+01  0.00000000000E+00 0.  1.
         25    2    1    2    0    0  0.18902251901E+02  0.15614024446E+02  0.15160575412E+04  0.15213989269E+04  0.12499253417E+03 0.  0.
    9000005    1    3    3    0    0  0.57600405578E+02 -0.25909284975E+02  0.53806271714E+03  0.54175786597E+03  0.10000000000E+01 0.  0.
    9000005    1    3    3    0    0 -0.38698153677E+02  0.41523309421E+02  0.97799482407E+03  0.97964106091E+03  0.10000000000E+01 0.  0.
          4    1    1    2  501    0 -0.18902251901E+02 -0.15614024446E+02  0.10046968819E+03  0.10342564494E+03  0.12700000000E+01 0. -1.
<mgrwt>
<rscale>  1 0.12737436E+03</rscale>
<asrwt>0</asrwt>
<pdfrwt beam="2">  1       21 0.63822013E-03 0.12737436E+03</pdfrwt>
<pdfrwt beam="1">  1        4 0.24934920E+00 0.12737436E+03</pdfrwt>
<totfact> 0.22765896E+04</totfact>
</mgrwt>
</event>
<event>
 6    3  0.3813045E-003  0.1266683E+03  0.7818608E-02  0.1232485E+00
         -4   -1    0    0    0  501 -0.00000000000E+00  0.00000000000E+00  0.39750509186E+02  0.39770791801E+02  0.12700000000E+01 0.  1.
         21   -1    0    0  501  502  0.00000000000E+00 -0.00000000000E+00 -0.13956480540E+03  0.13956480540E+03  0.00000000000E+00 0.  1.
         25    2    1    2    0    0 -0.20362450583E+02  0.17689304444E+01 -0.75171194523E+02  0.14729415732E+03  0.12500840686E+03 0.  0.
    9000005    1    3    3    0    0  0.18953381077E+02  0.50109067833E+02 -0.55708243668E+01  0.53871916779E+02  0.10000000000E+01 0.  0.
    9000005    1    3    3    0    0 -0.39315831660E+02 -0.48340137389E+02 -0.69600370156E+02  0.93422240541E+02  0.10000000000E+01 0.  0.
         -4    1    1    2    0  502  0.20362450583E+02 -0.17689304444E+01 -0.24643101693E+02  0.32041439882E+02  0.12700000000E+01 0. -1.
<mgrwt>
<rscale>  1 0.12666831E+03</rscale>
<asrwt>0</asrwt>
<pdfrwt beam="2">  1       21 0.21471509E-01 0.12666831E+03</pdfrwt>
<pdfrwt beam="1">  1       -4 0.61174676E-02 0.12666831E+03</pdfrwt>
<totfact> 0.13872230E+05</totfact>
</mgrwt>
</event>
<event>
 6    3  0.3813045E-003  0.1272166E+03  0.7818608E-02  0.1231645E+00
         21   -1    0    0  501  502  0.00000000000E+00  0.00000000000E+00  0.11914703228E+02  0.11914703228E+02  0.00000000000E+00 0.  1.
         -4   -1    0    0    0  501 -0.00000000000E+00 -0.00000000000E+00 -0.15489729326E+04  0.15489734533E+04  0.12700000000E+01 0. -1.
         25    2    1    2    0    0 -0.14596340324E+02 -0.18593629423E+02 -0.15312341445E+04  0.15365097014E+04  0.12500112453E+03 0.  0.
    9000005    1    3    3    0    0 -0.13139590572E+02  0.25734985818E+02 -0.13354175924E+04  0.13357305433E+04  0.10000000000E+01 0.  0.
    9000005    1    3    3    0    0 -0.14567497527E+01 -0.44328615241E+02 -0.19581655211E+03  0.20077915810E+03  0.10000000000E+01 0.  0.
         -4    1    1    2    0  502  0.14596340324E+02  0.18593629423E+02 -0.58240849056E+01  0.24378455057E+02  0.12700000000E+01 0.  1.
<mgrwt>
<rscale>  1 0.12721658E+03</rscale>
<asrwt>0</asrwt>
<pdfrwt beam="1">  1       21 0.18330311E-02 0.12721658E+03</pdfrwt>
<pdfrwt beam="2">  1       -4 0.23830880E+00 0.12721658E+03</pdfrwt>
<totfact> 0.49792965E+03</totfact>
</mgrwt>
</event>
<event>
 6    3  0.3813045E-003  0.1394503E+03  0.7818608E-02  0.1214070E+00
         21   -1    0    0  501  502  0.00000000000E+00  0.00000000000E+00  0.12393469789E+04  0.12393469789E+04  0.00000000000E+00 0.  1.
          4   -1    0    0  502    0 -0.00000000000E+00 -0.00000000000E+00 -0.94054249663E+01  0.94907807264E+01  0.12700000000E+01 0. -1.
         25    2    1    2    0    0  0.72922102614E+01  0.61389099269E+02  0.60590998705E+03  0.62175020019E+03  0.12499840472E+03 0.  0.
    9000005    1    3    3    0    0  0.64585904188E+02  0.48333519279E+02  0.34810259415E+03  0.35732881798E+03  0.10000000000E+01 0.  0.
    9000005    1    3    3    0    0 -0.57293693927E+02  0.13055579990E+02  0.25780739290E+03  0.26442138221E+03  0.10000000000E+01 0.  0.
          4    1    1    2  501    0 -0.72922102614E+01 -0.61389099269E+02  0.62403156691E+03  0.62708755947E+03  0.12700000000E+01 0.  1.
<mgrwt>
<rscale>  1 0.13945035E+03</rscale>
<asrwt>0</asrwt>
<pdfrwt beam="1">  1       21 0.19066864E+00 0.13945035E+03</pdfrwt>
<pdfrwt beam="2">  1        4 0.14536053E-02 0.13945035E+03</pdfrwt>
<totfact> 0.10767416E+04</totfact>
</mgrwt>
</event>
<event>
 6    3  0.3813045E-003  0.1274805E+03  0.7818608E-02  0.1231243E+00
         -4   -1    0    0    0  501 -0.00000000000E+00  0.00000000000E+00  0.20904700627E+02  0.20943242546E+02  0.12700000000E+01 0.  1.
         21   -1    0    0  501  502  0.00000000000E+00 -0.00000000000E+00 -0.36387417857E+03  0.36387417857E+03  0.00000000000E+00 0.  1.
         25    2    1    2    0    0 -0.19722253895E+02  0.15392160179E+02 -0.18375997084E+03  0.22364929168E+03  0.12500157156E+03 0.  0.
    9000005    1    3    3    0    0  0.10320971656E+02  0.39004358090E+02 -0.18086699697E+03  0.18531522603E+03  0.10000000000E+01 0.  0.
    9000005    1    3    3    0    0 -0.30043225551E+02 -0.23612197911E+02 -0.28929738735E+01  0.38334065653E+02  0.10000000000E+01 0.  0.
         -4    1    1    2    0  502  0.19722253895E+02 -0.15392160179E+02 -0.15920950710E+03  0.16116812943E+03  0.12700000000E+01 0. -1.
<mgrwt>
<rscale>  1 0.12748050E+03</rscale>
<asrwt>0</asrwt>
<pdfrwt beam="2">  1       21 0.55980641E-01 0.12748050E+03</pdfrwt>
<pdfrwt beam="1">  1       -4 0.32192431E-02 0.12748050E+03</pdfrwt>
<totfact> 0.58692506E+04</totfact>
</mgrwt>
</event>
<event>
 6    3  0.3813045E-003  0.1275353E+03  0.7818608E-02  0.1231159E+00
         21   -1    0    0  501  502  0.00000000000E+00  0.00000000000E+00  0.21598962285E+02  0.21598962285E+02  0.00000000000E+00 0.  1.
          4   -1    0    0  502    0 -0.00000000000E+00 -0.00000000000E+00 -0.34035726107E+03  0.34035963048E+03  0.12700000000E+01 0. -1.
         25    2    1    2    0    0  0.38905591065E+01 -0.25011306033E+02 -0.30989055386E+03  0.33510804939E+03  0.12499819005E+03 0.  0.
    9000005    1    3    3    0    0 -0.15274526155E+02 -0.70558387627E+02 -0.13172579549E+03  0.15021478759E+03  0.10000000000E+01 0.  0.
    9000005    1    3    3    0    0  0.19165085261E+02  0.45547081594E+02 -0.17816475836E+03  0.18489326180E+03  0.10000000000E+01 0.  0.
          4    1    1    2  501    0 -0.38905591065E+01  0.25011306033E+02 -0.88677449308E+01  0.26850543380E+02  0.12700000000E+01 0.  1.
<mgrwt>
<rscale>  1 0.12753529E+03</rscale>
<asrwt>0</asrwt>
<pdfrwt beam="1">  1       21 0.33229174E-02 0.12753529E+03</pdfrwt>
<pdfrwt beam="2">  1        4 0.52365709E-01 0.12753529E+03</pdfrwt>
<totfact> 0.75161035E+04</totfact>
</mgrwt>
</event>
<event>
 6    3  0.3813045E-003  0.1274168E+03  0.7818608E-02  0.1231340E+00
         -4   -1    0    0    0  501 -0.00000000000E+00  0.00000000000E+00  0.73090619472E+02  0.73101652203E+02  0.12700000000E+01 0.  1.
         21   -1    0    0  501  502  0.00000000000E+00 -0.00000000000E+00 -0.86352593401E+02  0.86352593401E+02  0.00000000000E+00 0.  1.
         25    2    1    2    0    0 -0.23377737890E+02 -0.73464919094E+01 -0.28506344120E+02  0.13056664801E+03  0.12503818755E+03 0.  0.
    9000005    1    3    3    0    0 -0.14730360177E+02 -0.50487259929E+02  0.27484650154E+02  0.59349413815E+02  0.10000000000E+01 0.  0.
    9000005    1    3    3    0    0 -0.86473777125E+01  0.43140768020E+02 -0.55990994273E+02  0.71217234195E+02  0.10000000000E+01 0.  0.
         -4    1    1    2    0  502  0.23377737890E+02  0.73464919094E+01  0.15244370191E+02  0.28887597594E+02  0.12700000000E+01 0. -1.
<mgrwt>
<rscale>  1 0.12741679E+03</rscale>
<asrwt>0</asrwt>
<pdfrwt beam="2">  1       21 0.13285014E-01 0.12741679E+03</pdfrwt>
<pdfrwt beam="1">  1       -4 0.11246278E-01 0.12741679E+03</pdfrwt>
<totfact> 0.12113125E+05</totfact>
</mgrwt>
</event>
<event>
 6    3  0.3813045E-003  0.1268715E+03  0.7818608E-02  0.1232173E+00
         -4   -1    0    0    0  501 -0.00000000000E+00  0.00000000000E+00  0.74597241781E+03  0.74597349888E+03  0.12700000000E+01 0.  1.
         21   -1    0    0  501  502  0.00000000000E+00 -0.00000000000E+00 -0.92806981814E+01  0.92806981814E+01  0.00000000000E+00 0.  1.
         25    2    1    2    0    0  0.21581077039E+02  0.25135692546E+01  0.70780804735E+03  0.71908873922E+03  0.12499728823E+03 0.  0.
    9000005    1    3    3    0    0 -0.19028923935E+02 -0.53591306241E+02  0.35777526211E+03  0.36226822415E+03  0.10000000000E+01 0.  0.
    9000005    1    3    3    0    0  0.40610000975E+02  0.56104875495E+02  0.35003278523E+03  0.35682051506E+03  0.10000000000E+01 0.  0.
         -4    1    1    2    0  502 -0.21581077039E+02 -0.25135692546E+01  0.28883672282E+02  0.36165457844E+02  0.12700000000E+01 0. -1.
<mgrwt>
<rscale>  1 0.12687152E+03</rscale>
<asrwt>0</asrwt>
<pdfrwt beam="2">  1       21 0.14278003E-02 0.12687152E+03</pdfrwt>
<pdfrwt beam="1">  1       -4 0.11477171E+00 0.12687152E+03</pdfrwt>
<totfact> 0.52440465E+04</totfact>
</mgrwt>
</event>
<event>
 6    3  0.3813045E-003  0.1280123E+03  0.7818608E-02  0.1230435E+00
         -4   -1    0    0    0  501 -0.00000000000E+00  0.00000000000E+00  0.10758007015E+04  0.10758014511E+04  0.12700000000E+01 0. -1.
         21   -1    0    0  501  502  0.00000000000E+00 -0.00000000000E+00 -0.11729839856E+02  0.11729839856E+02  0.00000000000E+00 0.  1.
         25    2    1    2    0    0  0.18186717187E+02 -0.20601873316E+02  0.10477561242E+04  0.10555472727E+04  0.12502781794E+03 0.  0.
    9000005    1    3    3    0    0 -0.35016691557E+02 -0.46982472441E+02  0.72553816821E+03  0.72790119861E+03  0.10000000000E+01 0.  0.
    9000005    1    3    3    0    0  0.53203408744E+02  0.26380599125E+02  0.32221795600E+03  0.32764607411E+03  0.10000000000E+01 0.  0.
         -4    1    1    2    0  502 -0.18186717187E+02  0.20601873316E+02  0.16314737413E+02  0.31984018244E+02  0.12700000000E+01 0.  1.
<mgrwt>
<rscale>  1 0.12801230E+03</rscale>
<asrwt>0</asrwt>
<pdfrwt beam="2">  1       21 0.18045916E-02 0.12801230E+03</pdfrwt>
<pdfrwt beam="1">  1       -4 0.16551307E+00 0.12801230E+03</pdfrwt>
<totfact> 0.14509867E+04</totfact>
</mgrwt>
</event>
<event>
 6    3  0.3813045E-003  0.1269064E+03  0.7818608E-02  0.1232120E+00
         21   -1    0    0  501  502  0.00000000000E+00  0.00000000000E+00  0.13035047050E+02  0.13035047050E+02  0.00000000000E+00 0. -1.
         -4   -1    0    0    0  501 -0.00000000000E+00 -0.00000000000E+00 -0.48754025431E+03  0.48754190842E+03  0.12700000000E+01 0.  1.
         25    2    1    2    0    0 -0.66714954469E+01  0.20863046178E+02 -0.45059754675E+03  0.46812753825E+03  0.12500186951E+03 0.  0.
    9000005    1    3    3    0    0 -0.51492625815E+02  0.51242008927E+02 -0.24894096761E+03  0.25932573984E+03  0.10000000000E+01 0.  0.
    9000005    1    3    3    0    0  0.44821130368E+02 -0.30378962749E+02 -0.20165657915E+03  0.20880179841E+03  0.10000000000E+01 0.  0.
         -4    1    1    2    0  502  0.66714954469E+01 -0.20863046178E+02 -0.23907660504E+02  0.32449417223E+02  0.12700000000E+01 0. -1.
<mgrwt>
<rscale>  1 0.12690643E+03</rscale>
<asrwt>0</asrwt>
<pdfrwt beam="1">  1       21 0.20053919E-02 0.12690643E+03</pdfrwt>
<pdfrwt beam="2">  1       -4 0.75011078E-01 0.12690643E+03</pdfrwt>
<totfact> 0.80011564E+04</totfact>
</mgrwt>
</event>
<event>
 6    3  0.3813045E-003  0.1289903E+03  0.7818608E-02  0.1228962E+00
          4   -1    0    0  502    0 -0.00000000000E+00  0.00000000000E+00  0.82420151081E+03  0.82420248927E+03  0.12700000000E+01 0.  1.
         21   -1    0    0  501  502  0.00000000000E+00 -0.00000000000E+00 -0.18011463015E+02  0.18011463015E+02  0.00000000000E+00 0. -1.
         25    2    1    2    0    0  0.26753136100E+02  0.17283284988E+02  0.79924958026E+03  0.80959148731E+03  0.12499617015E+03 0.  0.
    9000005    1    3    3    0    0  0.71003284329E+02  0.16006442789E+02  0.31405424694E+03  0.32237981112E+03  0.10000000000E+01 0.  0.
    9000005    1    3    3    0    0 -0.44250148229E+02  0.12768421987E+01  0.48519533332E+03  0.48721167620E+03  0.10000000000E+01 0.  0.
          4    1    1    2  501    0 -0.26753136100E+02 -0.17283284988E+02  0.69404675320E+01  0.32622464970E+02  0.12700000000E+01 0. -1.
<mgrwt>
<rscale>  1 0.12899025E+03</rscale>
<asrwt>0</asrwt>
<pdfrwt beam="2">  1       21 0.27709950E-02 0.12899025E+03</pdfrwt>
<pdfrwt beam="1">  1        4 0.12680372E+00 0.12899025E+03</pdfrwt>
<totfact> 0.14187937E+04</totfact>
</mgrwt>
</event>
<event>
 6    3  0.3813045E-003  0.1476544E+03  0.7818608E-02  0.1203385E+00
         21   -1    0    0  501  502  0.00000000000E+00  0.00000000000E+00  0.30291693224E+02  0.30291693224E+02  0.00000000000E+00 0. -1.
         -4   -1    0    0    0  501 -0.00000000000E+00 -0.00000000000E+00 -0.68443160771E+03  0.68443278599E+03  0.12700000000E+01 0.  1.
         25    2    1    2    0    0  0.77756742118E+02  0.11437743310E+02 -0.60331457030E+03  0.62112019817E+03  0.12499958772E+03 0.  0.
    9000005    1    3    3    0    0 -0.33464866624E+02 -0.53951950300E+01 -0.10833544721E+03  0.11351904928E+03  0.10000000000E+01 0.  0.
    9000005    1    3    3    0    0  0.11122160874E+03  0.16832938340E+02 -0.49497912309E+03  0.50760114890E+03  0.10000000000E+01 0.  0.
         -4    1    1    2    0  502 -0.77756742118E+02 -0.11437743310E+02 -0.50825344191E+02  0.93604281040E+02  0.12700000000E+01 0. -1.
<mgrwt>
<rscale>  1 0.14765443E+03</rscale>
<asrwt>0</asrwt>
<pdfrwt beam="1">  1       21 0.46602605E-02 0.14765443E+03</pdfrwt>
<pdfrwt beam="2">  1       -4 0.10529931E+00 0.14765443E+03</pdfrwt>
<totfact> 0.94593161E+03</totfact>
</mgrwt>
</event>
<event>
 6    3  0.3813045E-003  0.1288866E+03  0.7818608E-02  0.1229117E+00
          4   -1    0    0  502    0 -0.00000000000E+00  0.00000000000E+00  0.64360969871E+03  0.64361095172E+03  0.12700000000E+01 0. -1.
         21   -1    0    0  501  502  0.00000000000E+00 -0.00000000000E+00 -0.15853698953E+02  0.15853698953E+02  0.00000000000E+00 0. -1.
         25    2    1    2    0    0 -0.30257105048E+02 -0.84419073955E+01  0.60977509045E+03  0.62324746959E+03  0.12499995685E+03 0.  0.
    9000005    1    3    3    0    0 -0.38872414954E+02 -0.42567202670E+02  0.13035102602E+03  0.14253217662E+03  0.10000000000E+01 0.  0.
    9000005    1    3    3    0    0  0.86153099060E+01  0.34125295275E+02  0.47942406442E+03  0.48071529297E+03  0.10000000000E+01 0.  0.
          4    1    1    2  501    0  0.30257105048E+02  0.84419073955E+01  0.17980909316E+02  0.36217181091E+02  0.12700000000E+01 0.  1.
<mgrwt>
<rscale>  1 0.12888657E+03</rscale>
<asrwt>0</asrwt>
<pdfrwt beam="2">  1       21 0.24390311E-02 0.12888657E+03</pdfrwt>
<pdfrwt beam="1">  1        4 0.99020865E-01 0.12888657E+03</pdfrwt>
<totfact> 0.31355592E+04</totfact>
</mgrwt>
</event>
<event>
 6    3  0.3813045E-003  0.1299776E+03  0.7818608E-02  0.1227489E+00
          4   -1    0    0  502    0 -0.00000000000E+00  0.00000000000E+00  0.26973867000E+03  0.26974165973E+03  0.12700000000E+01 0. -1.
         21   -1    0    0  501  502  0.00000000000E+00 -0.00000000000E+00 -0.26204744843E+02  0.26204744843E+02  0.00000000000E+00 0. -1.
         25    2    1    2    0    0 -0.35975383244E+01 -0.35447351596E+02  0.16790417455E+03  0.21233462852E+03  0.12499890248E+03 0.  0.
    9000005    1    3    3    0    0  0.30997068402E+02 -0.68715689343E+02  0.68136846128E+02  0.10161837438E+03  0.10000000000E+01 0.  0.
    9000005    1    3    3    0    0 -0.34594606726E+02  0.33268337747E+02  0.99767328421E+02  0.11071625414E+03  0.10000000000E+01 0.  0.
          4    1    1    2  501    0  0.35975383244E+01  0.35447351596E+02  0.75629750605E+02  0.83611776047E+02  0.12700000000E+01 0.  1.
<mgrwt>
<rscale>  1 0.12997762E+03</rscale>
<asrwt>0</asrwt>
<pdfrwt beam="2">  1       21 0.40314994E-02 0.12997762E+03</pdfrwt>
<pdfrwt beam="1">  1        4 0.41500852E-01 0.12997762E+03</pdfrwt>
<totfact> 0.87409134E+04</totfact>
</mgrwt>
</event>
<event>
 6    3  0.3813045E-003  0.1277336E+03  0.7818608E-02  0.1230858E+00
         21   -1    0    0  501  502  0.00000000000E+00  0.00000000000E+00  0.23550559012E+03  0.23550559012E+03  0.00000000000E+00 0.  1.
         -4   -1    0    0    0  501 -0.00000000000E+00 -0.00000000000E+00 -0.64006163208E+02  0.64018761536E+02  0.12700000000E+01 0. -1.
         25    2    1    2    0    0 -0.21249392783E+02 -0.15482297103E+02  0.17493291157E+01  0.12774557876E+03  0.12499853808E+03 0.  0.
    9000005    1    3    3    0    0 -0.38340417374E+02  0.47004025842E+02  0.12850695217E+02  0.62012147337E+02  0.10000000000E+01 0.  0.
    9000005    1    3    3    0    0  0.17091024591E+02 -0.62486322945E+02 -0.11101366101E+02  0.65733431418E+02  0.10000000000E+01 0.  0.
         -4    1    1    2    0  502  0.21249392783E+02  0.15482297103E+02  0.16975009780E+03  0.17177877290E+03  0.12700000000E+01 0.  1.
<mgrwt>
<rscale>  1 0.12773360E+03</rscale>
<asrwt>0</asrwt>
<pdfrwt beam="1">  1       21 0.36231629E-01 0.12773360E+03</pdfrwt>
<pdfrwt beam="2">  1       -4 0.98483346E-02 0.12773360E+03</pdfrwt>
<totfact> 0.23242619E+04</totfact>
</mgrwt>
</event>
<event>
 6    3  0.3813045E-003  0.1309765E+03  0.7818608E-02  0.1226014E+00
         -4   -1    0    0    0  501 -0.00000000000E+00  0.00000000000E+00  0.38384619702E+03  0.38384829799E+03  0.12700000000E+01 0. -1.
         21   -1    0    0  501  502  0.00000000000E+00 -0.00000000000E+00 -0.22952287684E+02  0.22952287684E+02  0.00000000000E+00 0. -1.
         25    2    1    2    0    0 -0.30780224870E+02 -0.24125082234E+02  0.33548495846E+03  0.36014579470E+03  0.12500157700E+03 0.  0.
    9000005    1    3    3    0    0 -0.38768268033E+02 -0.36854301365E+02  0.46836550165E+02  0.71104715503E+02  0.10000000000E+01 0.  0.
    9000005    1    3    3    0    0  0.79880431628E+01  0.12729219131E+02  0.28864840829E+03  0.28904107920E+03  0.10000000000E+01 0.  0.
         -4    1    1    2    0  502  0.30780224870E+02  0.24125082234E+02  0.25408950879E+02  0.46654790972E+02  0.12700000000E+01 0.  1.
<mgrwt>
<rscale>  1 0.13097647E+03</rscale>
<asrwt>0</asrwt>
<pdfrwt beam="2">  1       21 0.35311215E-02 0.13097647E+03</pdfrwt>
<pdfrwt beam="1">  1       -4 0.59056121E-01 0.13097647E+03</pdfrwt>
<totfact> 0.53202593E+04</totfact>
</mgrwt>
</event>
<event>
 6    3  0.3813045E-003  0.1268890E+03  0.7818608E-02  0.1232146E+00
          4   -1    0    0  502    0 -0.00000000000E+00  0.00000000000E+00  0.70284291478E+03  0.70284406219E+03  0.12700000000E+01 0.  1.
         21   -1    0    0  501  502  0.00000000000E+00 -0.00000000000E+00 -0.11765081959E+02  0.11765081959E+02  0.00000000000E+00 0. -1.
         25    2    1    2    0    0  0.12395455935E+02 -0.17970189353E+02  0.67657160605E+03  0.68836760173E+03  0.12499696785E+03 0.  0.
    9000005    1    3    3    0    0 -0.72754206289E+01 -0.31271613339E+02  0.39768911693E+02  0.51121540307E+02  0.10000000000E+01 0.  0.
    9000005    1    3    3    0    0  0.19670876564E+02  0.13301423986E+02  0.63680269435E+03  0.63724606142E+03  0.10000000000E+01 0.  0.
          4    1    1    2  501    0 -0.12395455935E+02  0.17970189353E+02  0.14506226773E+02  0.26241542417E+02  0.12700000000E+01 0. -1.
<mgrwt>
<rscale>  1 0.12688899E+03</rscale>
<asrwt>0</asrwt>
<pdfrwt beam="2">  1       21 0.18100132E-02 0.12688899E+03</pdfrwt>
<pdfrwt beam="1">  1        4 0.10813501E+00 0.12688899E+03</pdfrwt>
<totfact> 0.41284842E+04</totfact>
</mgrwt>
</event>
<event>
 6    3  0.3813045E-003  0.1282917E+03  0.7818608E-02  0.1230013E+00
         21   -1    0    0  501  502  0.00000000000E+00  0.00000000000E+00  0.32018550911E+02  0.32018550911E+02  0.00000000000E+00 0.  1.
          4   -1    0    0  502    0 -0.00000000000E+00 -0.00000000000E+00 -0.63817784237E+03  0.63817910605E+03  0.12700000000E+01 0. -1.
         25    2    1    2    0    0 -0.63014991266E+01  0.28184195555E+02 -0.62345023763E+03  0.63651312802E+03  0.12499882225E+03 0.  0.
    9000005    1    3    3    0    0 -0.57748713078E+02  0.19652971864E+02 -0.18114527793E+03  0.19114330980E+03  0.10000000000E+01 0.  0.
    9000005    1    3    3    0    0  0.51447213952E+02  0.85312236917E+01 -0.44230495971E+03  0.44536981822E+03  0.10000000000E+01 0.  0.
          4    1    1    2  501    0  0.63014991266E+01 -0.28184195555E+02  0.17290946172E+02  0.33684528939E+02  0.12700000000E+01 0.  1.
<mgrwt>
<rscale>  1 0.12829171E+03</rscale>
<asrwt>0</asrwt>
<pdfrwt beam="1">  1       21 0.49259312E-02 0.12829171E+03</pdfrwt>
<pdfrwt beam="2">  1        4 0.98183235E-01 0.12829171E+03</pdfrwt>
<totfact> 0.10014490E+04</totfact>
</mgrwt>
</event>
<event>
 6    3  0.3813045E-003  0.1272456E+03  0.7818608E-02  0.1231601E+00
         21   -1    0    0  501  502  0.00000000000E+00  0.00000000000E+00  0.37358447311E+02  0.37358447311E+02  0.00000000000E+00 0.  1.
         -4   -1    0    0    0  501 -0.00000000000E+00 -0.00000000000E+00 -0.71363698165E+03  0.71363811170E+03  0.12700000000E+01 0. -1.
         25    2    1    2    0    0  0.19406144665E+02 -0.13819815327E+02 -0.70343351966E+03  0.71484974899E+03  0.12499544514E+03 0.  0.
    9000005    1    3    3    0    0 -0.22680566074E+02  0.39110513015E+02 -0.13424068199E+03  0.14165310094E+03  0.10000000000E+01 0.  0.
    9000005    1    3    3    0    0  0.42086710739E+02 -0.52930328342E+02 -0.56919283768E+03  0.57319664805E+03  0.10000000000E+01 0.  0.
         -4    1    1    2    0  502 -0.19406144665E+02  0.13819815327E+02  0.27154985327E+02  0.36146810019E+02  0.12700000000E+01 0.  1.
<mgrwt>
<rscale>  1 0.12724562E+03</rscale>
<asrwt>0</asrwt>
<pdfrwt beam="1">  1       21 0.57474534E-02 0.12724562E+03</pdfrwt>
<pdfrwt beam="2">  1       -4 0.10979205E+00 0.12724562E+03</pdfrwt>
<totfact> 0.59489638E+03</totfact>
</mgrwt>
</event>
<event>
 6    3  0.3813045E-003  0.1280233E+03  0.7818608E-02  0.1230419E+00
         -4   -1    0    0    0  501 -0.00000000000E+00  0.00000000000E+00  0.13820858209E+03  0.13821441699E+03  0.12700000000E+01 0.  1.
         21   -1    0    0  501  502  0.00000000000E+00 -0.00000000000E+00 -0.45319349433E+02  0.45319349433E+02  0.00000000000E+00 0. -1.
         25    2    1    2    0    0  0.56588273421E+01 -0.27084336351E+02  0.62664537665E+02  0.14253707521E+03  0.12499755969E+03 0.  0.
    9000005    1    3    3    0    0 -0.18421050529E+02 -0.72750514548E+02  0.47094161337E+02  0.88604923687E+02  0.10000000000E+01 0.  0.
    9000005    1    3    3    0    0  0.24079877872E+02  0.45666178197E+02  0.15570376328E+02  0.53932151528E+02  0.10000000000E+01 0.  0.
         -4    1    1    2    0  502 -0.56588273421E+01  0.27084336351E+02  0.30224694990E+02  0.40996691204E+02  0.12700000000E+01 0. -1.
<mgrwt>
<rscale>  1 0.12802333E+03</rscale>
<asrwt>0</asrwt>
<pdfrwt beam="2">  1       21 0.69722077E-02 0.12802333E+03</pdfrwt>
<pdfrwt beam="1">  1       -4 0.21264676E-01 0.12802333E+03</pdfrwt>
<totfact> 0.12243716E+05</totfact>
</mgrwt>
</event>
<event>
 6    3  0.3813045E-003  0.1289601E+03  0.7818608E-02  0.1229007E+00
         21   -1    0    0  501  502  0.00000000000E+00  0.00000000000E+00  0.34163780088E+02  0.34163780088E+02  0.00000000000E+00 0.  1.
          4   -1    0    0  502    0 -0.00000000000E+00 -0.00000000000E+00 -0.37655870989E+03  0.37656085152E+03  0.12700000000E+01 0. -1.
         25    2    1    2    0    0 -0.30762541601E+02 -0.75749721222E+01 -0.35415754442E+03  0.37690620215E+03  0.12500801885E+03 0.  0.
    9000005    1    3    3    0    0 -0.53913457197E+02 -0.26107806797E+02 -0.74138429729E+02  0.95319385255E+02  0.10000000000E+01 0.  0.
    9000005    1    3    3    0    0  0.23150915596E+02  0.18532834675E+02 -0.28001911469E+03  0.28158681689E+03  0.10000000000E+01 0.  0.
          4    1    1    2  501    0  0.30762541601E+02  0.75749721222E+01  0.11762614618E+02  0.33818429459E+02  0.12700000000E+01 0.  1.
<mgrwt>
<rscale>  1 0.12896014E+03</rscale>
<asrwt>0</asrwt>
<pdfrwt beam="1">  1       21 0.52559662E-02 0.12896014E+03</pdfrwt>
<pdfrwt beam="2">  1        4 0.57934089E-01 0.12896014E+03</pdfrwt>
<totfact> 0.28470878E+04</totfact>
</mgrwt>
</event>
<event>
 6    3  0.3813045E-003  0.1413026E+03  0.7818608E-02  0.1211587E+00
         21   -1    0    0  501  502  0.00000000000E+00  0.00000000000E+00  0.16823661115E+03  0.16823661115E+03  0.00000000000E+00 0.  1.
         -4   -1    0    0    0  501 -0.00000000000E+00 -0.00000000000E+00 -0.71317178433E+02  0.71328485471E+02  0.12700000000E+01 0. -1.
         25    2    1    2    0    0  0.31967643041E+02 -0.57621788542E+02  0.10075592430E+03  0.17354591543E+03  0.12499691102E+03 0.  0.
    9000005    1    3    3    0    0  0.14863531903E+02  0.13264286889E+02  0.98588892768E+02  0.10058645865E+03  0.10000000000E+01 0.  0.
    9000005    1    3    3    0    0  0.17104111138E+02 -0.70886075432E+02  0.21670315342E+01  0.72959456780E+02  0.10000000000E+01 0.  0.
         -4    1    1    2    0  502 -0.31967643041E+02  0.57621788542E+02 -0.38364915894E+01  0.66019181184E+02  0.12700000000E+01 0.  1.
<mgrwt>
<rscale>  1 0.14130261E+03</rscale>
<asrwt>0</asrwt>
<pdfrwt beam="1">  1       21 0.25882556E-01 0.14130261E+03</pdfrwt>
<pdfrwt beam="2">  1       -4 0.10973112E-01 0.14130261E+03</pdfrwt>
<totfact> 0.37511870E+04</totfact>
</mgrwt>
</event>
<event>
 6    3  0.3813045E-003  0.1326421E+03  0.7818608E-02  0.1223587E+00
         21   -1    0    0  501  502  0.00000000000E+00  0.00000000000E+00  0.42246973694E+02  0.42246973694E+02  0.00000000000E+00 0.  1.
         -4   -1    0    0    0  501 -0.00000000000E+00 -0.00000000000E+00 -0.37003505566E+03  0.37003723504E+03  0.12700000000E+01 0. -1.
         25    2    1    2    0    0  0.24073617428E+02 -0.37264688372E+02 -0.34107201406E+03  0.36595633584E+03  0.12500289960E+03 0.  0.
    9000005    1    3    3    0    0  0.72519562344E+01  0.31101898215E+02 -0.24373936809E+03  0.24582473126E+03  0.10000000000E+01 0.  0.
    9000005    1    3    3    0    0  0.16821661193E+02 -0.68366586587E+02 -0.97332645964E+02  0.12013160457E+03  0.10000000000E+01 0.  0.
         -4    1    1    2    0  502 -0.24073617428E+02  0.37264688372E+02  0.13283932093E+02  0.46327872899E+02  0.12700000000E+01 0.  1.
<mgrwt>
<rscale>  1 0.13264208E+03</rscale>
<asrwt>0</asrwt>
<pdfrwt beam="1">  1       21 0.64995345E-02 0.13264208E+03</pdfrwt>
<pdfrwt beam="2">  1       -4 0.56930105E-01 0.13264208E+03</pdfrwt>
<totfact> 0.20673046E+04</totfact>
</mgrwt>
</event>
<event>
 6    3  0.3813045E-003  0.1324342E+03  0.7818608E-02  0.1223888E+00
          4   -1    0    0  502    0 -0.00000000000E+00  0.00000000000E+00  0.13290057225E+04  0.13290063293E+04  0.12700000000E+01 0.  1.
         21   -1    0    0  501  502  0.00000000000E+00 -0.00000000000E+00 -0.33780113565E+02  0.33780113565E+02  0.00000000000E+00 0. -1.
         25    2    1    2    0    0 -0.38594952996E+02 -0.20595238105E+02  0.13099376236E+04  0.13166151260E+04  0.12500031197E+03 0.  0.
    9000005    1    3    3    0    0  0.37319320405E+02 -0.38210908847E+02  0.61698062882E+03  0.61928902910E+03  0.10000000000E+01 0.  0.
    9000005    1    3    3    0    0 -0.75914273401E+02  0.17615670742E+02  0.69295699482E+03  0.69732609691E+03  0.10000000000E+01 0.  0.
          4    1    1    2  501    0  0.38594952996E+02  0.20595238105E+02 -0.14712014658E+02  0.46171316904E+02  0.12700000000E+01 0. -1.
<mgrwt>
<rscale>  1 0.13243418E+03</rscale>
<asrwt>0</asrwt>
<pdfrwt beam="2">  1       21 0.51969416E-02 0.13243418E+03</pdfrwt>
<pdfrwt beam="1">  1        4 0.20446426E+00 0.13243418E+03</pdfrwt>
<totfact> 0.14308368E+03</totfact>
</mgrwt>
</event>
<event>
 6    3  0.3813045E-003  0.1266484E+03  0.7818608E-02  0.1232515E+00
         -4   -1    0    0    0  501 -0.00000000000E+00  0.00000000000E+00  0.14092792128E+03  0.14093364360E+03  0.12700000000E+01 0.  1.
         21   -1    0    0  501  502  0.00000000000E+00 -0.00000000000E+00 -0.38429310910E+02  0.38429310910E+02  0.00000000000E+00 0.  1.
         25    2    1    2    0    0 -0.19735481409E+02  0.52652838313E+01  0.90210473627E+02  0.15549197537E+03  0.12499044928E+03 0.  0.
    9000005    1    3    3    0    0 -0.17414672091E+02 -0.46802231698E+02  0.90493460916E+02  0.10336240208E+03  0.10000000000E+01 0.  0.
    9000005    1    3    3    0    0 -0.23208093175E+01  0.52067515529E+02 -0.28298728841E+00  0.52129573287E+02  0.10000000000E+01 0.  0.
         -4    1    1    2    0  502  0.19735481409E+02 -0.52652838313E+01  0.12288136746E+02  0.23870979137E+02  0.12700000000E+01 0. -1.
<mgrwt>
<rscale>  1 0.12664843E+03</rscale>
<asrwt>0</asrwt>
<pdfrwt beam="2">  1       21 0.59122018E-02 0.12664843E+03</pdfrwt>
<pdfrwt beam="1">  1       -4 0.21683273E-01 0.12664843E+03</pdfrwt>
<totfact> 0.15622183E+05</totfact>
</mgrwt>
</event>
<event>
 6    3  0.3813045E-003  0.1300736E+03  0.7818608E-02  0.1227347E+00
         -4   -1    0    0    0  501 -0.00000000000E+00  0.00000000000E+00  0.20038510115E+03  0.20038912561E+03  0.12700000000E+01 0.  1.
         21   -1    0    0  501  502  0.00000000000E+00 -0.00000000000E+00 -0.72389279380E+02  0.72389279380E+02  0.00000000000E+00 0. -1.
         25    2    1    2    0    0 -0.28267567975E+02 -0.22319532459E+02  0.17216142472E+03  0.21577463045E+03  0.12498767161E+03 0.  0.
    9000005    1    3    3    0    0  0.22056779958E+02 -0.15961187002E+02  0.16169218478E+03  0.16397141108E+03  0.10000000000E+01 0.  0.
    9000005    1    3    3    0    0 -0.50324347932E+02 -0.63583454565E+01  0.10469239939E+02  0.51803219366E+02  0.10000000000E+01 0.  0.
         -4    1    1    2    0  502  0.28267567975E+02  0.22319532459E+02 -0.44165602950E+02  0.57003774544E+02  0.12700000000E+01 0. -1.
<mgrwt>
<rscale>  1 0.13007358E+03</rscale>
<asrwt>0</asrwt>
<pdfrwt beam="2">  1       21 0.11136812E-01 0.13007358E+03</pdfrwt>
<pdfrwt beam="1">  1       -4 0.30829643E-01 0.13007358E+03</pdfrwt>
<totfact> 0.27377382E+04</totfact>
</mgrwt>
</event>
<event>
 6    3  0.3813045E-003  0.1290172E+03  0.7818608E-02  0.1228921E+00
         21   -1    0    0  501  502  0.00000000000E+00  0.00000000000E+00  0.16552804122E+03  0.16552804122E+03  0.00000000000E+00 0.  1.
          4   -1    0    0  502    0 -0.00000000000E+00 -0.00000000000E+00 -0.41157544177E+02  0.41177133736E+02  0.12700000000E+01 0.  1.
         25    2    1    2    0    0 -0.70047721706E+01 -0.31164051097E+02  0.79267104796E+02  0.15142232222E+03  0.12500072340E+03 0.  0.
    9000005    1    3    3    0    0 -0.26321249638E+02 -0.69036265926E+02  0.79983478810E+02  0.10889063816E+03  0.10000000000E+01 0.  0.
    9000005    1    3    3    0    0  0.19316477467E+02  0.37872214829E+02 -0.71637401468E+00  0.42531684067E+02  0.10000000000E+01 0.  0.
          4    1    1    2  501    0  0.70047721706E+01  0.31164051097E+02  0.45103392243E+02  0.55282852728E+02  0.12700000000E+01 0. -1.
<mgrwt>
<rscale>  1 0.12901723E+03</rscale>
<asrwt>0</asrwt>
<pdfrwt beam="1">  1       21 0.25465852E-01 0.12901723E+03</pdfrwt>
<pdfrwt beam="2">  1        4 0.63338117E-02 0.12901723E+03</pdfrwt>
<totfact> 0.95420505E+04</totfact>
</mgrwt>
</event>
<event>
 6    3  0.3813045E-003  0.1407341E+03  0.7818608E-02  0.1212345E+00
          4   -1    0    0  502    0 -0.00000000000E+00  0.00000000000E+00  0.90880419528E+02  0.90889292843E+02  0.12700000000E+01 0.  1.
         21   -1    0    0  501  502  0.00000000000E+00 -0.00000000000E+00 -0.15632873394E+03  0.15632873394E+03  0.00000000000E+00 0. -1.
         25    2    1    2    0    0  0.20849428281E+02  0.61207059381E+02  0.17739833101E+02  0.14184780535E+03  0.12500038171E+03 0.  0.
    9000005    1    3    3    0    0  0.10770125711E+02  0.91190911670E+02  0.42957509894E+02  0.10138109111E+03  0.10000000000E+01 0.  0.
    9000005    1    3    3    0    0  0.10079302570E+02 -0.29983852288E+02 -0.25217676792E+02  0.40466714237E+02  0.10000000000E+01 0.  0.
          4    1    1    2  501    0 -0.20849428281E+02 -0.61207059381E+02 -0.83188147509E+02  0.10537022143E+03  0.12700000000E+01 0. -1.
<mgrwt>
<rscale>  1 0.14073414E+03</rscale>
<asrwt>0</asrwt>
<pdfrwt beam="2">  1       21 0.24050574E-01 0.14073414E+03</pdfrwt>
<pdfrwt beam="1">  1        4 0.13982682E-01 0.14073414E+03</pdfrwt>
<totfact> 0.28421271E+04</totfact>
</mgrwt>
</event>
<event>
 6    3  0.3813045E-003  0.1282210E+03  0.7818608E-02  0.1230120E+00
         -4   -1    0    0    0  501 -0.00000000000E+00  0.00000000000E+00  0.90550008947E+02  0.90558914638E+02  0.12700000000E+01 0. -1.
         21   -1    0    0  501  502  0.00000000000E+00 -0.00000000000E+00 -0.10649936522E+03  0.10649936522E+03  0.00000000000E+00 0. -1.
         25    2    1    2    0    0  0.17525758312E+02  0.22552736813E+02  0.39925926174E+02  0.13429333558E+03  0.12499936903E+03 0.  0.
    9000005    1    3    3    0    0 -0.15573667913E+02 -0.47769112096E+02  0.11692644626E+02  0.51595979892E+02  0.10000000000E+01 0.  0.
    9000005    1    3    3    0    0  0.33099426224E+02  0.70321848909E+02  0.28233281548E+02  0.82697355685E+02  0.10000000000E+01 0.  0.
         -4    1    1    2    0  502 -0.17525758312E+02 -0.22552736813E+02 -0.55875282451E+02  0.62764944285E+02  0.12700000000E+01 0.  1.
<mgrwt>
<rscale>  1 0.12822098E+03</rscale>
<asrwt>0</asrwt>
<pdfrwt beam="2">  1       21 0.16384518E-01 0.12822098E+03</pdfrwt>
<pdfrwt beam="1">  1       -4 0.13932038E-01 0.12822098E+03</pdfrwt>
<totfact> 0.57570524E+04</totfact>
</mgrwt>
</event>
<event>
 6    3  0.3813045E-003  0.1292978E+03  0.7818608E-02  0.1228501E+00
          4   -1    0    0  502    0 -0.00000000000E+00  0.00000000000E+00  0.19116338047E+04  0.19116342266E+04  0.12700000000E+01 0.  1.
         21   -1    0    0  501  502  0.00000000000E+00 -0.00000000000E+00 -0.39256224286E+02  0.39256224286E+02  0.00000000000E+00 0. -1.
         25    2    1    2    0    0 -0.37433596017E+01 -0.32849270497E+02  0.19020548738E+04  0.19064445066E+04  0.12499930537E+03 0.  0.
    9000005    1    3    3    0    0 -0.52962711200E+02 -0.46788589555E+02  0.14016312473E+04  0.14034120472E+04  0.10000000000E+01 0.  0.
    9000005    1    3    3    0    0  0.49219351598E+02  0.13939319058E+02  0.50042362656E+03  0.50303245940E+03  0.10000000000E+01 0.  0.
          4    1    1    2  501    0  0.37433596017E+01  0.32849270497E+02 -0.29677293438E+02  0.44445944236E+02  0.12700000000E+01 0. -1.
<mgrwt>
<rscale>  1 0.12929777E+03</rscale>
<asrwt>0</asrwt>
<pdfrwt beam="2">  1       21 0.60394206E-02 0.12929777E+03</pdfrwt>
<pdfrwt beam="1">  1        4 0.29409905E+00 0.12929777E+03</pdfrwt>
<totfact> 0.33349317E+02</totfact>
</mgrwt>
</event>
<event>
 6    3  0.3813045E-003  0.1440863E+03  0.7818608E-02  0.1207934E+00
         21   -1    0    0  501  502  0.00000000000E+00  0.00000000000E+00  0.41561547461E+04  0.41561547461E+04  0.00000000000E+00 0.  1.
          4   -1    0    0  502    0 -0.00000000000E+00 -0.00000000000E+00 -0.15646277152E+02  0.15697735146E+02  0.12700000000E+01 0. -1.
         25    2    1    2    0    0  0.39315357096E+02  0.59920096899E+02  0.32310749019E+03  0.35377862643E+03  0.12499900394E+03 0.  0.
    9000005    1    3    3    0    0  0.21499092498E+02  0.72394263909E+02  0.32330113606E+03  0.33200567014E+03  0.10000000000E+01 0.  0.
    9000005    1    3    3    0    0  0.17816264598E+02 -0.12474167011E+02 -0.19364587396E+00  0.21772956289E+02  0.10000000000E+01 0.  0.
          4    1    1    2  501    0 -0.39315357096E+02 -0.59920096899E+02  0.38174009788E+04  0.38180738548E+04  0.12700000000E+01 0.  1.
<mgrwt>
<rscale>  1 0.14408632E+03</rscale>
<asrwt>0</asrwt>
<pdfrwt beam="1">  1       21 0.63940754E+00 0.14408632E+03</pdfrwt>
<pdfrwt beam="2">  1        4 0.24110961E-02 0.14408632E+03</pdfrwt>
<totfact> 0.56509448E+00</totfact>
</mgrwt>
</event>
<event>
 6    3  0.3813045E-003  0.1287832E+03  0.7818608E-02  0.1229272E+00
         21   -1    0    0  501  502  0.00000000000E+00  0.00000000000E+00  0.25875938075E+02  0.25875938075E+02  0.00000000000E+00 0.  1.
         -4   -1    0    0    0  501 -0.00000000000E+00 -0.00000000000E+00 -0.25375133022E+03  0.25375450831E+03  0.12700000000E+01 0.  1.
         25    2    1    2    0    0 -0.28497041614E+02 -0.12180874779E+02 -0.16312039509E+03  0.20783018431E+03  0.12499866849E+03 0.  0.
    9000005    1    3    3    0    0 -0.59444276601E+02  0.14586346687E+02 -0.15424645779E+03  0.16594985168E+03  0.10000000000E+01 0.  0.
    9000005    1    3    3    0    0  0.30947234987E+02 -0.26767221466E+02 -0.88739373029E+01  0.41880332635E+02  0.10000000000E+01 0.  0.
         -4    1    1    2    0  502  0.28497041614E+02  0.12180874779E+02 -0.64754997052E+02  0.71800262077E+02  0.12700000000E+01 0. -1.
<mgrwt>
<rscale>  1 0.12878324E+03</rscale>
<asrwt>0</asrwt>
<pdfrwt beam="1">  1       21 0.39809137E-02 0.12878324E+03</pdfrwt>
<pdfrwt beam="2">  1       -4 0.39041307E-01 0.12878324E+03</pdfrwt>
<totfact> 0.10052699E+05</totfact>
</mgrwt>
</event>
<event>
 6    3  0.3813045E-003  0.1268948E+03  0.7818608E-02  0.1232137E+00
          4   -1    0    0  502    0 -0.00000000000E+00  0.00000000000E+00  0.17705824351E+03  0.17706279817E+03  0.12700000000E+01 0. -1.
         21   -1    0    0  501  502  0.00000000000E+00 -0.00000000000E+00 -0.95496568121E+02  0.95496568121E+02  0.00000000000E+00 0.  1.
         25    2    1    2    0    0 -0.21504374246E+02  0.18716400365E+01  0.15250514693E+03  0.19839380689E+03  0.12504535826E+03 0.  0.
    9000005    1    3    3    0    0  0.72085863576E+01  0.46120560585E+02  0.11852538956E+02  0.48172113361E+02  0.10000000000E+01 0.  0.
    9000005    1    3    3    0    0 -0.28712960603E+02 -0.44248920549E+02  0.14065260797E+03  0.15022169352E+03  0.10000000000E+01 0.  0.
          4    1    1    2  501    0  0.21504374246E+02 -0.18716400365E+01 -0.70943471536E+02  0.74165559404E+02  0.12700000000E+01 0.  1.
<mgrwt>
<rscale>  1 0.12689477E+03</rscale>
<asrwt>0</asrwt>
<pdfrwt beam="2">  1       21 0.14691780E-01 0.12689477E+03</pdfrwt>
<pdfrwt beam="1">  1        4 0.27240730E-01 0.12689477E+03</pdfrwt>
<totfact> 0.21038851E+04</totfact>
</mgrwt>
</event>
<event>
 6    3  0.3813045E-003  0.1322522E+03  0.7818608E-02  0.1224152E+00
         -4   -1    0    0    0  501 -0.00000000000E+00  0.00000000000E+00  0.90091072892E+03  0.90091162407E+03  0.12700000000E+01 0. -1.
         21   -1    0    0  501  502  0.00000000000E+00 -0.00000000000E+00 -0.40250627827E+03  0.40250627827E+03  0.00000000000E+00 0.  1.
         25    2    1    2    0    0  0.43190225026E+02 -0.22227043507E+00  0.89487742587E+03  0.90459729366E+03  0.12500084569E+03 0.  0.
    9000005    1    3    3    0    0  0.62295529130E+02  0.11844163848E+02  0.86398527437E+03  0.86630974339E+03  0.10000000000E+01 0.  0.
    9000005    1    3    3    0    0 -0.19105304104E+02 -0.12066434283E+02  0.30892151498E+02  0.38287550266E+02  0.10000000000E+01 0.  0.
         -4    1    1    2    0  502 -0.43190225026E+02  0.22227043507E+00 -0.39647297522E+03  0.39882060869E+03  0.12700000000E+01 0.  1.
<mgrwt>
<rscale>  1 0.13225225E+03</rscale>
<asrwt>0</asrwt>
<pdfrwt beam="2">  1       21 0.61924043E-01 0.13225225E+03</pdfrwt>
<pdfrwt beam="1">  1       -4 0.13860187E+00 0.13225225E+03</pdfrwt>
<totfact> 0.40438132E+01</totfact>
</mgrwt>
</event>
<event>
 6    3  0.3813045E-003  0.1314854E+03  0.7818608E-02  0.1225268E+00
          4   -1    0    0  502    0 -0.00000000000E+00  0.00000000000E+00  0.22768589051E+03  0.22768943243E+03  0.12700000000E+01 0.  1.
         21   -1    0    0  501  502  0.00000000000E+00 -0.00000000000E+00 -0.23160273489E+03  0.23160273489E+03  0.00000000000E+00 0. -1.
         25    2    1    2    0    0  0.40514489440E+02 -0.46830916357E+01  0.20658113660E+03  0.24487582443E+03  0.12500019275E+03 0.  0.
    9000005    1    3    3    0    0  0.21959225769E+02 -0.64024878677E+02  0.12664430911E+03  0.14360074414E+03  0.10000000000E+01 0.  0.
    9000005    1    3    3    0    0  0.18555263670E+02  0.59341787041E+02  0.79936827491E+02  0.10127508029E+03  0.10000000000E+01 0.  0.
          4    1    1    2  501    0 -0.40514489440E+02  0.46830916357E+01 -0.21049798098E+03  0.21441634289E+03  0.12700000000E+01 0. -1.
<mgrwt>
<rscale>  1 0.13148537E+03</rscale>
<asrwt>0</asrwt>
<pdfrwt beam="2">  1       21 0.35631190E-01 0.13148537E+03</pdfrwt>
<pdfrwt beam="1">  1        4 0.35029139E-01 0.13148537E+03</pdfrwt>
<totfact> 0.24837755E+03</totfact>
</mgrwt>
</event>
<event>
 6    3  0.3813045E-003  0.1302284E+03  0.7818608E-02  0.1227117E+00
         21   -1    0    0  501  502  0.00000000000E+00  0.00000000000E+00  0.11845066833E+03  0.11845066833E+03  0.00000000000E+00 0.  1.
          4   -1    0    0  502    0 -0.00000000000E+00 -0.00000000000E+00 -0.59671322052E+02  0.59684835390E+02  0.12700000000E+01 0. -1.
         25    2    1    2    0    0  0.22239939035E+02  0.28998478529E+02  0.36227188646E+02  0.13517343488E+03  0.12499568654E+03 0.  0.
    9000005    1    3    3    0    0 -0.24777452559E+02  0.65664434342E+02  0.14267212008E+02  0.71626066702E+02  0.10000000000E+01 0.  0.
    9000005    1    3    3    0    0  0.47017391594E+02 -0.36665955812E+02  0.21959976638E+02  0.63547368174E+02  0.10000000000E+01 0.  0.
          4    1    1    2  501    0 -0.22239939035E+02 -0.28998478529E+02  0.22552157627E+02  0.42962068839E+02  0.12700000000E+01 0.  1.
<mgrwt>
<rscale>  1 0.13022845E+03</rscale>
<asrwt>0</asrwt>
<pdfrwt beam="1">  1       21 0.18223180E-01 0.13022845E+03</pdfrwt>
<pdfrwt beam="2">  1        4 0.91817666E-02 0.13022845E+03</pdfrwt>
<totfact> 0.96566594E+04</totfact>
</mgrwt>
</event>
<event>
 6    3  0.3813045E-003  0.1285110E+03  0.7818608E-02  0.1229682E+00
         21   -1    0    0  501  502  0.00000000000E+00  0.00000000000E+00  0.24936723151E+02  0.24936723151E+02  0.00000000000E+00 0. -1.
         -4   -1    0    0    0  501 -0.00000000000E+00 -0.00000000000E+00 -0.52587412207E+03  0.52587565561E+03  0.12700000000E+01 0.  1.
         25    2    1    2    0    0  0.26393749758E+01 -0.29709318742E+02 -0.50462542443E+03  0.52073208035E+03  0.12500188240E+03 0.  0.
    9000005    1    3    3    0    0  0.35893121273E+02 -0.56216118233E+02 -0.15796476373E+03  0.17147138153E+03  0.10000000000E+01 0.  0.
    9000005    1    3    3    0    0 -0.33253746297E+02  0.26506799490E+02 -0.34666066070E+03  0.34926069882E+03  0.10000000000E+01 0.  0.
         -4    1    1    2    0  502 -0.26393749758E+01  0.29709318742E+02  0.36880255099E+01  0.30080298412E+02  0.12700000000E+01 0. -1.
<mgrwt>
<rscale>  1 0.12851101E+03</rscale>
<asrwt>0</asrwt>
<pdfrwt beam="1">  1       21 0.38364190E-02 0.12851101E+03</pdfrwt>
<pdfrwt beam="2">  1       -4 0.80906316E-01 0.12851101E+03</pdfrwt>
<totfact> 0.23505197E+04</totfact>
</mgrwt>
</event>
<event>
 6    3  0.3813045E-003  0.1279672E+03  0.7818608E-02  0.1230504E+00
         21   -1    0    0  501  502  0.00000000000E+00  0.00000000000E+00  0.10082111443E+03  0.10082111443E+03  0.00000000000E+00 0. -1.
         -4   -1    0    0    0  501 -0.00000000000E+00 -0.00000000000E+00 -0.17757124100E+03  0.17757578250E+03  0.12700000000E+01 0.  1.
         25    2    1    2    0    0  0.69094201477E+01  0.26511704377E+02 -0.15177107470E+03  0.19851970297E+03  0.12500001118E+03 0.  0.
    9000005    1    3    3    0    0  0.23531311329E+02  0.56650861699E+02 -0.23485469304E+02  0.65693302646E+02  0.10000000000E+01 0.  0.
    9000005    1    3    3    0    0 -0.16621891182E+02 -0.30139157321E+02 -0.12828560540E+03  0.13282640032E+03  0.10000000000E+01 0.  0.
         -4    1    1    2    0  502 -0.69094201477E+01 -0.26511704377E+02  0.75020948133E+02  0.79877193957E+02  0.12700000000E+01 0. -1.
<mgrwt>
<rscale>  1 0.12796724E+03</rscale>
<asrwt>0</asrwt>
<pdfrwt beam="1">  1       21 0.15510941E-01 0.12796724E+03</pdfrwt>
<pdfrwt beam="2">  1       -4 0.27319617E-01 0.12796724E+03</pdfrwt>
<totfact> 0.18992341E+04</totfact>
</mgrwt>
</event>
<event>
 6    3  0.3813045E-003  0.1283629E+03  0.7818608E-02  0.1229905E+00
          4   -1    0    0  502    0 -0.00000000000E+00  0.00000000000E+00  0.68791406787E+02  0.68803128910E+02  0.12700000000E+01 0.  1.
         21   -1    0    0  501  502  0.00000000000E+00 -0.00000000000E+00 -0.13970490522E+03  0.13970490522E+03  0.00000000000E+00 0. -1.
         25    2    1    2    0    0 -0.64182989276E+00  0.29171554379E+02  0.36643954088E+01  0.12841517127E+03  0.12500254753E+03 0.  0.
    9000005    1    3    3    0    0  0.47132306372E+02 -0.15145361644E+02  0.30254953181E+02  0.58027566512E+02  0.10000000000E+01 0.  0.
    9000005    1    3    3    0    0 -0.47774136265E+02  0.44316916023E+02 -0.26590557772E+02  0.70387604763E+02  0.10000000000E+01 0.  0.
          4    1    1    2  501    0  0.64182989276E+00 -0.29171554379E+02 -0.74577893843E+02  0.80092862857E+02  0.12700000000E+01 0. -1.
<mgrwt>
<rscale>  1 0.12836288E+03</rscale>
<asrwt>0</asrwt>
<pdfrwt beam="2">  1       21 0.21493062E-01 0.12836288E+03</pdfrwt>
<pdfrwt beam="1">  1        4 0.10584639E-01 0.12836288E+03</pdfrwt>
<totfact> 0.55948090E+04</totfact>
</mgrwt>
</event>
<event>
 6    3  0.3813045E-003  0.1330541E+03  0.7818608E-02  0.1222993E+00
          4   -1    0    0  502    0 -0.00000000000E+00  0.00000000000E+00  0.43993459114E+02  0.44011786431E+02  0.12700000000E+01 0. -1.
         21   -1    0    0  501  502  0.00000000000E+00 -0.00000000000E+00 -0.28200911117E+03  0.28200911117E+03  0.00000000000E+00 0.  1.
         25    2    1    2    0    0  0.45587853835E+02  0.10622547543E+01 -0.66894710827E+02  0.14892383317E+03  0.12499609973E+03 0.  0.
    9000005    1    3    3    0    0  0.57194752981E+02  0.10234193640E+01 -0.99236558236E+02  0.11454772650E+03  0.10000000000E+01 0.  0.
    9000005    1    3    3    0    0 -0.11606899146E+02  0.38835390314E-01  0.32341847409E+02  0.34376106671E+02  0.10000000000E+01 0.  0.
          4    1    1    2  501    0 -0.45587853835E+02 -0.10622547543E+01 -0.17112094123E+03  0.17709706443E+03  0.12700000000E+01 0.  1.
<mgrwt>
<rscale>  1 0.13305415E+03</rscale>
<asrwt>0</asrwt>
<pdfrwt beam="2">  1       21 0.43386018E-01 0.13305415E+03</pdfrwt>
<pdfrwt beam="1">  1        4 0.67698541E-02 0.13305415E+03</pdfrwt>
<totfact> 0.30315114E+04</totfact>
</mgrwt>
</event>
<event>
 6    3  0.3813045E-003  0.1268000E+03  0.7818608E-02  0.1232283E+00
          4   -1    0    0  502    0 -0.00000000000E+00  0.00000000000E+00  0.10839330028E+03  0.10840074006E+03  0.12700000000E+01 0.  1.
         21   -1    0    0  501  502  0.00000000000E+00 -0.00000000000E+00 -0.11651298322E+03  0.11651298322E+03  0.00000000000E+00 0. -1.
         25    2    1    2    0    0 -0.19188220796E+02  0.92017970051E+01  0.69376789063E+02  0.14453849726E+03  0.12500150976E+03 0.  0.
    9000005    1    3    3    0    0  0.34345878762E+00  0.77102817748E+01  0.10424345373E+03  0.10453355468E+03  0.10000000000E+01 0.  0.
    9000005    1    3    3    0    0 -0.19531679583E+02  0.14915152302E+01 -0.34866664669E+02  0.40004942572E+02  0.10000000000E+01 0.  0.
          4    1    1    2  501    0  0.19188220796E+02 -0.92017970051E+01 -0.77496472002E+02  0.80375226023E+02  0.12700000000E+01 0. -1.
<mgrwt>
<rscale>  1 0.12679999E+03</rscale>
<asrwt>0</asrwt>
<pdfrwt beam="2">  1       21 0.17925074E-01 0.12679999E+03</pdfrwt>
<pdfrwt beam="1">  1        4 0.16676997E-01 0.12679999E+03</pdfrwt>
<totfact> 0.35652333E+04</totfact>
</mgrwt>
</event>
<event>
 6    3  0.3813045E-003  0.1266806E+03  0.7818608E-02  0.1232466E+00
         21   -1    0    0  501  502  0.00000000000E+00  0.00000000000E+00  0.65513365302E+01  0.65513365302E+01  0.00000000000E+00 0. -1.
         -4   -1    0    0    0  501 -0.00000000000E+00 -0.00000000000E+00 -0.87794649918E+03  0.87794741775E+03  0.12700000000E+01 0. -1.
         25    2    1    2    0    0 -0.20204503265E+02 -0.39348278028E+01 -0.80698074980E+03  0.81686345058E+03  0.12499704611E+03 0.  0.
    9000005    1    3    3    0    0 -0.54189503123E+02  0.40552763194E+02 -0.52781801121E+03  0.53214084772E+03  0.10000000000E+01 0.  0.
    9000005    1    3    3    0    0  0.33984999858E+02 -0.44487590997E+02 -0.27916273858E+03  0.28472260286E+03  0.10000000000E+01 0.  0.
         -4    1    1    2    0  502  0.20204503265E+02  0.39348278028E+01 -0.64414412856E+02  0.67635303692E+02  0.12700000000E+01 0.  1.
<mgrwt>
<rscale>  1 0.12668057E+03</rscale>
<asrwt>0</asrwt>
<pdfrwt beam="1">  1       21 0.10078982E-02 0.12668057E+03</pdfrwt>
<pdfrwt beam="2">  1       -4 0.13507819E+00 0.12668057E+03</pdfrwt>
<totfact> 0.61386258E+04</totfact>
</mgrwt>
</event>
<event>
 6    3  0.3813045E-003  0.1288052E+03  0.7818608E-02  0.1229239E+00
         -4   -1    0    0    0  501 -0.00000000000E+00  0.00000000000E+00  0.10456337163E+02  0.10533180282E+02  0.12700000000E+01 0. -1.
         21   -1    0    0  501  502  0.00000000000E+00 -0.00000000000E+00 -0.17169896280E+04  0.17169896280E+04  0.00000000000E+00 0.  1.
         25    2    1    2    0    0  0.24866929211E+02  0.18662087869E+02 -0.39196238456E+03  0.41258367728E+03  0.12499656860E+03 0.  0.
    9000005    1    3    3    0    0  0.74286080472E+02  0.26221583809E+02 -0.23652390678E+03  0.24930012373E+03  0.10000000000E+01 0.  0.
    9000005    1    3    3    0    0 -0.49419151261E+02 -0.75594959404E+01 -0.15543847777E+03  0.16328355356E+03  0.10000000000E+01 0.  0.
         -4    1    1    2    0  502 -0.24866929211E+02 -0.18662087869E+02 -0.13145709063E+04  0.13149391310E+04  0.12700000000E+01 0.  1.
<mgrwt>
<rscale>  1 0.12880520E+03</rscale>
<asrwt>0</asrwt>
<pdfrwt beam="2">  1       21 0.26415226E+00 0.12880520E+03</pdfrwt>
<pdfrwt beam="1">  1       -4 0.16146144E-02 0.12880520E+03</pdfrwt>
<totfact> 0.33349809E+03</totfact>
</mgrwt>
</event>
<event>
 6    3  0.3813045E-003  0.1278890E+03  0.7818608E-02  0.1230622E+00
         -4   -1    0    0    0  501 -0.00000000000E+00  0.00000000000E+00  0.48825309544E+02  0.48841823800E+02  0.12700000000E+01 0. -1.
         21   -1    0    0  501  502  0.00000000000E+00 -0.00000000000E+00 -0.19472360444E+03  0.19472360444E+03  0.00000000000E+00 0.  1.
         25    2    1    2    0    0  0.17376035122E+02  0.20705213870E+02 -0.39604024763E+02  0.13388080196E+03  0.12499983152E+03 0.  0.
    9000005    1    3    3    0    0 -0.27182049512E+02 -0.13286529027E+02 -0.65483847948E+02  0.72142428649E+02  0.10000000000E+01 0.  0.
    9000005    1    3    3    0    0  0.44558084635E+02  0.33991742897E+02  0.25879823186E+02  0.61738373315E+02  0.10000000000E+01 0.  0.
         -4    1    1    2    0  502 -0.17376035122E+02 -0.20705213870E+02 -0.10629427013E+03  0.10968462628E+03  0.12700000000E+01 0.  1.
<mgrwt>
<rscale>  1 0.12788898E+03</rscale>
<asrwt>0</asrwt>
<pdfrwt beam="2">  1       21 0.29957478E-01 0.12788898E+03</pdfrwt>
<pdfrwt beam="1">  1       -4 0.75131750E-02 0.12788898E+03</pdfrwt>
<totfact> 0.52831559E+04</totfact>
</mgrwt>
</event>
<event>
 6    3  0.3813045E-003  0.1269579E+03  0.7818608E-02  0.1232041E+00
         21   -1    0    0  501  502  0.00000000000E+00  0.00000000000E+00  0.18627296365E+03  0.18627296365E+03  0.00000000000E+00 0.  1.
         -4   -1    0    0    0  501 -0.00000000000E+00 -0.00000000000E+00 -0.47280926752E+02  0.47297980237E+02  0.12700000000E+01 0.  1.
         25    2    1    2    0    0  0.88465597063E+01  0.20361850018E+02  0.41490144808E+02  0.13356545196E+03  0.12500172513E+03 0.  0.
    9000005    1    3    3    0    0 -0.55097901299E+02  0.46047987032E+00  0.37122289090E+02  0.66445881111E+02  0.10000000000E+01 0.  0.
    9000005    1    3    3    0    0  0.63944461006E+02  0.19901370148E+02  0.43678557174E+01  0.67119570847E+02  0.10000000000E+01 0.  0.
         -4    1    1    2    0  502 -0.88465597063E+01 -0.20361850018E+02  0.97501892094E+02  0.10000549193E+03  0.12700000000E+01 0. -1.
<mgrwt>
<rscale>  1 0.12695786E+03</rscale>
<asrwt>0</asrwt>
<pdfrwt beam="1">  1       21 0.28657379E-01 0.12695786E+03</pdfrwt>
<pdfrwt beam="2">  1       -4 0.72756337E-02 0.12695786E+03</pdfrwt>
<totfact> 0.60607159E+04</totfact>
</mgrwt>
</event>
<event>
 6    3  0.3813045E-003  0.1267022E+03  0.7818608E-02  0.1232433E+00
          4   -1    0    0  502    0 -0.00000000000E+00  0.00000000000E+00  0.82516983659E+03  0.82517081390E+03  0.12700000000E+01 0. -1.
         21   -1    0    0  501  502  0.00000000000E+00 -0.00000000000E+00 -0.38172949077E+02  0.38172949077E+02  0.00000000000E+00 0.  1.
         25    2    1    2    0    0  0.19536815271E+02  0.67956087088E+01  0.81706233236E+03  0.82682785792E+03  0.12500233684E+03 0.  0.
    9000005    1    3    3    0    0 -0.15319092334E+02 -0.35140577039E+02  0.64911548769E+03  0.65024722306E+03  0.10000000000E+01 0.  0.
    9000005    1    3    3    0    0  0.34855907604E+02  0.41936185748E+02  0.16794684467E+03  0.17658063485E+03  0.10000000000E+01 0.  0.
          4    1    1    2  501    0 -0.19536815271E+02 -0.67956087088E+01 -0.30065444848E+02  0.36515905063E+02  0.12700000000E+01 0.  1.
<mgrwt>
<rscale>  1 0.12670222E+03</rscale>
<asrwt>0</asrwt>
<pdfrwt beam="2">  1       21 0.58727620E-02 0.12670222E+03</pdfrwt>
<pdfrwt beam="1">  1        4 0.12695089E+00 0.12670222E+03</pdfrwt>
<totfact> 0.40528276E+03</totfact>
</mgrwt>
</event>
<event>
 6    3  0.3813045E-003  0.1316694E+03  0.7818608E-02  0.1224999E+00
         21   -1    0    0  501  502  0.00000000000E+00  0.00000000000E+00  0.64808505598E+02  0.64808505598E+02  0.00000000000E+00 0.  1.
          4   -1    0    0  502    0 -0.00000000000E+00 -0.00000000000E+00 -0.11562403226E+03  0.11563100681E+03  0.12700000000E+01 0. -1.
         25    2    1    2    0    0 -0.38939780967E+02  0.13987363419E+02 -0.40865369064E+02  0.13786520780E+03  0.12499953702E+03 0.  0.
    9000005    1    3    3    0    0  0.13983956593E+02 -0.28050504289E+02  0.27511795421E+02  0.41716671968E+02  0.10000000000E+01 0.  0.
    9000005    1    3    3    0    0 -0.52923737559E+02  0.42037867708E+02 -0.68377164485E+02  0.96148535827E+02  0.10000000000E+01 0.  0.
          4    1    1    2  501    0  0.38939780967E+02 -0.13987363419E+02 -0.99501575988E+01  0.42574304614E+02  0.12700000000E+01 0.  1.
<mgrwt>
<rscale>  1 0.13166942E+03</rscale>
<asrwt>0</asrwt>
<pdfrwt beam="1">  1       21 0.99705393E-02 0.13166942E+03</pdfrwt>
<pdfrwt beam="2">  1        4 0.17789806E-01 0.13166942E+03</pdfrwt>
<totfact> 0.91180764E+04</totfact>
</mgrwt>
</event>
<event>
 6    3  0.3813045E-003  0.1479417E+03  0.7818608E-02  0.1203025E+00
         21   -1    0    0  501  502  0.00000000000E+00  0.00000000000E+00  0.52760344539E+03  0.52760344539E+03  0.00000000000E+00 0.  1.
          4   -1    0    0  502    0 -0.00000000000E+00 -0.00000000000E+00 -0.46622155876E+02  0.46639450239E+02  0.12700000000E+01 0. -1.
         25    2    1    2    0    0  0.24914493413E+02 -0.75097276771E+02  0.85393568255E+02  0.17081806859E+03  0.12500567226E+03 0.  0.
    9000005    1    3    3    0    0  0.94614513066E+01  0.50221923269E+00  0.92805967950E+02  0.93293724184E+02  0.10000000000E+01 0.  0.
    9000005    1    3    3    0    0  0.15453042106E+02 -0.75599496004E+02 -0.74123996947E+01  0.77524344406E+02  0.10000000000E+01 0.  0.
          4    1    1    2  501    0 -0.24914493413E+02  0.75097276771E+02  0.39558772126E+03  0.40342482704E+03  0.12700000000E+01 0.  1.
<mgrwt>
<rscale>  1 0.14794172E+03</rscale>
<asrwt>0</asrwt>
<pdfrwt beam="1">  1       21 0.81169757E-01 0.14794172E+03</pdfrwt>
<pdfrwt beam="2">  1        4 0.71740876E-02 0.14794172E+03</pdfrwt>
<totfact> 0.73246491E+03</totfact>
</mgrwt>
</event>
<event>
 6    3  0.3813045E-003  0.1327018E+03  0.7818608E-02  0.1223501E+00
         21   -1    0    0  501  502  0.00000000000E+00  0.00000000000E+00  0.18828601057E+03  0.18828601057E+03  0.00000000000E+00 0.  1.
          4   -1    0    0  502    0 -0.00000000000E+00 -0.00000000000E+00 -0.42240943780E+02  0.42260031134E+02  0.12700000000E+01 0.  1.
         25    2    1    2    0    0  0.31537979968E+02  0.31250420937E+02  0.96975158254E+02  0.16435917131E+03  0.12505407984E+03 0.  0.
    9000005    1    3    3    0    0 -0.44659183375E+02  0.42506667516E+01  0.10711232989E+02  0.46132866155E+02  0.10000000000E+01 0.  0.
    9000005    1    3    3    0    0  0.76197163343E+02  0.26999754186E+02  0.86263925266E+02  0.11822630515E+03  0.10000000000E+01 0.  0.
          4    1    1    2  501    0 -0.31537979968E+02 -0.31250420937E+02  0.49069908535E+02  0.66186870396E+02  0.12700000000E+01 0. -1.
<mgrwt>
<rscale>  1 0.13270176E+03</rscale>
<asrwt>0</asrwt>
<pdfrwt beam="1">  1       21 0.28967078E-01 0.13270176E+03</pdfrwt>
<pdfrwt beam="2">  1        4 0.65004045E-02 0.13270176E+03</pdfrwt>
<totfact> 0.71794698E+04</totfact>
</mgrwt>
</event>
<event>
 6    3  0.3813045E-003  0.1304072E+03  0.7818608E-02  0.1226853E+00
          4   -1    0    0  502    0 -0.00000000000E+00  0.00000000000E+00  0.14722545682E+02  0.14777220692E+02  0.12700000000E+01 0.  1.
         21   -1    0    0  501  502  0.00000000000E+00 -0.00000000000E+00 -0.59351004556E+03  0.59351004556E+03  0.00000000000E+00 0.  1.
         25    2    1    2    0    0  0.28614844701E+02  0.23727643196E+02 -0.30119525125E+03  0.32821427615E+03  0.12499688517E+03 0.  0.
    9000005    1    3    3    0    0  0.61526359213E+02 -0.28431909428E+02 -0.13795994875E+03  0.15371341454E+03  0.10000000000E+01 0.  0.
    9000005    1    3    3    0    0 -0.32911514512E+02  0.52159552624E+02 -0.16323530251E+03  0.17450086161E+03  0.10000000000E+01 0.  0.
          4    1    1    2  501    0 -0.28614844701E+02 -0.23727643196E+02 -0.27759224863E+03  0.28007299010E+03  0.12700000000E+01 0. -1.
<mgrwt>
<rscale>  1 0.13040718E+03</rscale>
<asrwt>0</asrwt>
<pdfrwt beam="2">  1       21 0.91309237E-01 0.13040718E+03</pdfrwt>
<pdfrwt beam="1">  1        4 0.22693173E-02 0.13040718E+03</pdfrwt>
<totfact> 0.34720309E+04</totfact>
</mgrwt>
</event>
<event>
 6    3  0.3813045E-003  0.1311214E+03  0.7818608E-02  0.1225801E+00
          4   -1    0    0  502    0 -0.00000000000E+00  0.00000000000E+00  0.76226863350E+03  0.76226969146E+03  0.12700000000E+01 0.  1.
         21   -1    0    0  501  502  0.00000000000E+00 -0.00000000000E+00 -0.15170521127E+02  0.15170521127E+02  0.00000000000E+00 0.  1.
         25    2    1    2    0    0 -0.23985204169E+02 -0.31499873222E+02  0.71364800298E+03  0.72559375899E+03  0.12500119561E+03 0.  0.
    9000005    1    3    3    0    0 -0.24494190356E+02 -0.77255388334E+02  0.53844467289E+03  0.54451081362E+03  0.10000000000E+01 0.  0.
    9000005    1    3    3    0    0  0.50898618749E+00  0.45755515113E+02  0.17520333009E+03  0.18108294537E+03  0.10000000000E+01 0.  0.
          4    1    1    2  501    0  0.23985204169E+02  0.31499873222E+02  0.33450109400E+02  0.51846453599E+02  0.12700000000E+01 0. -1.
<mgrwt>
<rscale>  1 0.13112144E+03</rscale>
<asrwt>0</asrwt>
<pdfrwt beam="2">  1       21 0.23339269E-02 0.13112144E+03</pdfrwt>
<pdfrwt beam="1">  1        4 0.11727624E+00 0.13112144E+03</pdfrwt>
<totfact> 0.22697131E+04</totfact>
</mgrwt>
</event>
<event>
 6    3  0.3813045E-003  0.1290045E+03  0.7818608E-02  0.1228940E+00
         -4   -1    0    0    0  501 -0.00000000000E+00  0.00000000000E+00  0.32931055184E+03  0.32931300073E+03  0.12700000000E+01 0.  1.
         21   -1    0    0  501  502  0.00000000000E+00 -0.00000000000E+00 -0.11608369274E+03  0.11608369274E+03  0.00000000000E+00 0. -1.
         25    2    1    2    0    0  0.27032836770E+02 -0.16955895061E+02  0.31411543201E+03  0.33957423042E+03  0.12499550670E+03 0.  0.
    9000005    1    3    3    0    0  0.19897438532E+02 -0.49395533289E+02  0.29785389239E+03  0.30257853192E+03  0.10000000000E+01 0.  0.
    9000005    1    3    3    0    0  0.71353982373E+01  0.32439638229E+02  0.16261539625E+02  0.36995698499E+02  0.10000000000E+01 0.  0.
         -4    1    1    2    0  502 -0.27032836770E+02  0.16955895061E+02 -0.10088857292E+03  0.10582246305E+03  0.12700000000E+01 0. -1.
<mgrwt>
<rscale>  1 0.12900447E+03</rscale>
<asrwt>0</asrwt>
<pdfrwt beam="2">  1       21 0.17859030E-01 0.12900447E+03</pdfrwt>
<pdfrwt beam="1">  1       -4 0.50663884E-01 0.12900447E+03</pdfrwt>
<totfact> 0.44189892E+03</totfact>
</mgrwt>
</event>
<event>
 6    3  0.3813045E-003  0.1281616E+03  0.7818608E-02  0.1230209E+00
         21   -1    0    0  501  502  0.00000000000E+00  0.00000000000E+00  0.28926097849E+03  0.28926097849E+03  0.00000000000E+00 0. -1.
         -4   -1    0    0    0  501 -0.00000000000E+00 -0.00000000000E+00 -0.86952302210E+02  0.86961576341E+02  0.12700000000E+01 0.  1.
         25    2    1    2    0    0  0.24354033104E+02  0.14404038651E+02 -0.38448866905E+02  0.13380472801E+03  0.12499917846E+03 0.  0.
    9000005    1    3    3    0    0 -0.22025838720E+02 -0.45566220524E+02 -0.47777991757E+01  0.50845308428E+02  0.10000000000E+01 0.  0.
    9000005    1    3    3    0    0  0.46379871824E+02  0.59970259176E+02 -0.33671067729E+02  0.82959419586E+02  0.10000000000E+01 0.  0.
         -4    1    1    2    0  502 -0.24354033104E+02 -0.14404038651E+02  0.24075754319E+03  0.24241782682E+03  0.12700000000E+01 0. -1.
<mgrwt>
<rscale>  1 0.12816158E+03</rscale>
<asrwt>0</asrwt>
<pdfrwt beam="1">  1       21 0.44501689E-01 0.12816158E+03</pdfrwt>
<pdfrwt beam="2">  1       -4 0.13378205E-01 0.12816158E+03</pdfrwt>
<totfact> 0.91495147E+03</totfact>
</mgrwt>
</event>
<event>
 6    3  0.3813045E-003  0.1282105E+03  0.7818608E-02  0.1230135E+00
         21   -1    0    0  501  502  0.00000000000E+00  0.00000000000E+00  0.87866624475E+01  0.87866624475E+01  0.00000000000E+00 0.  1.
          4   -1    0    0  502    0 -0.00000000000E+00 -0.00000000000E+00 -0.72607065178E+03  0.72607176249E+03  0.12700000000E+01 0.  1.
         25    2    1    2    0    0  0.26382906328E+02  0.10789509323E+02 -0.52273885826E+03  0.53823214952E+03  0.12500184633E+03 0.  0.
    9000005    1    3    3    0    0  0.51807555483E+02  0.55962964838E+02 -0.32131971190E+03  0.33024723086E+03  0.10000000000E+01 0.  0.
    9000005    1    3    3    0    0 -0.25424649155E+02 -0.45173455515E+02 -0.20141914636E+03  0.20798491866E+03  0.10000000000E+01 0.  0.
          4    1    1    2  501    0 -0.26382906328E+02 -0.10789509323E+02 -0.19454513108E+03  0.19662627542E+03  0.12700000000E+01 0. -1.
<mgrwt>
<rscale>  1 0.12821050E+03</rscale>
<asrwt>0</asrwt>
<pdfrwt beam="1">  1       21 0.13517941E-02 0.12821050E+03</pdfrwt>
<pdfrwt beam="2">  1        4 0.11171033E+00 0.12821050E+03</pdfrwt>
<totfact> 0.61075173E+04</totfact>
</mgrwt>
</event>
<event>
 6    3  0.3813045E-003  0.1267178E+03  0.7818608E-02  0.1232409E+00
         21   -1    0    0  501  502  0.00000000000E+00  0.00000000000E+00  0.23857651395E+02  0.23857651395E+02  0.00000000000E+00 0.  1.
          4   -1    0    0  502    0 -0.00000000000E+00 -0.00000000000E+00 -0.30093019657E+03  0.30093287642E+03  0.12700000000E+01 0.  1.
         25    2    1    2    0    0 -0.20539983870E+02  0.32839289445E+01 -0.27625917021E+03  0.30393508235E+03  0.12499892011E+03 0.  0.
    9000005    1    3    3    0    0 -0.31874832609E+02 -0.32951870635E+02 -0.25754281584E+03  0.26159344931E+03  0.10000000000E+01 0.  0.
    9000005    1    3    3    0    0  0.11334848740E+02  0.36235799580E+02 -0.18716354369E+02  0.42341633034E+02  0.10000000000E+01 0.  0.
          4    1    1    2  501    0  0.20539983870E+02 -0.32839289445E+01 -0.81337496574E+00  0.20855445464E+02  0.12700000000E+01 0. -1.
<mgrwt>
<rscale>  1 0.12671782E+03</rscale>
<asrwt>0</asrwt>
<pdfrwt beam="1">  1       21 0.36704080E-02 0.12671782E+03</pdfrwt>
<pdfrwt beam="2">  1        4 0.46299758E-01 0.12671782E+03</pdfrwt>
<totfact> 0.81809529E+04</totfact>
</mgrwt>
</event>
<event>
 6    3  0.3813045E-003  0.1275149E+03  0.7818608E-02  0.1231190E+00
         21   -1    0    0  501  502  0.00000000000E+00  0.00000000000E+00  0.11434000662E+03  0.11434000662E+03  0.00000000000E+00 0. -1.
         -4   -1    0    0    0  501 -0.00000000000E+00 -0.00000000000E+00 -0.18163160813E+03  0.18163604811E+03  0.12700000000E+01 0.  1.
         25    2    1    2    0    0  0.85093674134E+01  0.23737457108E+02 -0.15730036202E+03  0.20249308262E+03  0.12499667361E+03 0.  0.
    9000005    1    3    3    0    0  0.62813159533E+01 -0.46107494705E+02 -0.10609133925E+03  0.11585218281E+03  0.10000000000E+01 0.  0.
    9000005    1    3    3    0    0  0.22280514602E+01  0.69844951813E+02 -0.51209022778E+02  0.86640899816E+02  0.10000000000E+01 0.  0.
         -4    1    1    2    0  502 -0.85093674134E+01 -0.23737457108E+02  0.90008760513E+02  0.93482972101E+02  0.12700000000E+01 0. -1.
<mgrwt>
<rscale>  1 0.12751488E+03</rscale>
<asrwt>0</asrwt>
<pdfrwt beam="1">  1       21 0.17590770E-01 0.12751488E+03</pdfrwt>
<pdfrwt beam="2">  1       -4 0.27944208E-01 0.12751488E+03</pdfrwt>
<totfact> 0.14481751E+04</totfact>
</mgrwt>
</event>
<event>
 6    3  0.3813045E-003  0.1326673E+03  0.7818608E-02  0.1223551E+00
         21   -1    0    0  501  502  0.00000000000E+00  0.00000000000E+00  0.30896410446E+02  0.30896410446E+02  0.00000000000E+00 0. -1.
         -4   -1    0    0    0  501 -0.00000000000E+00 -0.00000000000E+00 -0.26456410172E+03  0.26456714992E+03  0.12700000000E+01 0. -1.
         25    2    1    2    0    0 -0.16948011797E+02  0.41132902874E+02 -0.14684955763E+03  0.19790254340E+03  0.12498589243E+03 0.  0.
    9000005    1    3    3    0    0  0.49571868226E+02  0.17979776470E+02 -0.10074288005E+03  0.11371354520E+03  0.10000000000E+01 0.  0.
    9000005    1    3    3    0    0 -0.66519880023E+02  0.23153126404E+02 -0.46106677585E+02  0.84188998204E+02  0.10000000000E+01 0.  0.
         -4    1    1    2    0  502  0.16948011797E+02 -0.41132902874E+02 -0.86818133638E+02  0.97561016964E+02  0.12700000000E+01 0.  1.
<mgrwt>
<rscale>  1 0.13266734E+03</rscale>
<asrwt>0</asrwt>
<pdfrwt beam="1">  1       21 0.47532939E-02 0.13266734E+03</pdfrwt>
<pdfrwt beam="2">  1       -4 0.40704412E-01 0.13266734E+03</pdfrwt>
<totfact> 0.69189755E+04</totfact>
</mgrwt>
</event>
<event>
 6    3  0.3813045E-003  0.1436355E+03  0.7818608E-02  0.1208519E+00
          4   -1    0    0  502    0 -0.00000000000E+00  0.00000000000E+00  0.59077021570E+02  0.59090670816E+02  0.12700000000E+01 0. -1.
         21   -1    0    0  501  502  0.00000000000E+00 -0.00000000000E+00 -0.75777510291E+03  0.75777510291E+03  0.00000000000E+00 0.  1.
         25    2    1    2    0    0  0.69675308891E+02  0.12294042497E+02 -0.32948616699E+02  0.14736614361E+03  0.12500150716E+03 0.  0.
    9000005    1    3    3    0    0  0.24106737683E+02 -0.55347482107E+02 -0.25227879995E+02  0.65436415751E+02  0.10000000000E+01 0.  0.
    9000005    1    3    3    0    0  0.45568571207E+02  0.67641524603E+02 -0.77207367038E+01  0.81929727864E+02  0.10000000000E+01 0.  0.
          4    1    1    2  501    0 -0.69675308891E+02 -0.12294042497E+02 -0.66574946464E+03  0.66949963011E+03  0.12700000000E+01 0.  1.
<mgrwt>
<rscale>  1 0.14363554E+03</rscale>
<asrwt>0</asrwt>
<pdfrwt beam="2">  1       21 0.11658078E+00 0.14363554E+03</pdfrwt>
<pdfrwt beam="1">  1        4 0.90899049E-02 0.14363554E+03</pdfrwt>
<totfact> 0.21197711E+03</totfact>
</mgrwt>
</event>
<event>
 6    3  0.3813045E-003  0.1296161E+03  0.7818608E-02  0.1228027E+00
         21   -1    0    0  501  502  0.00000000000E+00  0.00000000000E+00  0.36494510799E+03  0.36494510799E+03  0.00000000000E+00 0.  1.
         -4   -1    0    0    0  501 -0.00000000000E+00 -0.00000000000E+00 -0.23461258548E+02  0.23495607093E+02  0.12700000000E+01 0.  1.
         25    2    1    2    0    0  0.15735042915E+02  0.30469334129E+02  0.17119066735E+03  0.21472441572E+03  0.12499743286E+03 0.  0.
    9000005    1    3    3    0    0 -0.34943415320E+02 -0.31522751898E+02  0.44051978408E+02  0.64469395554E+02  0.10000000000E+01 0.  0.
    9000005    1    3    3    0    0  0.50678458235E+02  0.61992086027E+02  0.12713868895E+03  0.15025502017E+03  0.10000000000E+01 0.  0.
         -4    1    1    2    0  502 -0.15735042915E+02 -0.30469334129E+02  0.17029318208E+03  0.17371629936E+03  0.12700000000E+01 0. -1.
<mgrwt>
<rscale>  1 0.12961609E+03</rscale>
<asrwt>0</asrwt>
<pdfrwt beam="1">  1       21 0.56145397E-01 0.12961609E+03</pdfrwt>
<pdfrwt beam="2">  1       -4 0.36122368E-02 0.12961609E+03</pdfrwt>
<totfact> 0.48748756E+04</totfact>
</mgrwt>
</event>
<event>
 6    3  0.3813045E-003  0.1315595E+03  0.7818608E-02  0.1225160E+00
         21   -1    0    0  501  502  0.00000000000E+00  0.00000000000E+00  0.12203298980E+03  0.12203298980E+03  0.00000000000E+00 0. -1.
         -4   -1    0    0    0  501 -0.00000000000E+00 -0.00000000000E+00 -0.97223589645E+02  0.97231884088E+02  0.12700000000E+01 0.  1.
         25    2    1    2    0    0 -0.39106350660E+02 -0.12401454627E+02 -0.44357473460E+02  0.13883619713E+03  0.12499920577E+03 0.  0.
    9000005    1    3    3    0    0  0.43423971982E+02  0.69503525067E+01 -0.28984998936E+02  0.52679017701E+02  0.10000000000E+01 0.  0.
    9000005    1    3    3    0    0 -0.82530322642E+02 -0.19351807133E+02 -0.15372474524E+02  0.86157179432E+02  0.10000000000E+01 0.  0.
         -4    1    1    2    0  502  0.39106350660E+02  0.12401454627E+02  0.69166873615E+02  0.80428676755E+02  0.12700000000E+01 0. -1.
<mgrwt>
<rscale>  1 0.13155951E+03</rscale>
<asrwt>0</asrwt>
<pdfrwt beam="1">  1       21 0.18774306E-01 0.13155951E+03</pdfrwt>
<pdfrwt beam="2">  1       -4 0.14958622E-01 0.13155951E+03</pdfrwt>
<totfact> 0.39800403E+04</totfact>
</mgrwt>
</event>
<event>
 6    3  0.3813045E-003  0.1358126E+03  0.7818608E-02  0.1219077E+00
          4   -1    0    0  502    0 -0.00000000000E+00  0.00000000000E+00  0.36687375263E+03  0.36687595079E+03  0.12700000000E+01 0. -1.
         21   -1    0    0  501  502  0.00000000000E+00 -0.00000000000E+00 -0.27778179206E+02  0.27778179206E+02  0.00000000000E+00 0. -1.
         25    2    1    2    0    0  0.50666858005E+02  0.15894704737E+02  0.17103166965E+03  0.21839619176E+03  0.12500116965E+03 0.  0.
    9000005    1    3    3    0    0  0.93275755998E+01  0.37674861969E+02 -0.22812621742E+01  0.38892197778E+02  0.10000000000E+01 0.  0.
    9000005    1    3    3    0    0  0.41339282405E+02 -0.21780157232E+02  0.17331293182E+03  0.17950399398E+03  0.10000000000E+01 0.  0.
          4    1    1    2  501    0 -0.50666858005E+02 -0.15894704737E+02  0.16806390377E+03  0.17625793823E+03  0.12700000000E+01 0.  1.
<mgrwt>
<rscale>  1 0.13581261E+03</rscale>
<asrwt>0</asrwt>
<pdfrwt beam="2">  1       21 0.42735663E-02 0.13581261E+03</pdfrwt>
<pdfrwt beam="1">  1        4 0.56444515E-01 0.13581261E+03</pdfrwt>
<totfact> 0.42785346E+04</totfact>
</mgrwt>
</event>
<event>
 6    3  0.3813045E-003  0.1276526E+03  0.7818608E-02  0.1230981E+00
         21   -1    0    0  501  502  0.00000000000E+00  0.00000000000E+00  0.21582984076E+03  0.21582984076E+03  0.00000000000E+00 0. -1.
          4   -1    0    0  502    0 -0.00000000000E+00 -0.00000000000E+00 -0.32356612771E+02  0.32381526987E+02  0.12700000000E+01 0. -1.
         25    2    1    2    0    0  0.10376424875E+02  0.23726130643E+02  0.10412196545E+03  0.16473181794E+03  0.12499835473E+03 0.  0.
    9000005    1    3    3    0    0  0.60852366210E+02 -0.14742657960E+02  0.38880632742E+02  0.73709294119E+02  0.10000000000E+01 0.  0.
    9000005    1    3    3    0    0 -0.50475941335E+02  0.38468788603E+02  0.65241332706E+02  0.91022523825E+02  0.10000000000E+01 0.  0.
          4    1    1    2  501    0 -0.10376424875E+02 -0.23726130643E+02  0.79351262545E+02  0.83479549807E+02  0.12700000000E+01 0.  1.
<mgrwt>
<rscale>  1 0.12765261E+03</rscale>
<asrwt>0</asrwt>
<pdfrwt beam="1">  1       21 0.33204590E-01 0.12765261E+03</pdfrwt>
<pdfrwt beam="2">  1        4 0.49801445E-02 0.12765261E+03</pdfrwt>
<totfact> 0.84410024E+04</totfact>
</mgrwt>
</event>
<event>
 6    3  0.3813045E-003  0.1266454E+03  0.7818608E-02  0.1232520E+00
         -4   -1    0    0    0  501 -0.00000000000E+00  0.00000000000E+00  0.40095409903E+03  0.40095611036E+03  0.12700000000E+01 0.  1.
         21   -1    0    0  501  502  0.00000000000E+00 -0.00000000000E+00 -0.37378268040E+02  0.37378268040E+02  0.00000000000E+00 0. -1.
         25    2    1    2    0    0  0.20329910745E+02 -0.11801453926E+01  0.38704371626E+03  0.40723690980E+03  0.12499745755E+03 0.  0.
    9000005    1    3    3    0    0  0.24099378510E+02  0.60112106946E+02  0.21593398212E+03  0.22543897196E+03  0.10000000000E+01 0.  0.
    9000005    1    3    3    0    0 -0.37694677647E+01 -0.61292252339E+02  0.17110973415E+03  0.18179793784E+03  0.10000000000E+01 0.  0.
         -4    1    1    2    0  502 -0.20329910745E+02  0.11801453926E+01 -0.23467885267E+02  0.31097468594E+02  0.12700000000E+01 0. -1.
<mgrwt>
<rscale>  1 0.12664542E+03</rscale>
<asrwt>0</asrwt>
<pdfrwt beam="2">  1       21 0.57505031E-02 0.12664542E+03</pdfrwt>
<pdfrwt beam="1">  1       -4 0.61687057E-01 0.12664542E+03</pdfrwt>
<totfact> 0.21401872E+04</totfact>
</mgrwt>
</event>
<event>
 6    3  0.3813045E-003  0.1353957E+03  0.7818608E-02  0.1219662E+00
          4   -1    0    0  502    0 -0.00000000000E+00  0.00000000000E+00  0.23423747358E+03  0.23424091643E+03  0.12700000000E+01 0.  1.
         21   -1    0    0  501  502  0.00000000000E+00 -0.00000000000E+00 -0.46633936203E+02  0.46633936203E+02  0.00000000000E+00 0.  1.
         25    2    1    2    0    0 -0.24088554098E+02 -0.46105266989E+02  0.18436349579E+03  0.22873978908E+03  0.12500415371E+03 0.  0.
    9000005    1    3    3    0    0 -0.30275435363E+02 -0.87941203513E+02  0.12302267839E+03  0.15422657573E+03  0.10000000000E+01 0.  0.
    9000005    1    3    3    0    0  0.61868812654E+01  0.41835936524E+02  0.61340817398E+02  0.74513213349E+02  0.10000000000E+01 0.  0.
          4    1    1    2  501    0  0.24088554098E+02  0.46105266989E+02  0.32400415890E+01  0.52135063557E+02  0.12700000000E+01 0. -1.
<mgrwt>
<rscale>  1 0.13539569E+03</rscale>
<asrwt>0</asrwt>
<pdfrwt beam="2">  1       21 0.71744519E-02 0.13539569E+03</pdfrwt>
<pdfrwt beam="1">  1        4 0.36038129E-01 0.13539569E+03</pdfrwt>
<totfact> 0.43794752E+04</totfact>
</mgrwt>
</event>
<event>
 6    3  0.3813045E-003  0.1269250E+03  0.7818608E-02  0.1232091E+00
          4   -1    0    0  502    0 -0.00000000000E+00  0.00000000000E+00  0.13648630307E+03  0.13649221160E+03  0.12700000000E+01 0. -1.
         21   -1    0    0  501  502  0.00000000000E+00 -0.00000000000E+00 -0.24277058767E+03  0.24277058767E+03  0.00000000000E+00 0.  1.
         25    2    1    2    0    0 -0.45453537679E+01 -0.21642342586E+02  0.10628107166E+03  0.16554641053E+03  0.12498358538E+03 0.  0.
    9000005    1    3    3    0    0 -0.33275664523E+02  0.39777608666E+02  0.74183362759E+02  0.90519054960E+02  0.10000000000E+01 0.  0.
    9000005    1    3    3    0    0  0.28730310755E+02 -0.61419951251E+02  0.32097708897E+02  0.75027355573E+02  0.10000000000E+01 0.  0.
          4    1    1    2  501    0  0.45453537679E+01  0.21642342586E+02 -0.21256535626E+03  0.21371638874E+03  0.12700000000E+01 0.  1.
<mgrwt>
<rscale>  1 0.12692497E+03</rscale>
<asrwt>0</asrwt>
<pdfrwt beam="2">  1       21 0.37349321E-01 0.12692497E+03</pdfrwt>
<pdfrwt beam="1">  1        4 0.20998603E-01 0.12692497E+03</pdfrwt>
<totfact> 0.58641091E+03</totfact>
</mgrwt>
</event>
<event>
 6    3  0.3813045E-003  0.1269074E+03  0.7818608E-02  0.1232118E+00
          4   -1    0    0  502    0 -0.00000000000E+00  0.00000000000E+00  0.12770016438E+03  0.12770647941E+03  0.12700000000E+01 0.  1.
         21   -1    0    0  501  502  0.00000000000E+00 -0.00000000000E+00 -0.14570455472E+03  0.14570455472E+03  0.00000000000E+00 0. -1.
         25    2    1    2    0    0  0.99483042903E+00  0.21913584485E+02  0.94850855462E+02  0.15843662708E+03  0.12499714055E+03 0.  0.
    9000005    1    3    3    0    0  0.43447460683E+02  0.56741322389E+02  0.60656970979E+02  0.93741813694E+02  0.10000000000E+01 0.  0.
    9000005    1    3    3    0    0 -0.42452630253E+02 -0.34827737903E+02  0.34193884483E+02  0.64694813385E+02  0.10000000000E+01 0.  0.
          4    1    1    2  501    0 -0.99483042903E+00 -0.21913584485E+02 -0.11285524580E+03  0.11497440706E+03  0.12700000000E+01 0. -1.
<mgrwt>
<rscale>  1 0.12690737E+03</rscale>
<asrwt>0</asrwt>
<pdfrwt beam="2">  1       21 0.22416085E-01 0.12690737E+03</pdfrwt>
<pdfrwt beam="1">  1        4 0.19647091E-01 0.12690737E+03</pdfrwt>
<totfact> 0.17625859E+04</totfact>
</mgrwt>
</event>
<event>
 6    3  0.3813045E-003  0.1276436E+03  0.7818608E-02  0.1230995E+00
         21   -1    0    0  501  502  0.00000000000E+00  0.00000000000E+00  0.25824524802E+03  0.25824524802E+03  0.00000000000E+00 0.  1.
         -4   -1    0    0    0  501 -0.00000000000E+00 -0.00000000000E+00 -0.24047920312E+02  0.24081432086E+02  0.12700000000E+01 0.  1.
         25    2    1    2    0    0  0.14831429919E+02  0.21155173724E+02  0.16609088756E+03  0.20947331520E+03  0.12500149664E+03 0.  0.
    9000005    1    3    3    0    0 -0.53978869170E+02 -0.24655269545E+01  0.59078667989E+02  0.80069258466E+02  0.10000000000E+01 0.  0.
    9000005    1    3    3    0    0  0.68810299089E+02  0.23620700678E+02  0.10701221957E+03  0.12940405673E+03  0.10000000000E+01 0.  0.
         -4    1    1    2    0  502 -0.14831429919E+02 -0.21155173724E+02  0.68106440153E+02  0.72853364913E+02  0.12700000000E+01 0. -1.
<mgrwt>
<rscale>  1 0.12764359E+03</rscale>
<asrwt>0</asrwt>
<pdfrwt beam="1">  1       21 0.39730036E-01 0.12764359E+03</pdfrwt>
<pdfrwt beam="2">  1       -4 0.37024983E-02 0.12764359E+03</pdfrwt>
<totfact> 0.94985047E+04</totfact>
</mgrwt>
</event>
<event>
 6    3  0.3813045E-003  0.1293605E+03  0.7818608E-02  0.1228408E+00
         21   -1    0    0  501  502  0.00000000000E+00  0.00000000000E+00  0.28711215665E+03  0.28711215665E+03  0.00000000000E+00 0. -1.
         -4   -1    0    0    0  501 -0.00000000000E+00 -0.00000000000E+00 -0.69276975934E+02  0.69288615909E+02  0.12700000000E+01 0.  1.
         25    2    1    2    0    0  0.33121229943E+02 -0.37928842768E+01 -0.65718920983E+01  0.12952735174E+03  0.12499097263E+03 0.  0.
    9000005    1    3    3    0    0  0.91230877559E+01  0.49063929047E+02  0.32484757804E+02  0.59554675327E+02  0.10000000000E+01 0.  0.
    9000005    1    3    3    0    0  0.23998142187E+02 -0.52856813324E+02 -0.39056649902E+02  0.69972676416E+02  0.10000000000E+01 0.  0.
         -4    1    1    2    0  502 -0.33121229943E+02  0.37928842768E+01  0.22440707282E+03  0.22687342082E+03  0.12700000000E+01 0. -1.
<mgrwt>
<rscale>  1 0.12936052E+03</rscale>
<asrwt>0</asrwt>
<pdfrwt beam="1">  1       21 0.44171100E-01 0.12936052E+03</pdfrwt>
<pdfrwt beam="2">  1       -4 0.10659108E-01 0.12936052E+03</pdfrwt>
<totfact> 0.13703668E+04</totfact>
</mgrwt>
</event>
<event>
 6    3  0.3813045E-003  0.1329599E+03  0.7818608E-02  0.1223129E+00
         -4   -1    0    0    0  501 -0.00000000000E+00  0.00000000000E+00  0.16526619716E+03  0.16527107679E+03  0.12700000000E+01 0.  1.
         21   -1    0    0  501  502  0.00000000000E+00 -0.00000000000E+00 -0.80574051003E+02  0.80574051003E+02  0.00000000000E+00 0. -1.
         25    2    1    2    0    0 -0.17380109509E+01  0.45274386801E+02  0.12698142315E+03  0.18385491380E+03  0.12500222686E+03 0.  0.
    9000005    1    3    3    0    0  0.45089969624E+02  0.22675644738E+02  0.43688317707E+01  0.50669289674E+02  0.10000000000E+01 0.  0.
    9000005    1    3    3    0    0 -0.46827980575E+02  0.22598742062E+02  0.12261259138E+03  0.13318562412E+03  0.10000000000E+01 0.  0.
         -4    1    1    2    0  502  0.17380109509E+01 -0.45274386801E+02 -0.42289276998E+02  0.61990213996E+02  0.12700000000E+01 0. -1.
<mgrwt>
<rscale>  1 0.13295995E+03</rscale>
<asrwt>0</asrwt>
<pdfrwt beam="2">  1       21 0.12396008E-01 0.13295995E+03</pdfrwt>
<pdfrwt beam="1">  1       -4 0.25426714E-01 0.13295995E+03</pdfrwt>
<totfact> 0.32567272E+04</totfact>
</mgrwt>
</event>
<event>
 6    3  0.3813045E-003  0.1272573E+03  0.7818608E-02  0.1231583E+00
          4   -1    0    0  502    0 -0.00000000000E+00  0.00000000000E+00  0.23482022507E+03  0.23482365938E+03  0.12700000000E+01 0.  1.
         21   -1    0    0  501  502  0.00000000000E+00 -0.00000000000E+00 -0.16106545581E+03  0.16106545581E+03  0.00000000000E+00 0. -1.
         25    2    1    2    0    0  0.43678205671E+01  0.23446770266E+02  0.21651556430E+03  0.25114421409E+03  0.12500239117E+03 0.  0.
    9000005    1    3    3    0    0  0.86526301968E+01 -0.46225344603E+02  0.13940366865E+03  0.14712590977E+03  0.10000000000E+01 0.  0.
    9000005    1    3    3    0    0 -0.42848096298E+01  0.69672114869E+02  0.77111895646E+02  0.10401830432E+03  0.10000000000E+01 0.  0.
          4    1    1    2  501    0 -0.43678205671E+01 -0.23446770266E+02 -0.14276079504E+03  0.14474490109E+03  0.12700000000E+01 0. -1.
<mgrwt>
<rscale>  1 0.12725732E+03</rscale>
<asrwt>0</asrwt>
<pdfrwt beam="2">  1       21 0.24779301E-01 0.12725732E+03</pdfrwt>
<pdfrwt beam="1">  1        4 0.36126838E-01 0.12725732E+03</pdfrwt>
<totfact> 0.47030129E+03</totfact>
</mgrwt>
</event>
<event>
 6    3  0.3813045E-003  0.1430651E+03  0.7818608E-02  0.1209263E+00
         -4   -1    0    0    0  501 -0.00000000000E+00  0.00000000000E+00  0.90468817945E+02  0.90477731627E+02  0.12700000000E+01 0. -1.
         21   -1    0    0  501  502  0.00000000000E+00 -0.00000000000E+00 -0.28458145089E+03  0.28458145089E+03  0.00000000000E+00 0.  1.
         25    2    1    2    0    0 -0.57533319917E+02 -0.39149413287E+02  0.24933025276E+02  0.14522147293E+03  0.12499944396E+03 0.  0.
    9000005    1    3    3    0    0 -0.97106209327E+02 -0.26425258335E+02  0.10416755902E+02  0.10118013131E+03  0.10000000000E+01 0.  0.
    9000005    1    3    3    0    0  0.39572889411E+02 -0.12724154952E+02  0.14516269374E+02  0.44041341624E+02  0.10000000000E+01 0.  0.
         -4    1    1    2    0  502  0.57533319917E+02  0.39149413287E+02 -0.21904565822E+03  0.22983770959E+03  0.12700000000E+01 0.  1.
<mgrwt>
<rscale>  1 0.14306509E+03</rscale>
<asrwt>0</asrwt>
<pdfrwt beam="2">  1       21 0.43781762E-01 0.14306509E+03</pdfrwt>
<pdfrwt beam="1">  1       -4 0.13919183E-01 0.14306509E+03</pdfrwt>
<totfact> 0.89003194E+03</totfact>
</mgrwt>
</event>
<event>
 6    3  0.3813045E-003  0.1654795E+03  0.7818608E-02  0.1182646E+00
         21   -1    0    0  501  502  0.00000000000E+00  0.00000000000E+00  0.32521105242E+02  0.32521105242E+02  0.00000000000E+00 0. -1.
         -4   -1    0    0    0  501 -0.00000000000E+00 -0.00000000000E+00 -0.61376897589E+03  0.61377028982E+03  0.12700000000E+01 0.  1.
         25    2    1    2    0    0 -0.83977690520E+02  0.68600922554E+02 -0.26981218285E+03  0.31651550205E+03  0.12500043976E+03 0.  0.
    9000005    1    3    3    0    0  0.15806546094E+02  0.63603545247E+02 -0.10925526996E+03  0.12740868056E+03  0.10000000000E+01 0.  0.
    9000005    1    3    3    0    0 -0.99784236614E+02  0.49973773075E+01 -0.16055691289E+03  0.18910682149E+03  0.10000000000E+01 0.  0.
         -4    1    1    2    0  502  0.83977690520E+02 -0.68600922554E+02 -0.31143568779E+03  0.32977589301E+03  0.12700000000E+01 0. -1.
<mgrwt>
<rscale>  1 0.16547945E+03</rscale>
<asrwt>0</asrwt>
<pdfrwt beam="1">  1       21 0.50032473E-02 0.16547945E+03</pdfrwt>
<pdfrwt beam="2">  1       -4 0.94427999E-01 0.16547945E+03</pdfrwt>
<totfact> 0.10908795E+04</totfact>
</mgrwt>
</event>
<event>
 6    3  0.3813045E-003  0.1289133E+03  0.7818608E-02  0.1229077E+00
         -4   -1    0    0    0  501 -0.00000000000E+00  0.00000000000E+00  0.54017538906E+03  0.54017688200E+03  0.12700000000E+01 0. -1.
         21   -1    0    0  501  502  0.00000000000E+00 -0.00000000000E+00 -0.26482710802E+02  0.26482710802E+02  0.00000000000E+00 0.  1.
         25    2    1    2    0    0 -0.15309411259E+02 -0.27556222960E+02  0.51890898005E+03  0.53468231648E+03  0.12499970592E+03 0.  0.
    9000005    1    3    3    0    0  0.53707071655E+02  0.21398901214E+01  0.21259685940E+03  0.21928851612E+03  0.10000000000E+01 0.  0.
    9000005    1    3    3    0    0 -0.69016482914E+02 -0.29696113081E+02  0.30631212065E+03  0.31539380035E+03  0.10000000000E+01 0.  0.
         -4    1    1    2    0  502  0.15309411259E+02  0.27556222960E+02 -0.52163017893E+01  0.31977276327E+02  0.12700000000E+01 0.  1.
<mgrwt>
<rscale>  1 0.12891334E+03</rscale>
<asrwt>0</asrwt>
<pdfrwt beam="2">  1       21 0.40742636E-02 0.12891334E+03</pdfrwt>
<pdfrwt beam="1">  1       -4 0.83106354E-01 0.12891334E+03</pdfrwt>
<totfact> 0.20049664E+04</totfact>
</mgrwt>
</event>
<event>
 6    3  0.3813045E-003  0.1320996E+03  0.7818608E-02  0.1224373E+00
         21   -1    0    0  501  502  0.00000000000E+00  0.00000000000E+00  0.28830963698E+02  0.28830963698E+02  0.00000000000E+00 0.  1.
          4   -1    0    0  502    0 -0.00000000000E+00 -0.00000000000E+00 -0.27461971131E+03  0.27462264790E+03  0.12700000000E+01 0.  1.
         25    2    1    2    0    0 -0.37636396484E+02  0.20219862134E+02 -0.20799313620E+03  0.24639695285E+03  0.12499989002E+03 0.  0.
    9000005    1    3    3    0    0  0.23349395773E+02  0.54241242362E+02 -0.12256664239E+03  0.13605472605E+03  0.10000000000E+01 0.  0.
    9000005    1    3    3    0    0 -0.60985792256E+02 -0.34021380228E+02 -0.85426493811E+02  0.11034222680E+03  0.10000000000E+01 0.  0.
          4    1    1    2  501    0  0.37636396484E+02 -0.20219862134E+02 -0.37795611411E+02  0.57056658743E+02  0.12700000000E+01 0. -1.
<mgrwt>
<rscale>  1 0.13209964E+03</rscale>
<asrwt>0</asrwt>
<pdfrwt beam="1">  1       21 0.44355329E-02 0.13209964E+03</pdfrwt>
<pdfrwt beam="2">  1        4 0.42251564E-01 0.13209964E+03</pdfrwt>
<totfact> 0.72116626E+04</totfact>
</mgrwt>
</event>
<event>
 6    3  0.3813045E-003  0.1267620E+03  0.7818608E-02  0.1232341E+00
         21   -1    0    0  501  502  0.00000000000E+00  0.00000000000E+00  0.40798648027E+03  0.40798648027E+03  0.00000000000E+00 0.  1.
         -4   -1    0    0    0  501 -0.00000000000E+00 -0.00000000000E+00 -0.21827440182E+02  0.21864355579E+02  0.12700000000E+01 0.  1.
         25    2    1    2    0    0 -0.10933391621E+02 -0.17996960142E+02  0.16690903748E+03  0.20958825126E+03  0.12500071458E+03 0.  0.
    9000005    1    3    3    0    0 -0.56593162659E+02  0.23154581210E+02  0.10978628149E+03  0.12566999759E+03  0.10000000000E+01 0.  0.
    9000005    1    3    3    0    0  0.45659771038E+02 -0.41151541352E+02  0.57122755987E+02  0.83918253667E+02  0.10000000000E+01 0.  0.
         -4    1    1    2    0  502  0.10933391621E+02  0.17996960142E+02  0.21925000261E+03  0.22026258459E+03  0.12700000000E+01 0. -1.
<mgrwt>
<rscale>  1 0.12676201E+03</rscale>
<asrwt>0</asrwt>
<pdfrwt beam="1">  1       21 0.62767145E-01 0.12676201E+03</pdfrwt>
<pdfrwt beam="2">  1       -4 0.33610597E-02 0.12676201E+03</pdfrwt>
<totfact> 0.43014710E+04</totfact>
</mgrwt>
</event>
<event>
 6    3  0.3813045E-003  0.1271562E+03  0.7818608E-02  0.1231738E+00
          4   -1    0    0  502    0 -0.00000000000E+00  0.00000000000E+00  0.71985759069E+02  0.71996961108E+02  0.12700000000E+01 0.  1.
         21   -1    0    0  501  502  0.00000000000E+00 -0.00000000000E+00 -0.27952564249E+03  0.27952564249E+03  0.00000000000E+00 0.  1.
         25    2    1    2    0    0 -0.20522337904E+02 -0.11062680620E+02  0.14750931384E+02  0.12800891609E+03  0.12500057347E+03 0.  0.
    9000005    1    3    3    0    0  0.34687378145E+02  0.35570459467E+02 -0.11687175902E+02  0.51049602053E+02  0.10000000000E+01 0.  0.
    9000005    1    3    3    0    0 -0.55209716049E+02 -0.46633140087E+02  0.26438107286E+02  0.76959314040E+02  0.10000000000E+01 0.  0.
          4    1    1    2  501    0  0.20522337904E+02  0.11062680620E+02 -0.22229081481E+03  0.22351368751E+03  0.12700000000E+01 0. -1.
<mgrwt>
<rscale>  1 0.12715617E+03</rscale>
<asrwt>0</asrwt>
<pdfrwt beam="2">  1       21 0.43003945E-01 0.12715617E+03</pdfrwt>
<pdfrwt beam="1">  1        4 0.11075816E-01 0.12715617E+03</pdfrwt>
<totfact> 0.13536468E+04</totfact>
</mgrwt>
</event>
<event>
 6    3  0.3813045E-003  0.1365263E+03  0.7818608E-02  0.1218081E+00
         21   -1    0    0  501  502  0.00000000000E+00  0.00000000000E+00  0.22126880238E+03  0.22126880238E+03  0.00000000000E+00 0.  1.
         -4   -1    0    0    0  501 -0.00000000000E+00 -0.00000000000E+00 -0.52670117021E+02  0.52685426135E+02  0.12700000000E+01 0.  1.
         25    2    1    2    0    0  0.53797293155E+02  0.10984742179E+02  0.17119803043E+03  0.21897075093E+03  0.12499844331E+03 0.  0.
    9000005    1    3    3    0    0  0.39038051710E+02 -0.55060848469E+02  0.70179306190E+02  0.97374542529E+02  0.10000000000E+01 0.  0.
    9000005    1    3    3    0    0  0.14759241445E+02  0.66045590648E+02  0.10101872424E+03  0.12159620841E+03  0.10000000000E+01 0.  0.
         -4    1    1    2    0  502 -0.53797293155E+02 -0.10984742179E+02 -0.25993450723E+01  0.54983477576E+02  0.12700000000E+01 0. -1.
<mgrwt>
<rscale>  1 0.13652628E+03</rscale>
<asrwt>0</asrwt>
<pdfrwt beam="1">  1       21 0.34041354E-01 0.13652628E+03</pdfrwt>
<pdfrwt beam="2">  1       -4 0.81045530E-02 0.13652628E+03</pdfrwt>
<totfact> 0.36622393E+04</totfact>
</mgrwt>
</event>
<event>
 6    3  0.3813045E-003  0.1617474E+03  0.7818608E-02  0.1186738E+00
         21   -1    0    0  501  502  0.00000000000E+00  0.00000000000E+00  0.21455339556E+03  0.21455339556E+03  0.00000000000E+00 0.  1.
          4   -1    0    0  502    0 -0.00000000000E+00 -0.00000000000E+00 -0.15250067091E+03  0.15250595899E+03  0.12700000000E+01 0. -1.
         25    2    1    2    0    0  0.57948931755E+02 -0.84731697352E+02 -0.88852096588E+02  0.18454519838E+03  0.12499878379E+03 0.  0.
    9000005    1    3    3    0    0 -0.38111765291E+02 -0.38590642503E+02 -0.20796993721E+02  0.58096981765E+02  0.10000000000E+01 0.  0.
    9000005    1    3    3    0    0  0.96060697045E+02 -0.46141054849E+02 -0.68055102867E+02  0.12644821662E+03  0.10000000000E+01 0.  0.
          4    1    1    2  501    0 -0.57948931755E+02  0.84731697352E+02  0.15090482124E+03  0.18251415617E+03  0.12700000000E+01 0.  1.
<mgrwt>
<rscale>  1 0.16174744E+03</rscale>
<asrwt>0</asrwt>
<pdfrwt beam="1">  1       21 0.33008215E-01 0.16174744E+03</pdfrwt>
<pdfrwt beam="2">  1        4 0.23462337E-01 0.16174744E+03</pdfrwt>
<totfact> 0.62067477E+03</totfact>
</mgrwt>
</event>
<event>
 6    3  0.3813045E-003  0.1279840E+03  0.7818608E-02  0.1230478E+00
         -4   -1    0    0    0  501 -0.00000000000E+00  0.00000000000E+00  0.31831448023E+04  0.31831450556E+04  0.12700000000E+01 0.  1.
         21   -1    0    0  501  502  0.00000000000E+00 -0.00000000000E+00 -0.88158235737E+01  0.88158235737E+01  0.00000000000E+00 0. -1.
         25    2    1    2    0    0 -0.24024034645E+02 -0.13370163725E+02  0.31566618578E+04  0.31592552898E+04  0.12499594375E+03 0.  0.
    9000005    1    3    3    0    0 -0.49435249156E+02 -0.90372184948E+01  0.51068792252E+03  0.51315559959E+03  0.10000000000E+01 0.  0.
    9000005    1    3    3    0    0  0.25411214512E+02 -0.43329452303E+01  0.26459739353E+04  0.26460996902E+04  0.10000000000E+01 0.  0.
         -4    1    1    2    0  502  0.24024034645E+02  0.13370163725E+02  0.17667120899E+02  0.32705589423E+02  0.12700000000E+01 0. -1.
<mgrwt>
<rscale>  1 0.12798399E+03</rscale>
<asrwt>0</asrwt>
<pdfrwt beam="2">  1       21 0.13562831E-02 0.12798399E+03</pdfrwt>
<pdfrwt beam="1">  1       -4 0.48972072E+00 0.12798399E+03</pdfrwt>
<totfact> 0.20260763E+02</totfact>
</mgrwt>
</event>
<event>
 6    3  0.3813045E-003  0.1275734E+03  0.7818608E-02  0.1231101E+00
         21   -1    0    0  501  502  0.00000000000E+00  0.00000000000E+00  0.35493269400E+03  0.35493269400E+03  0.00000000000E+00 0. -1.
          4   -1    0    0  502    0 -0.00000000000E+00 -0.00000000000E+00 -0.16590809721E+02  0.16639346958E+02  0.12700000000E+01 0. -1.
         25    2    1    2    0    0 -0.30667796301E+01  0.25307898693E+02  0.27007987298E+03  0.29869399241E+03  0.12500027376E+03 0.  0.
    9000005    1    3    3    0    0 -0.62543420867E+02  0.26828863334E+02  0.14257733161E+03  0.15798975565E+03  0.10000000000E+01 0.  0.
    9000005    1    3    3    0    0  0.59476641237E+02 -0.15209646409E+01  0.12750254137E+03  0.14070423676E+03  0.10000000000E+01 0.  0.
          4    1    1    2  501    0  0.30667796301E+01 -0.25307898693E+02  0.68262011300E+02  0.72878048549E+02  0.12700000000E+01 0.  1.
<mgrwt>
<rscale>  1 0.12757336E+03</rscale>
<asrwt>0</asrwt>
<pdfrwt beam="1">  1       21 0.54605024E-01 0.12757336E+03</pdfrwt>
<pdfrwt beam="2">  1        4 0.25563409E-02 0.12757336E+03</pdfrwt>
<totfact> 0.88632619E+04</totfact>
</mgrwt>
</event>
<event>
 6    3  0.3813045E-003  0.1272045E+03  0.7818608E-02  0.1231664E+00
         -4   -1    0    0    0  501 -0.00000000000E+00  0.00000000000E+00  0.14672614596E+03  0.14673164216E+03  0.12700000000E+01 0. -1.
         21   -1    0    0  501  502  0.00000000000E+00 -0.00000000000E+00 -0.42284225117E+02  0.42284225117E+02  0.00000000000E+00 0. -1.
         25    2    1    2    0    0 -0.78498619824E+01  0.22226463595E+02  0.10568175793E+03  0.16537721010E+03  0.12500140656E+03 0.  0.
    9000005    1    3    3    0    0  0.46552298222E+02 -0.16625849094E+02  0.79405748526E+02  0.93540409593E+02  0.10000000000E+01 0.  0.
    9000005    1    3    3    0    0 -0.54402160204E+02  0.38852312689E+02  0.26276009406E+02  0.71836800503E+02  0.10000000000E+01 0.  0.
         -4    1    1    2    0  502  0.78498619824E+01 -0.22226463595E+02 -0.12398370850E+01  0.23638657176E+02  0.12700000000E+01 0.  1.
<mgrwt>
<rscale>  1 0.12720451E+03</rscale>
<asrwt>0</asrwt>
<pdfrwt beam="2">  1       21 0.65052655E-02 0.12720451E+03</pdfrwt>
<pdfrwt beam="1">  1       -4 0.22575143E-01 0.12720451E+03</pdfrwt>
<totfact> 0.12351598E+05</totfact>
</mgrwt>
</event>
<event>
 6    3  0.3813045E-003  0.1293703E+03  0.7818608E-02  0.1228393E+00
         21   -1    0    0  501  502  0.00000000000E+00  0.00000000000E+00  0.57016882717E+02  0.57016882717E+02  0.00000000000E+00 0.  1.
         -4   -1    0    0    0  501 -0.00000000000E+00 -0.00000000000E+00 -0.21144312795E+03  0.21144694194E+03  0.12700000000E+01 0.  1.
         25    2    1    2    0    0  0.70715670639E+01 -0.32608919940E+02 -0.18327575899E+03  0.22433610022E+03  0.12499333306E+03 0.  0.
    9000005    1    3    3    0    0 -0.51771258856E+02 -0.96437958687E+01 -0.13474475602E+03  0.14467347828E+03  0.10000000000E+01 0.  0.
    9000005    1    3    3    0    0  0.58842825920E+02 -0.22965124071E+02 -0.48531002966E+02  0.79662621942E+02  0.10000000000E+01 0.  0.
         -4    1    1    2    0  502 -0.70715670639E+01  0.32608919940E+02  0.28849513753E+02  0.44127724439E+02  0.12700000000E+01 0. -1.
<mgrwt>
<rscale>  1 0.12937033E+03</rscale>
<asrwt>0</asrwt>
<pdfrwt beam="1">  1       21 0.87718279E-02 0.12937033E+03</pdfrwt>
<pdfrwt beam="2">  1       -4 0.32531094E-01 0.12937033E+03</pdfrwt>
<totfact> 0.37496873E+04</totfact>
</mgrwt>
</event>
<event>
 6    3  0.3813045E-003  0.1563283E+03  0.7818608E-02  0.1192906E+00
         21   -1    0    0  501  502  0.00000000000E+00  0.00000000000E+00  0.34603250700E+02  0.34603250700E+02  0.00000000000E+00 0.  1.
         -4   -1    0    0    0  501 -0.00000000000E+00 -0.00000000000E+00 -0.63356490699E+03  0.63356617986E+03  0.12700000000E+01 0. -1.
         25    2    1    2    0    0 -0.30618994877E+02  0.88747068518E+02 -0.52750305343E+03  0.55017998256E+03  0.12499990726E+03 0.  0.
    9000005    1    3    3    0    0 -0.76725554291E+02  0.33807551667E+02 -0.31091467413E+03  0.32202281878E+03  0.10000000000E+01 0.  0.
    9000005    1    3    3    0    0  0.46106559414E+02  0.54939516851E+02 -0.21658837930E+03  0.22815716377E+03  0.10000000000E+01 0.  0.
         -4    1    1    2    0  502  0.30618994877E+02 -0.88747068518E+02 -0.71458602862E+02  0.11798944801E+03  0.12700000000E+01 0.  1.
<mgrwt>
<rscale>  1 0.15632831E+03</rscale>
<asrwt>0</asrwt>
<pdfrwt beam="1">  1       21 0.53235774E-02 0.15632831E+03</pdfrwt>
<pdfrwt beam="2">  1       -4 0.97473408E-01 0.15632831E+03</pdfrwt>
<totfact> 0.90905422E+03</totfact>
</mgrwt>
</event>
<event>
 6    3  0.3813045E-003  0.1378346E+03  0.7818608E-02  0.1216273E+00
         -4   -1    0    0    0  501 -0.00000000000E+00  0.00000000000E+00  0.68115828386E+02  0.68127666749E+02  0.12700000000E+01 0. -1.
         21   -1    0    0  501  502  0.00000000000E+00 -0.00000000000E+00 -0.35062889520E+03  0.35062889520E+03  0.00000000000E+00 0.  1.
         25    2    1    2    0    0 -0.37593753355E+01 -0.57943660026E+02 -0.78912433072E+01  0.13806035698E+03  0.12500715902E+03 0.  0.
    9000005    1    3    3    0    0 -0.43769396613E+02 -0.71058430834E+02  0.22120770541E+02  0.86344595440E+02  0.10000000000E+01 0.  0.
    9000005    1    3    3    0    0  0.40010021277E+02  0.13114770808E+02 -0.30012013848E+02  0.51715761535E+02  0.10000000000E+01 0.  0.
         -4    1    1    2    0  502  0.37593753355E+01  0.57943660026E+02 -0.27462182351E+03  0.28069620498E+03  0.12700000000E+01 0.  1.
<mgrwt>
<rscale>  1 0.13783465E+03</rscale>
<asrwt>0</asrwt>
<pdfrwt beam="2">  1       21 0.53942906E-01 0.13783465E+03</pdfrwt>
<pdfrwt beam="1">  1       -4 0.10480446E-01 0.13783465E+03</pdfrwt>
<totfact> 0.93912272E+03</totfact>
</mgrwt>
</event>
<event>
 6    3  0.3813045E-003  0.1276479E+03  0.7818608E-02  0.1230988E+00
         21   -1    0    0  501  502  0.00000000000E+00  0.00000000000E+00  0.84039313258E+03  0.84039313258E+03  0.00000000000E+00 0.  1.
         -4   -1    0    0    0  501 -0.00000000000E+00 -0.00000000000E+00 -0.69691979847E+01  0.70839692652E+01  0.12700000000E+01 0.  1.
         25    2    1    2    0    0 -0.24288897062E+02  0.87222741816E+01  0.70887450967E+03  0.72027568387E+03  0.12501184631E+03 0.  0.
    9000005    1    3    3    0    0 -0.49537446333E+02 -0.36580824616E+02  0.21388875014E+03  0.22257922804E+03  0.10000000000E+01 0.  0.
    9000005    1    3    3    0    0  0.25248549270E+02  0.45303098797E+02  0.49498575954E+03  0.49769645583E+03  0.10000000000E+01 0.  0.
         -4    1    1    2    0  502  0.24288897062E+02 -0.87222741816E+01  0.12454942492E+03  0.12720141798E+03  0.12700000000E+01 0. -1.
<mgrwt>
<rscale>  1 0.12764792E+03</rscale>
<asrwt>0</asrwt>
<pdfrwt beam="1">  1       21 0.12929117E+00 0.12764792E+03</pdfrwt>
<pdfrwt beam="2">  1       -4 0.10810873E-02 0.12764792E+03</pdfrwt>
<totfact> 0.46859350E+04</totfact>
</mgrwt>
</event>
<event>
 6    3  0.3813045E-003  0.1293677E+03  0.7818608E-02  0.1228397E+00
         21   -1    0    0  501  502  0.00000000000E+00  0.00000000000E+00  0.97505969778E+01  0.97505969778E+01  0.00000000000E+00 0.  1.
         -4   -1    0    0    0  501 -0.00000000000E+00 -0.00000000000E+00 -0.67912005632E+03  0.67912124381E+03  0.12700000000E+01 0.  1.
         25    2    1    2    0    0 -0.33326235317E+02  0.43711403092E+00 -0.53770599758E+03  0.55304949693E+03  0.12500070875E+03 0.  0.
    9000005    1    3    3    0    0  0.21163496188E+02 -0.32739050213E+00 -0.11656997565E+02  0.24184423658E+02  0.10000000000E+01 0.  0.
    9000005    1    3    3    0    0 -0.54489731505E+02  0.76450453305E+00 -0.52604900002E+03  0.52886507327E+03  0.10000000000E+01 0.  0.
         -4    1    1    2    0  502  0.33326235317E+02 -0.43711403092E+00 -0.13166346176E+03  0.13582234386E+03  0.12700000000E+01 0. -1.
<mgrwt>
<rscale>  1 0.12936772E+03</rscale>
<asrwt>0</asrwt>
<pdfrwt beam="1">  1       21 0.15000910E-02 0.12936772E+03</pdfrwt>
<pdfrwt beam="2">  1       -4 0.10448652E+00 0.12936772E+03</pdfrwt>
<totfact> 0.60600092E+04</totfact>
</mgrwt>
</event>
<event>
 6    3  0.3813045E-003  0.1308137E+03  0.7818608E-02  0.1226253E+00
         -4   -1    0    0    0  501 -0.00000000000E+00  0.00000000000E+00  0.56936135866E+02  0.56950298221E+02  0.12700000000E+01 0. -1.
         21   -1    0    0  501  502  0.00000000000E+00 -0.00000000000E+00 -0.17836286885E+03  0.17836286885E+03  0.00000000000E+00 0. -1.
         25    2    1    2    0    0 -0.29467055832E+02  0.24875778725E+02 -0.27364847628E+02  0.13364526199E+03  0.12500043768E+03 0.  0.
    9000005    1    3    3    0    0  0.27247215181E+02 -0.34442645556E+02 -0.27014526939E+02  0.51570255320E+02  0.10000000000E+01 0.  0.
    9000005    1    3    3    0    0 -0.56714271013E+02  0.59318424280E+02 -0.35032068935E+00  0.82075006672E+02  0.10000000000E+01 0.  0.
         -4    1    1    2    0  502  0.29467055832E+02 -0.24875778725E+02 -0.94061885358E+02  0.10166790508E+03  0.12700000000E+01 0.  1.
<mgrwt>
<rscale>  1 0.13081369E+03</rscale>
<asrwt>0</asrwt>
<pdfrwt beam="2">  1       21 0.27440442E-01 0.13081369E+03</pdfrwt>
<pdfrwt beam="1">  1       -4 0.87608427E-02 0.13081369E+03</pdfrwt>
<totfact> 0.48604103E+04</totfact>
</mgrwt>
</event>
<event>
 6    3  0.3813045E-003  0.1301478E+03  0.7818608E-02  0.1227237E+00
         21   -1    0    0  501  502  0.00000000000E+00  0.00000000000E+00  0.69422010420E+02  0.69422010420E+02  0.00000000000E+00 0. -1.
          4   -1    0    0  502    0 -0.00000000000E+00 -0.00000000000E+00 -0.10012604193E+03  0.10013409596E+03  0.12700000000E+01 0. -1.
         25    2    1    2    0    0  0.12758752916E+02  0.33925468227E+02 -0.19521623434E+02  0.13160373727E+03  0.12499890684E+03 0.  0.
    9000005    1    3    3    0    0  0.31562410770E+02  0.76945696517E+02 -0.13387454841E+02  0.84243990487E+02  0.10000000000E+01 0.  0.
    9000005    1    3    3    0    0 -0.18803657854E+02 -0.43020228290E+02 -0.61341685927E+01  0.47359746781E+02  0.10000000000E+01 0.  0.
          4    1    1    2  501    0 -0.12758752916E+02 -0.33925468227E+02 -0.11182408078E+02  0.37952369106E+02  0.12700000000E+01 0.  1.
<mgrwt>
<rscale>  1 0.13014780E+03</rscale>
<asrwt>0</asrwt>
<pdfrwt beam="1">  1       21 0.10680309E-01 0.13014780E+03</pdfrwt>
<pdfrwt beam="2">  1        4 0.15405520E-01 0.13014780E+03</pdfrwt>
<totfact> 0.10397075E+05</totfact>
</mgrwt>
</event>
<event>
 6    3  0.3813045E-003  0.1275873E+03  0.7818608E-02  0.1231080E+00
         21   -1    0    0  501  502  0.00000000000E+00  0.00000000000E+00  0.75937444582E+02  0.75937444582E+02  0.00000000000E+00 0. -1.
         -4   -1    0    0    0  501 -0.00000000000E+00 -0.00000000000E+00 -0.10959728895E+03  0.10960464700E+03  0.12700000000E+01 0. -1.
         25    2    1    2    0    0 -0.19182973253E+02 -0.16907656328E+02 -0.66519031406E+02  0.14388642717E+03  0.12499866830E+03 0.  0.
    9000005    1    3    3    0    0  0.10823883255E+02  0.21968845677E+02  0.28093326219E+02  0.37282993538E+02  0.10000000000E+01 0.  0.
    9000005    1    3    3    0    0 -0.30006856507E+02 -0.38876502005E+02 -0.94612357625E+02  0.10660343363E+03  0.10000000000E+01 0.  0.
         -4    1    1    2    0  502  0.19182973253E+02  0.16907656328E+02  0.32859187040E+02  0.41655664420E+02  0.12700000000E+01 0.  1.
<mgrwt>
<rscale>  1 0.12758731E+03</rscale>
<asrwt>0</asrwt>
<pdfrwt beam="1">  1       21 0.11682684E-01 0.12758731E+03</pdfrwt>
<pdfrwt beam="2">  1       -4 0.16862504E-01 0.12758731E+03</pdfrwt>
<totfact> 0.75528125E+04</totfact>
</mgrwt>
</event>
<event>
 6    3  0.3813045E-003  0.1277713E+03  0.7818608E-02  0.1230801E+00
         21   -1    0    0  501  502  0.00000000000E+00  0.00000000000E+00  0.13377285495E+02  0.13377285495E+02  0.00000000000E+00 0.  1.
         -4   -1    0    0    0  501 -0.00000000000E+00 -0.00000000000E+00 -0.44610836519E+03  0.44611017293E+03  0.12700000000E+01 0.  1.
         25    2    1    2    0    0 -0.57011876413E+01  0.25841255800E+02 -0.34824121675E+03  0.37094129035E+03  0.12500088718E+03 0.  0.
    9000005    1    3    3    0    0 -0.31871293097E+01 -0.30771351947E+02 -0.28229188996E+03  0.28398370557E+03  0.10000000000E+01 0.  0.
    9000005    1    3    3    0    0 -0.25140583316E+01  0.56612607747E+02 -0.65949326797E+02  0.86957584776E+02  0.10000000000E+01 0.  0.
         -4    1    1    2    0  502  0.57011876413E+01 -0.25841255800E+02 -0.84489862940E+02  0.88546168079E+02  0.12700000000E+01 0. -1.
<mgrwt>
<rscale>  1 0.12777126E+03</rscale>
<asrwt>0</asrwt>
<pdfrwt beam="1">  1       21 0.20580437E-02 0.12777126E+03</pdfrwt>
<pdfrwt beam="2">  1       -4 0.68636840E-01 0.12777126E+03</pdfrwt>
<totfact> 0.93087760E+04</totfact>
</mgrwt>
</event>
<event>
 6    3  0.3813045E-003  0.1281525E+03  0.7818608E-02  0.1230223E+00
         -4   -1    0    0    0  501 -0.00000000000E+00  0.00000000000E+00  0.31027986575E+02  0.31053966750E+02  0.12700000000E+01 0. -1.
         21   -1    0    0  501  502  0.00000000000E+00 -0.00000000000E+00 -0.21065994768E+03  0.21065994768E+03  0.00000000000E+00 0. -1.
         25    2    1    2    0    0 -0.27406645187E+02  0.68308111093E+01 -0.11930782924E+03  0.17509261178E+03  0.12500112161E+03 0.  0.
    9000005    1    3    3    0    0  0.29740036689E+02  0.28632934488E+02 -0.10419642039E+03  0.11208125954E+03  0.10000000000E+01 0.  0.
    9000005    1    3    3    0    0 -0.57146681877E+02 -0.21802123378E+02 -0.15111408849E+02  0.63011352237E+02  0.10000000000E+01 0.  0.
         -4    1    1    2    0  502  0.27406645187E+02 -0.68308111093E+01 -0.60324131874E+02  0.66621302653E+02  0.12700000000E+01 0.  1.
<mgrwt>
<rscale>  1 0.12815251E+03</rscale>
<asrwt>0</asrwt>
<pdfrwt beam="2">  1       21 0.32409223E-01 0.12815251E+03</pdfrwt>
<pdfrwt beam="1">  1       -4 0.47758293E-02 0.12815251E+03</pdfrwt>
<totfact> 0.94689799E+04</totfact>
</mgrwt>
</event>
<event>
 6    3  0.3813045E-003  0.1278427E+03  0.7818608E-02  0.1230692E+00
         21   -1    0    0  501  502  0.00000000000E+00  0.00000000000E+00  0.89373683599E+01  0.89373683599E+01  0.00000000000E+00 0. -1.
          4   -1    0    0  502    0 -0.00000000000E+00 -0.00000000000E+00 -0.70724468123E+03  0.70724582150E+03  0.12700000000E+01 0. -1.
         25    2    1    2    0    0  0.24522857638E+02 -0.10844296294E+02 -0.62897087357E+03  0.64183183464E+03  0.12499909937E+03 0.  0.
    9000005    1    3    3    0    0  0.80884510852E+01  0.24559305772E+02 -0.57302155087E+03  0.57360550930E+03  0.10000000000E+01 0.  0.
    9000005    1    3    3    0    0  0.16434406553E+02 -0.35403602065E+02 -0.55949322710E+02  0.68226325342E+02  0.10000000000E+01 0.  0.
          4    1    1    2  501    0 -0.24522857638E+02  0.10844296294E+02 -0.69336439294E+02  0.74351355218E+02  0.12700000000E+01 0.  1.
<mgrwt>
<rscale>  1 0.12784265E+03</rscale>
<asrwt>0</asrwt>
<pdfrwt beam="1">  1       21 0.13749790E-02 0.12784265E+03</pdfrwt>
<pdfrwt beam="2">  1        4 0.10881396E+00 0.12784265E+03</pdfrwt>
<totfact> 0.63210651E+04</totfact>
</mgrwt>
</event>
<event>
 6    3  0.3813045E-003  0.1278804E+03  0.7818608E-02  0.1230635E+00
         -4   -1    0    0    0  501 -0.00000000000E+00  0.00000000000E+00  0.30430951621E+02  0.30457441070E+02  0.12700000000E+01 0.  1.
         21   -1    0    0  501  502  0.00000000000E+00 -0.00000000000E+00 -0.37430159308E+03  0.37430159308E+03  0.00000000000E+00 0. -1.
         25    2    1    2    0    0  0.15289540531E+02  0.22241079520E+02 -0.10810939692E+03  0.16745456096E+03  0.12499981047E+03 0.  0.
    9000005    1    3    3    0    0 -0.52662684722E+02  0.19071366826E+02 -0.28884488351E+02  0.63026891578E+02  0.10000000000E+01 0.  0.
    9000005    1    3    3    0    0  0.67952225253E+02  0.31697126939E+01 -0.79224908567E+02  0.10442766938E+03  0.10000000000E+01 0.  0.
         -4    1    1    2    0  502 -0.15289540531E+02 -0.22241079520E+02 -0.23576124454E+03  0.23730447319E+03  0.12700000000E+01 0. -1.
<mgrwt>
<rscale>  1 0.12788037E+03</rscale>
<asrwt>0</asrwt>
<pdfrwt beam="2">  1       21 0.57584859E-01 0.12788037E+03</pdfrwt>
<pdfrwt beam="1">  1       -4 0.46838884E-02 0.12788037E+03</pdfrwt>
<totfact> 0.30544816E+04</totfact>
</mgrwt>
</event>
<event>
 6    3  0.3813045E-003  0.1278856E+03  0.7818608E-02  0.1230627E+00
          4   -1    0    0  502    0 -0.00000000000E+00  0.00000000000E+00  0.14144068991E+04  0.14144074692E+04  0.12700000000E+01 0. -1.
         21   -1    0    0  501  502  0.00000000000E+00 -0.00000000000E+00 -0.50490987737E+01  0.50490987737E+01  0.00000000000E+00 0. -1.
         25    2    1    2    0    0  0.22777902250E+01 -0.26901377775E+02  0.13178580665E+04  0.13240485671E+04  0.12500340848E+03 0.  0.
    9000005    1    3    3    0    0  0.45435664912E+02 -0.54989534811E+02  0.57524150910E+03  0.57964820571E+03  0.10000000000E+01 0.  0.
    9000005    1    3    3    0    0 -0.43157874687E+02  0.28088157036E+02  0.74261655736E+03  0.74440036135E+03  0.10000000000E+01 0.  0.
          4    1    1    2  501    0 -0.22777902250E+01  0.26901377775E+02  0.91499733831E+02  0.95408000952E+02  0.12700000000E+01 0.  1.
<mgrwt>
<rscale>  1 0.12788559E+03</rscale>
<asrwt>0</asrwt>
<pdfrwt beam="2">  1       21 0.77678556E-03 0.12788559E+03</pdfrwt>
<pdfrwt beam="1">  1        4 0.21761308E+00 0.12788559E+03</pdfrwt>
<totfact> 0.25702481E+04</totfact>
</mgrwt>
</event>
<event>
 6    3  0.3813045E-003  0.1278319E+03  0.7818608E-02  0.1230709E+00
          4   -1    0    0  502    0 -0.00000000000E+00  0.00000000000E+00  0.30250994422E+02  0.30277641314E+02  0.12700000000E+01 0.  1.
         21   -1    0    0  501  502  0.00000000000E+00 -0.00000000000E+00 -0.22994971607E+03  0.22994971607E+03  0.00000000000E+00 0.  1.
         25    2    1    2    0    0  0.26016603479E+02 -0.62770340406E+01 -0.11698198132E+03  0.17327946009E+03  0.12499889009E+03 0.  0.
    9000005    1    3    3    0    0  0.61564859258E+01  0.41174589097E+02 -0.11442348056E+03  0.12176609548E+03  0.10000000000E+01 0.  0.
    9000005    1    3    3    0    0  0.19860117553E+02 -0.47451623137E+02 -0.25585007653E+01  0.51513364613E+02  0.10000000000E+01 0.  0.
          4    1    1    2  501    0 -0.26016603479E+02  0.62770340406E+01 -0.82716740329E+02  0.86947897293E+02  0.12700000000E+01 0. -1.
<mgrwt>
<rscale>  1 0.12783187E+03</rscale>
<asrwt>0</asrwt>
<pdfrwt beam="2">  1       21 0.35376880E-01 0.12783187E+03</pdfrwt>
<pdfrwt beam="1">  1        4 0.46563186E-02 0.12783187E+03</pdfrwt>
<totfact> 0.83051472E+04</totfact>
</mgrwt>
</event>
<event>
 6    3  0.3813045E-003  0.1269554E+03  0.7818608E-02  0.1232045E+00
          4   -1    0    0  502    0 -0.00000000000E+00  0.00000000000E+00  0.15915922544E+02  0.15966511530E+02  0.12700000000E+01 0. -1.
         21   -1    0    0  501  502  0.00000000000E+00 -0.00000000000E+00 -0.34895483653E+03  0.34895483653E+03  0.00000000000E+00 0. -1.
         25    2    1    2    0    0 -0.22169426700E+02  0.57787175191E+00 -0.28241955120E+03  0.30964250758E+03  0.12500344869E+03 0.  0.
    9000005    1    3    3    0    0 -0.20523957929E+02  0.14921519840E+02 -0.29146941821E+03  0.29257359135E+03  0.10000000000E+01 0.  0.
    9000005    1    3    3    0    0 -0.16454687717E+01 -0.14343648088E+02  0.90498670183E+01  0.17068916222E+02  0.10000000000E+01 0.  0.
          4    1    1    2  501    0  0.22169426700E+02 -0.57787175191E+00 -0.50619362786E+02  0.55278840480E+02  0.12700000000E+01 0.  1.
<mgrwt>
<rscale>  1 0.12695542E+03</rscale>
<asrwt>0</asrwt>
<pdfrwt beam="2">  1       21 0.53685357E-01 0.12695542E+03</pdfrwt>
<pdfrwt beam="1">  1        4 0.24526728E-02 0.12695542E+03</pdfrwt>
<totfact> 0.97866906E+04</totfact>
</mgrwt>
</event>
<event>
 6    3  0.3813045E-003  0.1271904E+03  0.7818608E-02  0.1231685E+00
         21   -1    0    0  501  502  0.00000000000E+00  0.00000000000E+00  0.60982083263E+01  0.60982083263E+01  0.00000000000E+00 0. -1.
          4   -1    0    0  502    0 -0.00000000000E+00 -0.00000000000E+00 -0.93110801990E+03  0.93110888602E+03  0.12700000000E+01 0. -1.
         25    2    1    2    0    0 -0.18982373389E+02  0.13831316324E+02 -0.78064405866E+03  0.79093775605E+03  0.12500300722E+03 0.  0.
    9000005    1    3    3    0    0 -0.29417932171E+02 -0.30146666293E+02 -0.96446190401E+02  0.10524782119E+03  0.10000000000E+01 0.  0.
    9000005    1    3    3    0    0  0.10435558782E+02  0.43977982618E+02 -0.68419786826E+03  0.68568993486E+03  0.10000000000E+01 0.  0.
          4    1    1    2  501    0  0.18982373389E+02 -0.13831316324E+02 -0.14436575291E+03  0.14626933829E+03  0.12700000000E+01 0.  1.
<mgrwt>
<rscale>  1 0.12719036E+03</rscale>
<asrwt>0</asrwt>
<pdfrwt beam="1">  1       21 0.93818556E-03 0.12719036E+03</pdfrwt>
<pdfrwt beam="2">  1        4 0.14325768E+00 0.12719036E+03</pdfrwt>
<totfact> 0.59391009E+04</totfact>
</mgrwt>
</event>
<event>
 6    3  0.3813045E-003  0.1281528E+03  0.7818608E-02  0.1230223E+00
         21   -1    0    0  501  502  0.00000000000E+00  0.00000000000E+00  0.11474850454E+02  0.11474850454E+02  0.00000000000E+00 0. -1.
          4   -1    0    0  502    0 -0.00000000000E+00 -0.00000000000E+00 -0.54146702948E+03  0.54146851886E+03  0.12700000000E+01 0. -1.
         25    2    1    2    0    0 -0.14939493577E+01  0.28214801043E+02 -0.45810750038E+03  0.47569489485E+03  0.12499937680E+03 0.  0.
    9000005    1    3    3    0    0  0.52888880348E+02  0.16590867281E+02 -0.11009313527E+03  0.12326389972E+03  0.10000000000E+01 0.  0.
    9000005    1    3    3    0    0 -0.54382829705E+02  0.11623933762E+02 -0.34801436511E+03  0.35243099513E+03  0.10000000000E+01 0.  0.
          4    1    1    2  501    0  0.14939493577E+01 -0.28214801043E+02 -0.71884678649E+02  0.77248474464E+02  0.12700000000E+01 0.  1.
<mgrwt>
<rscale>  1 0.12815284E+03</rscale>
<asrwt>0</asrwt>
<pdfrwt beam="1">  1       21 0.17653615E-02 0.12815284E+03</pdfrwt>
<pdfrwt beam="2">  1        4 0.83308148E-01 0.12815284E+03</pdfrwt>
<totfact> 0.78073137E+04</totfact>
</mgrwt>
</event>
<event>
 6    3  0.3813045E-003  0.1282594E+03  0.7818608E-02  0.1230062E+00
         21   -1    0    0  501  502  0.00000000000E+00  0.00000000000E+00  0.13855007553E+02  0.13855007553E+02  0.00000000000E+00 0. -1.
          4   -1    0    0  502    0 -0.00000000000E+00 -0.00000000000E+00 -0.70210111704E+03  0.70210226567E+03  0.12700000000E+01 0. -1.
         25    2    1    2    0    0 -0.28734310961E+02  0.91162506102E-01 -0.66938538439E+03  0.68156237842E+03  0.12499925561E+03 0.  0.
    9000005    1    3    3    0    0 -0.54003234583E+02 -0.39015876488E+02 -0.53913112951E+03  0.54323288079E+03  0.10000000000E+01 0.  0.
    9000005    1    3    3    0    0  0.25268923622E+02  0.39107038994E+02 -0.13025425488E+03  0.13832949763E+03  0.10000000000E+01 0.  0.
          4    1    1    2  501    0  0.28734310961E+02 -0.91162506102E-01 -0.18860725096E+02  0.34394894798E+02  0.12700000000E+01 0.  1.
<mgrwt>
<rscale>  1 0.12825944E+03</rscale>
<asrwt>0</asrwt>
<pdfrwt beam="1">  1       21 0.21315395E-02 0.12825944E+03</pdfrwt>
<pdfrwt beam="2">  1        4 0.10802013E+00 0.12825944E+03</pdfrwt>
<totfact> 0.31841633E+04</totfact>
</mgrwt>
</event>
<event>
 6    3  0.3813045E-003  0.1277480E+03  0.7818608E-02  0.1230836E+00
         21   -1    0    0  501  502  0.00000000000E+00  0.00000000000E+00  0.12205999889E+03  0.12205999889E+03  0.00000000000E+00 0. -1.
          4   -1    0    0  502    0 -0.00000000000E+00 -0.00000000000E+00 -0.50165371485E+02  0.50181444740E+02  0.12700000000E+01 0. -1.
         25    2    1    2    0    0  0.39498547920E+01 -0.26067944798E+02  0.70260886117E+02  0.14579487279E+03  0.12499765483E+03 0.  0.
    9000005    1    3    3    0    0 -0.39485515355E+02  0.27995543893E+02  0.57680666904E+02  0.75305482770E+02  0.10000000000E+01 0.  0.
    9000005    1    3    3    0    0  0.43435370147E+02 -0.54063488691E+02  0.12580219213E+02  0.70489390015E+02  0.10000000000E+01 0.  0.
          4    1    1    2  501    0 -0.39498547920E+01  0.26067944798E+02  0.16337412876E+01  0.26446570845E+02  0.12700000000E+01 0.  1.
<mgrwt>
<rscale>  1 0.12774801E+03</rscale>
<asrwt>0</asrwt>
<pdfrwt beam="1">  1       21 0.18778461E-01 0.12774801E+03</pdfrwt>
<pdfrwt beam="2">  1        4 0.77194941E-02 0.12774801E+03</pdfrwt>
<totfact> 0.12158575E+05</totfact>
</mgrwt>
</event>
<event>
 6    3  0.3813045E-003  0.1280218E+03  0.7818608E-02  0.1230421E+00
          4   -1    0    0  502    0 -0.00000000000E+00  0.00000000000E+00  0.18795552548E+03  0.18795981607E+03  0.12700000000E+01 0. -1.
         21   -1    0    0  501  502  0.00000000000E+00 -0.00000000000E+00 -0.32276886185E+02  0.32276886185E+02  0.00000000000E+00 0. -1.
         25    2    1    2    0    0  0.92192261987E+01  0.26066386193E+02  0.13070722257E+03  0.18295889151E+03  0.12500050932E+03 0.  0.
    9000005    1    3    3    0    0  0.40618905145E+02  0.51127453266E+02  0.12674055468E+03  0.14257657639E+03  0.10000000000E+01 0.  0.
    9000005    1    3    3    0    0 -0.31399678946E+02 -0.25061067073E+02  0.39666678903E+01  0.40382315126E+02  0.10000000000E+01 0.  0.
          4    1    1    2  501    0 -0.92192261987E+01 -0.26066386193E+02  0.24971416718E+02  0.37277810743E+02  0.12700000000E+01 0.  1.
<mgrwt>
<rscale>  1 0.12802179E+03</rscale>
<asrwt>0</asrwt>
<pdfrwt beam="2">  1       21 0.49656749E-02 0.12802179E+03</pdfrwt>
<pdfrwt beam="1">  1        4 0.28918486E-01 0.12802179E+03</pdfrwt>
<totfact> 0.12346465E+05</totfact>
</mgrwt>
</event>
<event>
 6    3  0.3813045E-003  0.1271487E+03  0.7818608E-02  0.1231749E+00
         -4   -1    0    0    0  501 -0.00000000000E+00  0.00000000000E+00  0.16209215263E+03  0.16209712781E+03  0.12700000000E+01 0.  1.
         21   -1    0    0  501  502  0.00000000000E+00 -0.00000000000E+00 -0.48760097736E+02  0.48760097736E+02  0.00000000000E+00 0. -1.
         25    2    1    2    0    0 -0.18462979013E+02  0.14176270580E+02  0.13027420178E+03  0.18203887232E+03  0.12499974057E+03 0.  0.
    9000005    1    3    3    0    0 -0.31165668466E+01  0.98675570601E+01 -0.24410350622E+02  0.26531997451E+02  0.10000000000E+01 0.  0.
    9000005    1    3    3    0    0 -0.15346412167E+02  0.43087135195E+01  0.15468455241E+03  0.15550687487E+03  0.10000000000E+01 0.  0.
         -4    1    1    2    0  502  0.18462979013E+02 -0.14176270580E+02 -0.16942146888E+02  0.28818353228E+02  0.12700000000E+01 0. -1.
<mgrwt>
<rscale>  1 0.12714867E+03</rscale>
<asrwt>0</asrwt>
<pdfrwt beam="2">  1       21 0.75015536E-02 0.12714867E+03</pdfrwt>
<pdfrwt beam="1">  1       -4 0.24938909E-01 0.12714867E+03</pdfrwt>
<totfact> 0.80657408E+04</totfact>
</mgrwt>
</event>
<event>
 6    3  0.3813045E-003  0.1341509E+03  0.7818608E-02  0.1221423E+00
          4   -1    0    0  502    0 -0.00000000000E+00  0.00000000000E+00  0.52103774430E+02  0.52119249897E+02  0.12700000000E+01 0. -1.
         21   -1    0    0  501  502  0.00000000000E+00 -0.00000000000E+00 -0.21242449070E+03  0.21242449070E+03  0.00000000000E+00 0. -1.
         25    2    1    2    0    0 -0.48426740666E+02 -0.51286774909E+01 -0.48632361405E+02  0.14269402145E+03  0.12500009855E+03 0.  0.
    9000005    1    3    3    0    0 -0.14057245861E+02 -0.47855728379E+02 -0.68169555656E+02  0.84474050562E+02  0.10000000000E+01 0.  0.
    9000005    1    3    3    0    0 -0.34369494805E+02  0.42727050888E+02  0.19537194252E+02  0.58219970886E+02  0.10000000000E+01 0.  0.
          4    1    1    2  501    0  0.48426740666E+02  0.51286774909E+01 -0.11168835486E+03  0.12184971915E+03  0.12700000000E+01 0.  1.
<mgrwt>
<rscale>  1 0.13415095E+03</rscale>
<asrwt>0</asrwt>
<pdfrwt beam="2">  1       21 0.32680690E-01 0.13415095E+03</pdfrwt>
<pdfrwt beam="1">  1        4 0.80174479E-02 0.13415095E+03</pdfrwt>
<totfact> 0.40306652E+04</totfact>
</mgrwt>
</event>
<event>
 6    3  0.3813045E-003  0.1268382E+03  0.7818608E-02  0.1232224E+00
         -4   -1    0    0    0  501 -0.00000000000E+00  0.00000000000E+00  0.14802373575E+02  0.14856754808E+02  0.12700000000E+01 0.  1.
         21   -1    0    0  501  502  0.00000000000E+00 -0.00000000000E+00 -0.43535545473E+03  0.43535545473E+03  0.00000000000E+00 0.  1.
         25    2    1    2    0    0  0.19474394349E+02  0.91877662790E+01 -0.27222368702E+03  0.30032261967E+03  0.12499709209E+03 0.  0.
    9000005    1    3    3    0    0  0.18952899353E+02  0.21397598568E+02 -0.28273139266E+03  0.28417443589E+03  0.10000000000E+01 0.  0.
    9000005    1    3    3    0    0  0.52149499599E+00 -0.12209832289E+02  0.10507705644E+02  0.16148183782E+02  0.10000000000E+01 0.  0.
         -4    1    1    2    0  502 -0.19474394349E+02 -0.91877662790E+01 -0.14832939414E+03  0.14988958987E+03  0.12700000000E+01 0. -1.
<mgrwt>
<rscale>  1 0.12683824E+03</rscale>
<asrwt>0</asrwt>
<pdfrwt beam="2">  1       21 0.66977750E-01 0.12683824E+03</pdfrwt>
<pdfrwt beam="1">  1       -4 0.22816143E-02 0.12683824E+03</pdfrwt>
<totfact> 0.68433016E+04</totfact>
</mgrwt>
</event>
<event>
 6    3  0.3813045E-003  0.1284284E+03  0.7818608E-02  0.1229806E+00
         -4   -1    0    0    0  501 -0.00000000000E+00  0.00000000000E+00  0.18979688580E+03  0.18980113477E+03  0.12700000000E+01 0. -1.
         21   -1    0    0  501  502  0.00000000000E+00 -0.00000000000E+00 -0.33017921178E+02  0.33017921178E+02  0.00000000000E+00 0. -1.
         25    2    1    2    0    0 -0.18994270210E+02  0.22544001019E+02  0.12109377139E+03  0.17651505829E+03  0.12499940020E+03 0.  0.
    9000005    1    3    3    0    0  0.40707030961E+01 -0.30377562002E+02 -0.10820391687E+02  0.32518422058E+02  0.10000000000E+01 0.  0.
    9000005    1    3    3    0    0 -0.23064973306E+02  0.52921563021E+02  0.13191416308E+03  0.14399663623E+03  0.10000000000E+01 0.  0.
         -4    1    1    2    0  502  0.18994270210E+02 -0.22544001019E+02  0.35685193230E+02  0.46303997653E+02  0.12700000000E+01 0.  1.
<mgrwt>
<rscale>  1 0.12842844E+03</rscale>
<asrwt>0</asrwt>
<pdfrwt beam="2">  1       21 0.50796803E-02 0.12842844E+03</pdfrwt>
<pdfrwt beam="1">  1       -4 0.29201726E-01 0.12842844E+03</pdfrwt>
<totfact> 0.11674442E+05</totfact>
</mgrwt>
</event>
<event>
 6    3  0.3813045E-003  0.1266132E+03  0.7818608E-02  0.1232569E+00
         -4   -1    0    0    0  501 -0.00000000000E+00  0.00000000000E+00  0.67922649485E+03  0.67922768216E+03  0.12700000000E+01 0. -1.
         21   -1    0    0  501  502  0.00000000000E+00 -0.00000000000E+00 -0.52466781347E+02  0.52466781347E+02  0.00000000000E+00 0.  1.
         25    2    1    2    0    0 -0.87266697972E+01 -0.18124488451E+02  0.67112567840E+03  0.68296455905E+03  0.12500504337E+03 0.  0.
    9000005    1    3    3    0    0  0.22232622839E+02  0.20878350122E+02  0.56401674724E+03  0.56484164700E+03  0.10000000000E+01 0.  0.
    9000005    1    3    3    0    0 -0.30959292636E+02 -0.39002838573E+02  0.10710893116E+03  0.11812291205E+03  0.10000000000E+01 0.  0.
         -4    1    1    2    0  502  0.87266697972E+01  0.18124488451E+02 -0.44365964891E+02  0.48729904454E+02  0.12700000000E+01 0.  1.
<mgrwt>
<rscale>  1 0.12661324E+03</rscale>
<asrwt>0</asrwt>
<pdfrwt beam="2">  1       21 0.80718130E-02 0.12661324E+03</pdfrwt>
<pdfrwt beam="1">  1       -4 0.10449765E+00 0.12661324E+03</pdfrwt>
<totfact> 0.37387296E+03</totfact>
</mgrwt>
</event>
<event>
 6    3  0.3813045E-003  0.1280111E+03  0.7818608E-02  0.1230437E+00
         -4   -1    0    0    0  501 -0.00000000000E+00  0.00000000000E+00  0.22062651599E+03  0.22063017123E+03  0.12700000000E+01 0. -1.
         21   -1    0    0  501  502  0.00000000000E+00 -0.00000000000E+00 -0.32413637653E+02  0.32413637653E+02  0.00000000000E+00 0. -1.
         25    2    1    2    0    0 -0.27418681328E+02  0.29083457381E+01  0.18539904353E+03  0.22529902330E+03  0.12500640782E+03 0.  0.
    9000005    1    3    3    0    0 -0.38465801306E+02  0.56382852942E+02  0.13359744933E+03  0.15002640582E+03  0.10000000000E+01 0.  0.
    9000005    1    3    3    0    0  0.11047119978E+02 -0.53474507204E+02  0.51801594205E+02  0.75272617482E+02  0.10000000000E+01 0.  0.
         -4    1    1    2    0  502  0.27418681328E+02 -0.29083457381E+01  0.28138348022E+01  0.27744785582E+02  0.12700000000E+01 0.  1.
<mgrwt>
<rscale>  1 0.12801111E+03</rscale>
<asrwt>0</asrwt>
<pdfrwt beam="2">  1       21 0.49867136E-02 0.12801111E+03</pdfrwt>
<pdfrwt beam="1">  1       -4 0.33944735E-01 0.12801111E+03</pdfrwt>
<totfact> 0.90430250E+04</totfact>
</mgrwt>
</event>
<event>
 6    3  0.3813045E-003  0.1271372E+03  0.7818608E-02  0.1231766E+00
          4   -1    0    0  502    0 -0.00000000000E+00  0.00000000000E+00  0.43151036746E+03  0.43151223636E+03  0.12700000000E+01 0. -1.
         21   -1    0    0  501  502  0.00000000000E+00 -0.00000000000E+00 -0.13999161342E+02  0.13999161342E+02  0.00000000000E+00 0.  1.
         25    2    1    2    0    0  0.90738331872E+01 -0.21328366910E+02  0.38582260254E+03  0.40623017851E+03  0.12500657432E+03 0.  0.
    9000005    1    3    3    0    0 -0.36813699063E+02  0.30425015888E+02  0.24158810318E+03  0.24626559164E+03  0.10000000000E+01 0.  0.
    9000005    1    3    3    0    0  0.45887532251E+02 -0.51753382797E+02  0.14423449936E+03  0.15996458687E+03  0.10000000000E+01 0.  0.
          4    1    1    2  501    0 -0.90738331872E+01  0.21328366910E+02  0.31688603581E+02  0.39281219185E+02  0.12700000000E+01 0.  1.
<mgrwt>
<rscale>  1 0.12713724E+03</rscale>
<asrwt>0</asrwt>
<pdfrwt beam="2">  1       21 0.21537175E-02 0.12713724E+03</pdfrwt>
<pdfrwt beam="1">  1        4 0.66390775E-01 0.12713724E+03</pdfrwt>
<totfact> 0.92811536E+04</totfact>
</mgrwt>
</event>
<event>
 6    3  0.3813045E-003  0.1282050E+03  0.7818608E-02  0.1230144E+00
          4   -1    0    0  502    0 -0.00000000000E+00  0.00000000000E+00  0.93090686935E+02  0.93099349589E+02  0.12700000000E+01 0. -1.
         21   -1    0    0  501  502  0.00000000000E+00 -0.00000000000E+00 -0.88588690173E+02  0.88588690173E+02  0.00000000000E+00 0. -1.
         25    2    1    2    0    0 -0.26931843292E+02 -0.95060233153E+01  0.41661044077E+02  0.13480417943E+03  0.12498334103E+03 0.  0.
    9000005    1    3    3    0    0 -0.17805293477E+02  0.29320079640E+02 -0.34603016433E+02  0.48734631343E+02  0.10000000000E+01 0.  0.
    9000005    1    3    3    0    0 -0.91265498144E+01 -0.38826102955E+02  0.76264060510E+02  0.86069548086E+02  0.10000000000E+01 0.  0.
          4    1    1    2  501    0  0.26931843292E+02  0.95060233153E+01 -0.37159047316E+02  0.46883860334E+02  0.12700000000E+01 0.  1.
<mgrwt>
<rscale>  1 0.12820501E+03</rscale>
<asrwt>0</asrwt>
<pdfrwt beam="2">  1       21 0.13629029E-01 0.12820501E+03</pdfrwt>
<pdfrwt beam="1">  1        4 0.14323011E-01 0.12820501E+03</pdfrwt>
<totfact> 0.76463676E+04</totfact>
</mgrwt>
</event>
<event>
 6    3  0.3813045E-003  0.1484380E+03  0.7818608E-02  0.1202406E+00
         21   -1    0    0  501  502  0.00000000000E+00  0.00000000000E+00  0.43797018124E+03  0.43797018124E+03  0.00000000000E+00 0.  1.
         -4   -1    0    0    0  501 -0.00000000000E+00 -0.00000000000E+00 -0.35749250128E+02  0.35771801530E+02  0.12700000000E+01 0. -1.
         25    2    1    2    0    0 -0.53065250069E+02  0.59939533469E+02  0.15826177939E+03  0.21698071418E+03  0.12500068429E+03 0.  0.
    9000005    1    3    3    0    0  0.10368514247E+02  0.46931201353E+02  0.14241302925E+03  0.15030806581E+03  0.10000000000E+01 0.  0.
    9000005    1    3    3    0    0 -0.63433764316E+02  0.13008332116E+02  0.15848750140E+02  0.66672648370E+02  0.10000000000E+01 0.  0.
         -4    1    1    2    0  502  0.53065250069E+02 -0.59939533469E+02  0.24395915172E+03  0.25676126859E+03  0.12700000000E+01 0.  1.
<mgrwt>
<rscale>  1 0.14843800E+03</rscale>
<asrwt>0</asrwt>
<pdfrwt beam="1">  1       21 0.67380024E-01 0.14843800E+03</pdfrwt>
<pdfrwt beam="2">  1       -4 0.55017613E-02 0.14843800E+03</pdfrwt>
<totfact> 0.17057675E+04</totfact>
</mgrwt>
</event>
<event>
 6    3  0.3813045E-003  0.1300534E+03  0.7818608E-02  0.1227376E+00
         -4   -1    0    0    0  501 -0.00000000000E+00  0.00000000000E+00  0.16678351872E+02  0.16726635082E+02  0.12700000000E+01 0.  1.
         21   -1    0    0  501  502  0.00000000000E+00 -0.00000000000E+00 -0.51398020841E+03  0.51398020841E+03  0.00000000000E+00 0. -1.
         25    2    1    2    0    0  0.30580595737E+02  0.18893358858E+02 -0.26019329041E+03  0.29088562492E+03  0.12498706560E+03 0.  0.
    9000005    1    3    3    0    0 -0.23399913627E+02  0.24592691972E+02 -0.10778315854E+02  0.35630444129E+02  0.10000000000E+01 0.  0.
    9000005    1    3    3    0    0  0.53980509364E+02 -0.56993331148E+01 -0.24941497455E+03  0.25525518079E+03  0.10000000000E+01 0.  0.
         -4    1    1    2    0  502 -0.30580595737E+02 -0.18893358858E+02 -0.23710856614E+03  0.23982121858E+03  0.12700000000E+01 0. -1.
<mgrwt>
<rscale>  1 0.13005344E+03</rscale>
<asrwt>0</asrwt>
<pdfrwt beam="2">  1       21 0.79073872E-01 0.13005344E+03</pdfrwt>
<pdfrwt beam="1">  1       -4 0.25697353E-02 0.13005344E+03</pdfrwt>
<totfact> 0.39631824E+04</totfact>
</mgrwt>
</event>
<event>
 6    3  0.3813045E-003  0.1309304E+03  0.7818608E-02  0.1226082E+00
         21   -1    0    0  501  502  0.00000000000E+00  0.00000000000E+00  0.17638148171E+03  0.17638148171E+03  0.00000000000E+00 0. -1.
          4   -1    0    0  502    0 -0.00000000000E+00 -0.00000000000E+00 -0.40985869536E+02  0.41005541109E+02  0.12700000000E+01 0. -1.
         25    2    1    2    0    0 -0.71062740603E+01 -0.38303479685E+02  0.10022828956E+03  0.16488931652E+03  0.12500048395E+03 0.  0.
    9000005    1    3    3    0    0 -0.44868306008E+02 -0.59408424754E+01 -0.78194781302E+01  0.45941296581E+02  0.10000000000E+01 0.  0.
    9000005    1    3    3    0    0  0.37762031947E+02 -0.32362637209E+02  0.10804776769E+03  0.11894801994E+03  0.10000000000E+01 0.  0.
          4    1    1    2  501    0  0.71062740603E+01  0.38303479685E+02  0.35167322610E+02  0.52497706298E+02  0.12700000000E+01 0.  1.
<mgrwt>
<rscale>  1 0.13093043E+03</rscale>
<asrwt>0</asrwt>
<pdfrwt beam="1">  1       21 0.27135612E-01 0.13093043E+03</pdfrwt>
<pdfrwt beam="2">  1        4 0.63073834E-02 0.13093043E+03</pdfrwt>
<totfact> 0.85316869E+04</totfact>
</mgrwt>
</event>
<event>
 6    3  0.3813045E-003  0.1301367E+03  0.7818608E-02  0.1227253E+00
         -4   -1    0    0    0  501 -0.00000000000E+00  0.00000000000E+00  0.23490257099E+03  0.23490600409E+03  0.12700000000E+01 0. -1.
         21   -1    0    0  501  502  0.00000000000E+00 -0.00000000000E+00 -0.31570841005E+02  0.31570841005E+02  0.00000000000E+00 0.  1.
         25    2    1    2    0    0  0.20247241710E+01 -0.36168313607E+02  0.18407767041E+03  0.22543323260E+03  0.12499322861E+03 0.  0.
    9000005    1    3    3    0    0  0.40974722149E+02  0.17617538447E+02  0.13684924750E+03  0.14393756305E+03  0.10000000000E+01 0.  0.
    9000005    1    3    3    0    0 -0.38949997978E+02 -0.53785852054E+02  0.47228422911E+02  0.81495669544E+02  0.10000000000E+01 0.  0.
         -4    1    1    2    0  502 -0.20247241710E+01  0.36168313607E+02  0.19254059578E+02  0.41043612503E+02  0.12700000000E+01 0.  1.
<mgrwt>
<rscale>  1 0.13013667E+03</rscale>
<asrwt>0</asrwt>
<pdfrwt beam="2">  1       21 0.48570526E-02 0.13013667E+03</pdfrwt>
<pdfrwt beam="1">  1       -4 0.36141085E-01 0.13013667E+03</pdfrwt>
<totfact> 0.83955666E+04</totfact>
</mgrwt>
</event>
<event>
 6    3  0.3813045E-003  0.1278208E+03  0.7818608E-02  0.1230726E+00
         21   -1    0    0  501  502  0.00000000000E+00  0.00000000000E+00  0.61454166635E+03  0.61454166635E+03  0.00000000000E+00 0. -1.
         -4   -1    0    0    0  501 -0.00000000000E+00 -0.00000000000E+00 -0.25037351824E+02  0.25069541008E+02  0.12700000000E+01 0.  1.
         25    2    1    2    0    0 -0.25056175030E+02  0.92699115768E+01  0.14101239773E+03  0.19032248560E+03  0.12499763615E+03 0.  0.
    9000005    1    3    3    0    0  0.18779265175E+02  0.31946263052E+02 -0.38599891395E+01  0.37270954370E+02  0.10000000000E+01 0.  0.
    9000005    1    3    3    0    0 -0.43835440205E+02 -0.22676351475E+02  0.14487238687E+03  0.15305153123E+03  0.10000000000E+01 0.  0.
         -4    1    1    2    0  502  0.25056175030E+02 -0.92699115768E+01  0.44849191680E+03  0.44928872176E+03  0.12700000000E+01 0. -1.
<mgrwt>
<rscale>  1 0.12782078E+03</rscale>
<asrwt>0</asrwt>
<pdfrwt beam="1">  1       21 0.94544860E-01 0.12782078E+03</pdfrwt>
<pdfrwt beam="2">  1       -4 0.38544778E-02 0.12782078E+03</pdfrwt>
<totfact> 0.13969543E+04</totfact>
</mgrwt>
</event>
<event>
 6    3  0.3813045E-003  0.1271465E+03  0.7818608E-02  0.1231752E+00
         21   -1    0    0  501  502  0.00000000000E+00  0.00000000000E+00  0.88905491137E+01  0.88905491137E+01  0.00000000000E+00 0. -1.
          4   -1    0    0  502    0 -0.00000000000E+00 -0.00000000000E+00 -0.64345752803E+03  0.64345878133E+03  0.12700000000E+01 0.  1.
         25    2    1    2    0    0 -0.22405747257E+02 -0.65092332700E+01 -0.55765306613E+03  0.57196431624E+03  0.12498739645E+03 0.  0.
    9000005    1    3    3    0    0  0.39979946958E+02 -0.24705001125E+02 -0.37809115336E+03  0.38100216993E+03  0.10000000000E+01 0.  0.
    9000005    1    3    3    0    0 -0.62385694215E+02  0.18195767855E+02 -0.17956191276E+03  0.19096214631E+03  0.10000000000E+01 0.  0.
          4    1    1    2  501    0  0.22405747257E+02  0.65092332700E+01 -0.76913912789E+02  0.80385014203E+02  0.12700000000E+01 0. -1.
<mgrwt>
<rscale>  1 0.12714652E+03</rscale>
<asrwt>0</asrwt>
<pdfrwt beam="1">  1       21 0.13677767E-02 0.12714652E+03</pdfrwt>
<pdfrwt beam="2">  1        4 0.99000543E-01 0.12714652E+03</pdfrwt>
<totfact> 0.79376981E+04</totfact>
</mgrwt>
</event>
<event>
 6    3  0.3813045E-003  0.1282646E+03  0.7818608E-02  0.1230054E+00
          4   -1    0    0  502    0 -0.00000000000E+00  0.00000000000E+00  0.19905374953E+02  0.19945847989E+02  0.12700000000E+01 0. -1.
         21   -1    0    0  501  502  0.00000000000E+00 -0.00000000000E+00 -0.30949149155E+03  0.30949149155E+03  0.00000000000E+00 0. -1.
         25    2    1    2    0    0  0.17307793177E+01 -0.28712011207E+02 -0.23764067781E+03  0.27004612222E+03  0.12499776473E+03 0.  0.
    9000005    1    3    3    0    0  0.30843382733E+02  0.41233062012E+02 -0.80041174314E+02  0.95179142919E+02  0.10000000000E+01 0.  0.
    9000005    1    3    3    0    0 -0.29112603415E+02 -0.69945073219E+02 -0.15759950350E+03  0.17486697930E+03  0.10000000000E+01 0.  0.
          4    1    1    2  501    0 -0.17307793177E+01  0.28712011207E+02 -0.51945438784E+02  0.59391217323E+02  0.12700000000E+01 0.  1.
<mgrwt>
<rscale>  1 0.12826463E+03</rscale>
<asrwt>0</asrwt>
<pdfrwt beam="2">  1       21 0.47614078E-01 0.12826463E+03</pdfrwt>
<pdfrwt beam="1">  1        4 0.30656790E-02 0.12826463E+03</pdfrwt>
<totfact> 0.88692972E+04</totfact>
</mgrwt>
</event>
<event>
 6    3  0.3813045E-003  0.1279140E+03  0.7818608E-02  0.1230584E+00
          4   -1    0    0  502    0 -0.00000000000E+00  0.00000000000E+00  0.93572360977E+02  0.93580979044E+02  0.12700000000E+01 0. -1.
         21   -1    0    0  501  502  0.00000000000E+00 -0.00000000000E+00 -0.43215614691E+03  0.43215614691E+03  0.00000000000E+00 0. -1.
         25    2    1    2    0    0  0.23990639655E+02 -0.12647345805E+02  0.49166363117E+02  0.13703763131E+03  0.12500589981E+03 0.  0.
    9000005    1    3    3    0    0  0.38051598039E+02  0.70231006726E+01  0.85229578510E+02  0.93607313332E+02  0.10000000000E+01 0.  0.
    9000005    1    3    3    0    0 -0.14060958384E+02 -0.19670446478E+02 -0.36063215393E+02  0.43430317979E+02  0.10000000000E+01 0.  0.
          4    1    1    2  501    0 -0.23990639655E+02  0.12647345805E+02 -0.38775014905E+03  0.38869949464E+03  0.12700000000E+01 0. -1.
<mgrwt>
<rscale>  1 0.12791396E+03</rscale>
<asrwt>0</asrwt>
<pdfrwt beam="2">  1       21 0.66485559E-01 0.12791396E+03</pdfrwt>
<pdfrwt beam="1">  1        4 0.14396555E-01 0.12791396E+03</pdfrwt>
<totfact> 0.34801458E+03</totfact>
</mgrwt>
</event>
<event>
 6    3  0.3813045E-003  0.1288163E+03  0.7818608E-02  0.1229223E+00
          4   -1    0    0  502    0 -0.00000000000E+00  0.00000000000E+00  0.25420033392E+03  0.25420350639E+03  0.12700000000E+01 0.  1.
         21   -1    0    0  501  502  0.00000000000E+00 -0.00000000000E+00 -0.29090514386E+02  0.29090514386E+02  0.00000000000E+00 0. -1.
         25    2    1    2    0    0 -0.28867961287E+02  0.11700554936E+02  0.21478830061E+03  0.25045488517E+03  0.12499349284E+03 0.  0.
    9000005    1    3    3    0    0 -0.80191354884E+01  0.68132460757E+02  0.11140050428E+03  0.13083352436E+03  0.10000000000E+01 0.  0.
    9000005    1    3    3    0    0 -0.20848825798E+02 -0.56431905822E+02  0.10338779634E+03  0.11962136082E+03  0.10000000000E+01 0.  0.
          4    1    1    2  501    0  0.28867961287E+02 -0.11700554936E+02  0.10321518917E+02  0.32839135607E+02  0.12700000000E+01 0. -1.
<mgrwt>
<rscale>  1 0.12881629E+03</rscale>
<asrwt>0</asrwt>
<pdfrwt beam="2">  1       21 0.44754639E-02 0.12881629E+03</pdfrwt>
<pdfrwt beam="1">  1        4 0.39110119E-01 0.12881629E+03</pdfrwt>
<totfact> 0.82433775E+04</totfact>
</mgrwt>
</event>
<event>
 6    3  0.3813045E-003  0.1280307E+03  0.7818608E-02  0.1230407E+00
         21   -1    0    0  501  502  0.00000000000E+00  0.00000000000E+00  0.14739099803E+02  0.14739099803E+02  0.00000000000E+00 0.  1.
          4   -1    0    0  502    0 -0.00000000000E+00 -0.00000000000E+00 -0.41285165249E+03  0.41285360585E+03  0.12700000000E+01 0.  1.
         25    2    1    2    0    0  0.19003099833E+02  0.20142791722E+02 -0.31723895621E+03  0.34210000790E+03  0.12500004083E+03 0.  0.
    9000005    1    3    3    0    0 -0.31236369406E+02  0.46760894218E+02 -0.23808383072E+03  0.24463687877E+03  0.10000000000E+01 0.  0.
    9000005    1    3    3    0    0  0.50239469239E+02 -0.26618102496E+02 -0.79155125485E+02  0.97463129133E+02  0.10000000000E+01 0.  0.
          4    1    1    2  501    0 -0.19003099833E+02 -0.20142791722E+02 -0.80873596479E+02  0.85492697753E+02  0.12700000000E+01 0. -1.
<mgrwt>
<rscale>  1 0.12803070E+03</rscale>
<asrwt>0</asrwt>
<pdfrwt beam="1">  1       21 0.22675541E-02 0.12803070E+03</pdfrwt>
<pdfrwt beam="2">  1        4 0.63519991E-01 0.12803070E+03</pdfrwt>
<totfact> 0.93896219E+04</totfact>
</mgrwt>
</event>
<event>
 6    3  0.3813045E-003  0.1424710E+03  0.7818608E-02  0.1210042E+00
         -4   -1    0    0    0  501 -0.00000000000E+00  0.00000000000E+00  0.82339448675E+01  0.83313113063E+01  0.12700000000E+01 0. -1.
         21   -1    0    0  501  502  0.00000000000E+00 -0.00000000000E+00 -0.18113664325E+04  0.18113664325E+04  0.00000000000E+00 0.  1.
         25    2    1    2    0    0  0.61395373685E+02 -0.30059040976E+02 -0.69470428984E+03  0.70916290850E+03  0.12500017049E+03 0.  0.
    9000005    1    3    3    0    0 -0.33625828573E+01 -0.79125573737E+00  0.48331712829E+01  0.60243334705E+01  0.10000000000E+01 0.  0.
    9000005    1    3    3    0    0  0.64757956543E+02 -0.29267785238E+02 -0.69953746112E+03  0.70313857503E+03  0.10000000000E+01 0.  0.
         -4    1    1    2    0  502 -0.61395373685E+02  0.30059040976E+02 -0.11084281977E+04  0.11105348353E+04  0.12700000000E+01 0.  1.
<mgrwt>
<rscale>  1 0.14247098E+03</rscale>
<asrwt>0</asrwt>
<pdfrwt beam="2">  1       21 0.27867200E+00 0.14247098E+03</pdfrwt>
<pdfrwt beam="1">  1       -4 0.12742836E-02 0.14247098E+03</pdfrwt>
<totfact> 0.39428928E+03</totfact>
</mgrwt>
</event>
<event>
 6    3  0.3813045E-003  0.1297305E+03  0.7818608E-02  0.1227856E+00
          4   -1    0    0  502    0 -0.00000000000E+00  0.00000000000E+00  0.59229612125E+02  0.59243226216E+02  0.12700000000E+01 0.  1.
         21   -1    0    0  501  502  0.00000000000E+00 -0.00000000000E+00 -0.11674268758E+03  0.11674268758E+03  0.00000000000E+00 0.  1.
         25    2    1    2    0    0 -0.33556834258E+02 -0.88642894180E+01 -0.34222617149E+02  0.13416851191E+03  0.12500146124E+03 0.  0.
    9000005    1    3    3    0    0 -0.60172372974E+02  0.40448595212E+02 -0.10332156960E+02  0.73243134773E+02  0.10000000000E+01 0.  0.
    9000005    1    3    3    0    0  0.26615538717E+02 -0.49312884630E+02 -0.23890460190E+02  0.60925377141E+02  0.10000000000E+01 0.  0.
          4    1    1    2  501    0  0.33556834258E+02  0.88642894180E+01 -0.23290458310E+02  0.41817401887E+02  0.12700000000E+01 0. -1.
<mgrwt>
<rscale>  1 0.12973050E+03</rscale>
<asrwt>0</asrwt>
<pdfrwt beam="2">  1       21 0.17960413E-01 0.12973050E+03</pdfrwt>
<pdfrwt beam="1">  1        4 0.91138267E-02 0.12973050E+03</pdfrwt>
<totfact> 0.10035615E+05</totfact>
</mgrwt>
</event>
<event>
 6    3  0.3813045E-003  0.1290717E+03  0.7818608E-02  0.1228840E+00
         21   -1    0    0  501  502  0.00000000000E+00  0.00000000000E+00  0.59286486685E+03  0.59286486685E+03  0.00000000000E+00 0. -1.
          4   -1    0    0  502    0 -0.00000000000E+00 -0.00000000000E+00 -0.23711998562E+02  0.23745984414E+02  0.12700000000E+01 0.  1.
         25    2    1    2    0    0  0.24603545112E+02  0.20679496942E+02  0.15717892571E+03  0.20338316791E+03  0.12500608895E+03 0.  0.
    9000005    1    3    3    0    0 -0.28607343566E+02 -0.19469322676E+02  0.12433790430E+03  0.12906722697E+03  0.10000000000E+01 0.  0.
    9000005    1    3    3    0    0  0.53210888678E+02  0.40148819618E+02  0.32841021405E+02  0.74315940938E+02  0.10000000000E+01 0.  0.
          4    1    1    2  501    0 -0.24603545112E+02 -0.20679496942E+02  0.41197394259E+03  0.41322768336E+03  0.12700000000E+01 0. -1.
<mgrwt>
<rscale>  1 0.12907168E+03</rscale>
<asrwt>0</asrwt>
<pdfrwt beam="1">  1       21 0.91209968E-01 0.12907168E+03</pdfrwt>
<pdfrwt beam="2">  1        4 0.36507192E-02 0.12907168E+03</pdfrwt>
<totfact> 0.16545500E+04</totfact>
</mgrwt>
</event>
<event>
 6    3  0.3813045E-003  0.1343832E+03  0.7818608E-02  0.1221093E+00
         21   -1    0    0  501  502  0.00000000000E+00  0.00000000000E+00  0.15010296845E+03  0.15010296845E+03  0.00000000000E+00 0.  1.
          4   -1    0    0  502    0 -0.00000000000E+00 -0.00000000000E+00 -0.13952388081E+03  0.13952966070E+03  0.12700000000E+01 0. -1.
         25    2    1    2    0    0 -0.39054585834E+02 -0.30129589747E+02 -0.10068552886E+03  0.16791787804E+03  0.12500314072E+03 0.  0.
    9000005    1    3    3    0    0 -0.67599851512E+02 -0.47198653861E+02 -0.26491418188E+02  0.86603972705E+02  0.10000000000E+01 0.  0.
    9000005    1    3    3    0    0  0.28545265678E+02  0.17069064114E+02 -0.74194110672E+02  0.81313905335E+02  0.10000000000E+01 0.  0.
          4    1    1    2  501    0  0.39054585834E+02  0.30129589747E+02  0.11126461650E+03  0.12171475111E+03  0.12700000000E+01 0.  1.
<mgrwt>
<rscale>  1 0.13438318E+03</rscale>
<asrwt>0</asrwt>
<pdfrwt beam="1">  1       21 0.23092764E-01 0.13438318E+03</pdfrwt>
<pdfrwt beam="2">  1        4 0.21466070E-01 0.13438318E+03</pdfrwt>
<totfact> 0.14288378E+04</totfact>
</mgrwt>
</event>
<event>
 6    3  0.3813045E-003  0.1266274E+03  0.7818608E-02  0.1232548E+00
         21   -1    0    0  501  502  0.00000000000E+00  0.00000000000E+00  0.55193176745E+02  0.55193176745E+02  0.00000000000E+00 0.  1.
          4   -1    0    0  502    0 -0.00000000000E+00 -0.00000000000E+00 -0.14311868927E+03  0.14312432399E+03  0.12700000000E+01 0.  1.
         25    2    1    2    0    0  0.15412909779E+02 -0.13120670183E+02 -0.11043498169E+03  0.16801900446E+03  0.12499916362E+03 0.  0.
    9000005    1    3    3    0    0  0.42631780511E+01  0.13818304728E+02 -0.13133503729E+03  0.13213255561E+03  0.10000000000E+01 0.  0.
    9000005    1    3    3    0    0  0.11149731728E+02 -0.26938974911E+02  0.20900055603E+02  0.35886448850E+02  0.10000000000E+01 0.  0.
          4    1    1    2  501    0 -0.15412909779E+02  0.13120670183E+02  0.22509469169E+02  0.30298496270E+02  0.12700000000E+01 0. -1.
<mgrwt>
<rscale>  1 0.12662741E+03</rscale>
<asrwt>0</asrwt>
<pdfrwt beam="1">  1       21 0.84912581E-02 0.12662741E+03</pdfrwt>
<pdfrwt beam="2">  1        4 0.22019817E-01 0.12662741E+03</pdfrwt>
<totfact> 0.81762513E+04</totfact>
</mgrwt>
</event>
<event>
 6    3  0.3813045E-003  0.1911590E+03  0.7818608E-02  0.1157420E+00
         -4   -1    0    0    0  501 -0.00000000000E+00  0.00000000000E+00  0.35936124219E+03  0.35936348631E+03  0.12700000000E+01 0.  1.
         21   -1    0    0  501  502  0.00000000000E+00 -0.00000000000E+00 -0.26751450752E+03  0.26751450752E+03  0.00000000000E+00 0. -1.
         25    2    1    2    0    0  0.36235496348E+02  0.14000981907E+03  0.31055607302E+03  0.36467359224E+03  0.12500397495E+03 0.  0.
    9000005    1    3    3    0    0 -0.45056384506E+02  0.32050951209E+02  0.10493294276E+03  0.11861392724E+03  0.10000000000E+01 0.  0.
    9000005    1    3    3    0    0  0.81291880854E+02  0.10795886786E+03  0.20562313026E+03  0.24605966500E+03  0.10000000000E+01 0.  0.
         -4    1    1    2    0  502 -0.36235496348E+02 -0.14000981907E+03 -0.21870933835E+03  0.26220440159E+03  0.12700000000E+01 0. -1.
<mgrwt>
<rscale>  1 0.19115898E+03</rscale>
<asrwt>0</asrwt>
<pdfrwt beam="2">  1       21 0.41156078E-01 0.19115898E+03</pdfrwt>
<pdfrwt beam="1">  1       -4 0.55286750E-01 0.19115898E+03</pdfrwt>
<totfact> 0.75323033E+02</totfact>
</mgrwt>
</event>
<event>
 6    3  0.3813045E-003  0.1310599E+03  0.7818608E-02  0.1225891E+00
         21   -1    0    0  501  502  0.00000000000E+00  0.00000000000E+00  0.26152497340E+03  0.26152497340E+03  0.00000000000E+00 0. -1.
         -4   -1    0    0    0  501 -0.00000000000E+00 -0.00000000000E+00 -0.30545948866E+02  0.30572338676E+02  0.12700000000E+01 0.  1.
         25    2    1    2    0    0  0.31821791328E+02 -0.23245900884E+02  0.13413131865E+03  0.18753111608E+03  0.12499484206E+03 0.  0.
    9000005    1    3    3    0    0 -0.33068203368E+02 -0.17804577963E+02  0.11297075859E+03  0.11905419509E+03  0.10000000000E+01 0.  0.
    9000005    1    3    3    0    0  0.64889994696E+02 -0.54413229206E+01  0.21160560062E+02  0.68476920994E+02  0.10000000000E+01 0.  0.
         -4    1    1    2    0  502 -0.31821791328E+02  0.23245900884E+02  0.96847705878E+02  0.10456619600E+03  0.12700000000E+01 0. -1.
<mgrwt>
<rscale>  1 0.13105994E+03</rscale>
<asrwt>0</asrwt>
<pdfrwt beam="1">  1       21 0.40234610E-01 0.13105994E+03</pdfrwt>
<pdfrwt beam="2">  1       -4 0.47016441E-02 0.13105994E+03</pdfrwt>
<totfact> 0.63549119E+04</totfact>
</mgrwt>
</event>
<event>
 6    3  0.3813045E-003  0.1319942E+03  0.7818608E-02  0.1224526E+00
         -4   -1    0    0    0  501 -0.00000000000E+00  0.00000000000E+00  0.18730197230E+03  0.18730627787E+03  0.12700000000E+01 0.  1.
         21   -1    0    0  501  502  0.00000000000E+00 -0.00000000000E+00 -0.14330616592E+03  0.14330616592E+03  0.00000000000E+00 0. -1.
         25    2    1    2    0    0  0.40402006473E+02 -0.13240351735E+02  0.15978792115E+03  0.20725501279E+03  0.12495931954E+03 0.  0.
    9000005    1    3    3    0    0  0.54198587475E+02 -0.33229988602E+02  0.16953407281E+03  0.18106496312E+03  0.10000000000E+01 0.  0.
    9000005    1    3    3    0    0 -0.13796581003E+02  0.19989636867E+02 -0.97461516616E+01  0.26190049668E+02  0.10000000000E+01 0.  0.
         -4    1    1    2    0  502 -0.40402006473E+02  0.13240351735E+02 -0.11579211476E+03  0.12335743100E+03  0.12700000000E+01 0. -1.
<mgrwt>
<rscale>  1 0.13199417E+03</rscale>
<asrwt>0</asrwt>
<pdfrwt beam="2">  1       21 0.22047102E-01 0.13199417E+03</pdfrwt>
<pdfrwt beam="1">  1       -4 0.28816452E-01 0.13199417E+03</pdfrwt>
<totfact> 0.90380874E+03</totfact>
</mgrwt>
</event>
<event>
 6    3  0.3813045E-003  0.1294907E+03  0.7818608E-02  0.1228213E+00
         21   -1    0    0  501  502  0.00000000000E+00  0.00000000000E+00  0.13900497263E+03  0.13900497263E+03  0.00000000000E+00 0.  1.
          4   -1    0    0  502    0 -0.00000000000E+00 -0.00000000000E+00 -0.51958929000E+02  0.51974447596E+02  0.12700000000E+01 0.  1.
         25    2    1    2    0    0  0.25080131684E+02  0.22720787115E+02  0.45213308565E+02  0.13715714049E+03  0.12499036261E+03 0.  0.
    9000005    1    3    3    0    0  0.67301989748E+02  0.32690673424E+02  0.47357178207E+00  0.74829554477E+02  0.10000000000E+01 0.  0.
    9000005    1    3    3    0    0 -0.42221858064E+02 -0.99698863088E+01  0.44739736782E+02  0.62327586017E+02  0.10000000000E+01 0.  0.
          4    1    1    2  501    0 -0.25080131684E+02 -0.22720787115E+02  0.41832735064E+02  0.53822279730E+02  0.12700000000E+01 0. -1.
<mgrwt>
<rscale>  1 0.12949069E+03</rscale>
<asrwt>0</asrwt>
<pdfrwt beam="1">  1       21 0.21385380E-01 0.12949069E+03</pdfrwt>
<pdfrwt beam="2">  1        4 0.79953215E-02 0.12949069E+03</pdfrwt>
<totfact> 0.90384285E+04</totfact>
</mgrwt>
</event>
<event>
 6    3  0.3813045E-003  0.1363380E+03  0.7818608E-02  0.1218343E+00
         21   -1    0    0  501  502  0.00000000000E+00  0.00000000000E+00  0.15154250626E+03  0.15154250626E+03  0.00000000000E+00 0.  1.
         -4   -1    0    0    0  501 -0.00000000000E+00 -0.00000000000E+00 -0.60227128991E+02  0.60240517648E+02  0.12700000000E+01 0.  1.
         25    2    1    2    0    0 -0.53353576235E+02 -0.10521429558E+02  0.59403067708E+02  0.14871708240E+03  0.12502296416E+03 0.  0.
    9000005    1    3    3    0    0  0.22632104943E+02 -0.25740953082E+02 -0.18387455744E+02  0.38908962572E+02  0.10000000000E+01 0.  0.
    9000005    1    3    3    0    0 -0.75985681178E+02  0.15219523524E+02  0.77790523452E+02  0.10980811982E+03  0.10000000000E+01 0.  0.
         -4    1    1    2    0  502  0.53353576235E+02  0.10521429558E+02  0.31912309558E+02  0.63065941508E+02  0.12700000000E+01 0. -1.
<mgrwt>
<rscale>  1 0.13633798E+03</rscale>
<asrwt>0</asrwt>
<pdfrwt beam="1">  1       21 0.23314231E-01 0.13633798E+03</pdfrwt>
<pdfrwt beam="2">  1       -4 0.92671515E-02 0.13633798E+03</pdfrwt>
<totfact> 0.60537562E+04</totfact>
</mgrwt>
</event>
<event>
 6    3  0.3813045E-003  0.1298555E+03  0.7818608E-02  0.1227670E+00
         21   -1    0    0  501  502  0.00000000000E+00  0.00000000000E+00  0.39342438386E+03  0.39342438386E+03  0.00000000000E+00 0. -1.
          4   -1    0    0  502    0 -0.00000000000E+00 -0.00000000000E+00 -0.17420808796E+02  0.17467039792E+02  0.12700000000E+01 0. -1.
         25    2    1    2    0    0  0.32476243352E+02 -0.13522248474E+02  0.30970974538E+03  0.33583116559E+03  0.12499955125E+03 0.  0.
    9000005    1    3    3    0    0  0.19945621836E+02  0.49741117279E+02  0.73468193148E+02  0.90942740134E+02  0.10000000000E+01 0.  0.
    9000005    1    3    3    0    0  0.12530621516E+02 -0.63263365753E+02  0.23624155223E+03  0.24488842545E+03  0.10000000000E+01 0.  0.
          4    1    1    2  501    0 -0.32476243352E+02  0.13522248474E+02  0.66293829684E+02  0.75060258061E+02  0.12700000000E+01 0.  1.
<mgrwt>
<rscale>  1 0.12985548E+03</rscale>
<asrwt>0</asrwt>
<pdfrwt beam="1">  1       21 0.60526822E-01 0.12985548E+03</pdfrwt>
<pdfrwt beam="2">  1        4 0.26838386E-02 0.12985548E+03</pdfrwt>
<totfact> 0.66273616E+04</totfact>
</mgrwt>
</event>
<event>
 6    3  0.3813045E-003  0.1338696E+03  0.7818608E-02  0.1221824E+00
         21   -1    0    0  501  502  0.00000000000E+00  0.00000000000E+00  0.39071800472E+03  0.39071800472E+03  0.00000000000E+00 0.  1.
          4   -1    0    0  502    0 -0.00000000000E+00 -0.00000000000E+00 -0.21244938575E+02  0.21282864353E+02  0.12700000000E+01 0.  1.
         25    2    1    2    0    0  0.46310690547E+02  0.12325264032E+02  0.25821586628E+03  0.29085480181E+03  0.12499795975E+03 0.  0.
    9000005    1    3    3    0    0  0.33166569998E+02  0.27947096323E+01  0.11958877638E+01  0.33320592955E+02  0.10000000000E+01 0.  0.
    9000005    1    3    3    0    0  0.13144120549E+02  0.95305544001E+01  0.25701997852E+03  0.25753420885E+03  0.10000000000E+01 0.  0.
          4    1    1    2  501    0 -0.46310690547E+02 -0.12325264032E+02  0.11125719987E+03  0.12114606727E+03  0.12700000000E+01 0. -1.
<mgrwt>
<rscale>  1 0.13386965E+03</rscale>
<asrwt>0</asrwt>
<pdfrwt beam="1">  1       21 0.60110457E-01 0.13386965E+03</pdfrwt>
<pdfrwt beam="2">  1        4 0.32715285E-02 0.13386965E+03</pdfrwt>
<totfact> 0.49499497E+04</totfact>
</mgrwt>
</event>
<event>
 6    3  0.3813045E-003  0.1278238E+03  0.7818608E-02  0.1230721E+00
         21   -1    0    0  501  502  0.00000000000E+00  0.00000000000E+00  0.18594108283E+03  0.18594108283E+03  0.00000000000E+00 0. -1.
         -4   -1    0    0    0  501 -0.00000000000E+00 -0.00000000000E+00 -0.10331447153E+03  0.10332227702E+03  0.12700000000E+01 0.  1.
         25    2    1    2    0    0 -0.13252569126E+02  0.23202952745E+02 -0.62082320783E+02  0.14210257863E+03  0.12499968278E+03 0.  0.
    9000005    1    3    3    0    0  0.40717900162E+02  0.33669047570E+02 -0.68752132666E+02  0.86714519569E+02  0.10000000000E+01 0.  0.
    9000005    1    3    3    0    0 -0.53970469288E+02 -0.10466094825E+02  0.66698118831E+01  0.55388059061E+02  0.10000000000E+01 0.  0.
         -4    1    1    2    0  502  0.13252569126E+02 -0.23202952745E+02  0.14470893208E+03  0.14716078122E+03  0.12700000000E+01 0. -1.
<mgrwt>
<rscale>  1 0.12782382E+03</rscale>
<asrwt>0</asrwt>
<pdfrwt beam="1">  1       21 0.28606320E-01 0.12782382E+03</pdfrwt>
<pdfrwt beam="2">  1       -4 0.15895468E-01 0.12782382E+03</pdfrwt>
<totfact> 0.16188368E+04</totfact>
</mgrwt>
</event>
<event>
 6    3  0.3813045E-003  0.1343332E+03  0.7818608E-02  0.1221164E+00
         21   -1    0    0  501  502  0.00000000000E+00  0.00000000000E+00  0.14867740720E+03  0.14867740720E+03  0.00000000000E+00 0. -1.
         -4   -1    0    0    0  501 -0.00000000000E+00 -0.00000000000E+00 -0.19079794636E+03  0.19080217304E+03  0.12700000000E+01 0.  1.
         25    2    1    2    0    0 -0.97411414690E+01  0.48266294393E+02 -0.16166059897E+03  0.21018934932E+03  0.12498355211E+03 0.  0.
    9000005    1    3    3    0    0 -0.71029442715E+01  0.11763068337E+02  0.20326586660E+02  0.24555889707E+02  0.10000000000E+01 0.  0.
    9000005    1    3    3    0    0 -0.26381971975E+01  0.36503226055E+02 -0.18198718563E+03  0.18563345962E+03  0.10000000000E+01 0.  0.
         -4    1    1    2    0  502  0.97411414690E+01 -0.48266294393E+02  0.11954005981E+03  0.12929023092E+03  0.12700000000E+01 0. -1.
<mgrwt>
<rscale>  1 0.13433322E+03</rscale>
<asrwt>0</asrwt>
<pdfrwt beam="1">  1       21 0.22873447E-01 0.13433322E+03</pdfrwt>
<pdfrwt beam="2">  1       -4 0.29354272E-01 0.13433322E+03</pdfrwt>
<totfact> 0.81593997E+03</totfact>
</mgrwt>
</event>
<event>
 6    3  0.3813045E-003  0.1276319E+03  0.7818608E-02  0.1231012E+00
         21   -1    0    0  501  502  0.00000000000E+00  0.00000000000E+00  0.54749935944E+01  0.54749935944E+01  0.00000000000E+00 0. -1.
          4   -1    0    0  502    0 -0.00000000000E+00 -0.00000000000E+00 -0.11902932946E+04  0.11902939722E+04  0.12700000000E+01 0. -1.
         25    2    1    2    0    0  0.17428262405E+01  0.25730384868E+02 -0.10917541430E+04  0.10991892549E+04  0.12499927616E+03 0.  0.
    9000005    1    3    3    0    0 -0.29284334593E+02  0.64403448653E+02 -0.81171848429E+03  0.81479646182E+03  0.10000000000E+01 0.  0.
    9000005    1    3    3    0    0  0.31027160834E+02 -0.38673063785E+02 -0.28003565872E+03  0.28439279303E+03  0.10000000000E+01 0.  0.
          4    1    1    2  501    0 -0.17428262405E+01 -0.25730384868E+02 -0.93064158035E+02  0.96579710911E+02  0.12700000000E+01 0.  1.
<mgrwt>
<rscale>  1 0.12763193E+03</rscale>
<asrwt>0</asrwt>
<pdfrwt beam="1">  1       21 0.84230724E-03 0.12763193E+03</pdfrwt>
<pdfrwt beam="2">  1        4 0.18313331E+00 0.12763193E+03</pdfrwt>
<totfact> 0.37041913E+04</totfact>
</mgrwt>
</event>
<event>
 6    3  0.3813045E-003  0.1308372E+03  0.7818608E-02  0.1226219E+00
         21   -1    0    0  501  502  0.00000000000E+00  0.00000000000E+00  0.24816177138E+02  0.24816177138E+02  0.00000000000E+00 0.  1.
          4   -1    0    0  502    0 -0.00000000000E+00 -0.00000000000E+00 -0.31200794721E+03  0.31201053191E+03  0.12700000000E+01 0.  1.
         25    2    1    2    0    0 -0.71721395193E+01  0.37982045311E+02 -0.25460039230E+03  0.28625116005E+03  0.12499716605E+03 0.  0.
    9000005    1    3    3    0    0  0.13479828760E+02 -0.43671688546E+02 -0.10601438324E+03  0.11545116551E+03  0.10000000000E+01 0.  0.
    9000005    1    3    3    0    0 -0.20651968280E+02  0.81653733857E+02 -0.14858600905E+03  0.17079999453E+03  0.10000000000E+01 0.  0.
          4    1    1    2  501    0  0.71721395193E+01 -0.37982045311E+02 -0.32591377775E+02  0.50575549000E+02  0.12700000000E+01 0. -1.
<mgrwt>
<rscale>  1 0.13083718E+03</rscale>
<asrwt>0</asrwt>
<pdfrwt beam="1">  1       21 0.38178734E-02 0.13083718E+03</pdfrwt>
<pdfrwt beam="2">  1        4 0.48003921E-01 0.13083718E+03</pdfrwt>
<totfact> 0.71585729E+04</totfact>
</mgrwt>
</event>
<event>
 6    3  0.3813045E-003  0.1280149E+03  0.7818608E-02  0.1230431E+00
         21   -1    0    0  501  502  0.00000000000E+00  0.00000000000E+00  0.25300548820E+03  0.25300548820E+03  0.00000000000E+00 0.  1.
         -4   -1    0    0    0  501 -0.00000000000E+00 -0.00000000000E+00 -0.24555218119E+02  0.24588038492E+02  0.12700000000E+01 0.  1.
         25    2    1    2    0    0  0.27651441702E+02  0.19951075499E+00  0.16897008529E+03  0.21198752608E+03  0.12499271763E+03 0.  0.
    9000005    1    3    3    0    0  0.44522343756E+02  0.48800235656E+02  0.13509056550E+03  0.15038006178E+03  0.10000000000E+01 0.  0.
    9000005    1    3    3    0    0 -0.16870902055E+02 -0.48600724901E+02  0.33879519789E+02  0.61607464306E+02  0.10000000000E+01 0.  0.
         -4    1    1    2    0  502 -0.27651441702E+02 -0.19951075499E+00  0.59480184794E+02  0.65606000609E+02  0.12700000000E+01 0. -1.
<mgrwt>
<rscale>  1 0.12801493E+03</rscale>
<asrwt>0</asrwt>
<pdfrwt beam="1">  1       21 0.38923919E-01 0.12801493E+03</pdfrwt>
<pdfrwt beam="2">  1       -4 0.37804959E-02 0.12801493E+03</pdfrwt>
<totfact> 0.95774804E+04</totfact>
</mgrwt>
</event>
<event>
 6    3  0.3813045E-003  0.1298388E+03  0.7818608E-02  0.1227695E+00
         -4   -1    0    0    0  501 -0.00000000000E+00  0.00000000000E+00  0.49409326692E+03  0.49409489910E+03  0.12700000000E+01 0.  1.
         21   -1    0    0  501  502  0.00000000000E+00 -0.00000000000E+00 -0.18202632169E+02  0.18202632169E+02  0.00000000000E+00 0.  1.
         25    2    1    2    0    0 -0.26234013861E+01 -0.35011677722E+02  0.45079911587E+03  0.46912465748E+03  0.12500160627E+03 0.  0.
    9000005    1    3    3    0    0 -0.14359342946E+02 -0.80939163790E+02  0.29872906898E+03  0.30983446487E+03  0.10000000000E+01 0.  0.
    9000005    1    3    3    0    0  0.11735941560E+02  0.45927486067E+02  0.15207004689E+03  0.15929019261E+03  0.10000000000E+01 0.  0.
         -4    1    1    2    0  502  0.26234013861E+01  0.35011677722E+02  0.25091518884E+02  0.43172873795E+02  0.12700000000E+01 0. -1.
<mgrwt>
<rscale>  1 0.12983875E+03</rscale>
<asrwt>0</asrwt>
<pdfrwt beam="2">  1       21 0.28004053E-02 0.12983875E+03</pdfrwt>
<pdfrwt beam="1">  1       -4 0.76017872E-01 0.12983875E+03</pdfrwt>
<totfact> 0.45327388E+04</totfact>
</mgrwt>
</event>
<event>
 6    3  0.3813045E-003  0.1268293E+03  0.7818608E-02  0.1232238E+00
         21   -1    0    0  501  502  0.00000000000E+00  0.00000000000E+00  0.74125997576E+02  0.74125997576E+02  0.00000000000E+00 0. -1.
         -4   -1    0    0    0  501 -0.00000000000E+00 -0.00000000000E+00 -0.81847622349E+02  0.81857474822E+02  0.12700000000E+01 0. -1.
         25    2    1    2    0    0 -0.17867787368E+02 -0.11947824036E+02 -0.23886453095E+02  0.12905908012E+03  0.12499470067E+03 0.  0.
    9000005    1    3    3    0    0  0.14415011449E+02 -0.37607020291E+02  0.37540456991E+02  0.55066926928E+02  0.10000000000E+01 0.  0.
    9000005    1    3    3    0    0 -0.32282798817E+02  0.25659196255E+02 -0.61426910086E+02  0.73992153196E+02  0.10000000000E+01 0.  0.
         -4    1    1    2    0  502  0.17867787368E+02  0.11947824036E+02  0.16164828321E+02  0.26924392274E+02  0.12700000000E+01 0.  1.
<mgrwt>
<rscale>  1 0.12682935E+03</rscale>
<asrwt>0</asrwt>
<pdfrwt beam="1">  1       21 0.11404000E-01 0.12682935E+03</pdfrwt>
<pdfrwt beam="2">  1       -4 0.12593537E-01 0.12682935E+03</pdfrwt>
<totfact> 0.13083790E+05</totfact>
</mgrwt>
</event>
<event>
 6    3  0.3813045E-003  0.1292184E+03  0.7818608E-02  0.1228620E+00
          4   -1    0    0  502    0 -0.00000000000E+00  0.00000000000E+00  0.70062301660E+02  0.70073811184E+02  0.12700000000E+01 0. -1.
         21   -1    0    0  501  502  0.00000000000E+00 -0.00000000000E+00 -0.30910627576E+03  0.30910627576E+03  0.00000000000E+00 0.  1.
         25    2    1    2    0    0  0.28102769346E+02 -0.16808788158E+02  0.84798631339E+01  0.12949635919E+03  0.12500039185E+03 0.  0.
    9000005    1    3    3    0    0  0.74660923256E+02 -0.26742762264E+02  0.17025309645E+02  0.81118986455E+02  0.10000000000E+01 0.  0.
    9000005    1    3    3    0    0 -0.46558153911E+02  0.99339741058E+01 -0.85454465109E+01  0.48377372739E+02  0.10000000000E+01 0.  0.
          4    1    1    2  501    0 -0.28102769346E+02  0.16808788158E+02 -0.24752383723E+03  0.24968372775E+03  0.12700000000E+01 0.  1.
<mgrwt>
<rscale>  1 0.12921842E+03</rscale>
<asrwt>0</asrwt>
<pdfrwt beam="2">  1       21 0.47554812E-01 0.12921842E+03</pdfrwt>
<pdfrwt beam="1">  1        4 0.10779902E-01 0.12921842E+03</pdfrwt>
<totfact> 0.11566511E+04</totfact>
</mgrwt>
</event>
<event>
 6    3  0.3813045E-003  0.1269262E+03  0.7818608E-02  0.1232089E+00
         21   -1    0    0  501  502  0.00000000000E+00  0.00000000000E+00  0.68225263780E+02  0.68225263780E+02  0.00000000000E+00 0.  1.
         -4   -1    0    0    0  501 -0.00000000000E+00 -0.00000000000E+00 -0.13265283800E+03  0.13265891727E+03  0.12700000000E+01 0. -1.
         25    2    1    2    0    0  0.11317663356E-02 -0.22026504234E+02 -0.98244664967E+02  0.16050627352E+03  0.12500033101E+03 0.  0.
    9000005    1    3    3    0    0  0.42576434086E+02  0.35435489850E+02 -0.42606515290E+02  0.69890928064E+02  0.10000000000E+01 0.  0.
    9000005    1    3    3    0    0 -0.42575302320E+02 -0.57461994085E+02 -0.55638149677E+02  0.90615345452E+02  0.10000000000E+01 0.  0.
         -4    1    1    2    0  502 -0.11317663356E-02  0.22026504234E+02  0.33817090745E+02  0.40377907531E+02  0.12700000000E+01 0.  1.
<mgrwt>
<rscale>  1 0.12692616E+03</rscale>
<asrwt>0</asrwt>
<pdfrwt beam="1">  1       21 0.10496195E-01 0.12692616E+03</pdfrwt>
<pdfrwt beam="2">  1       -4 0.20409505E-01 0.12692616E+03</pdfrwt>
<totfact> 0.64858929E+04</totfact>
</mgrwt>
</event>
<event>
 6    3  0.3813045E-003  0.1285227E+03  0.7818608E-02  0.1229664E+00
         21   -1    0    0  501  502  0.00000000000E+00  0.00000000000E+00  0.21650306196E+03  0.21650306196E+03  0.00000000000E+00 0. -1.
          4   -1    0    0  502    0 -0.00000000000E+00 -0.00000000000E+00 -0.35048479308E+02  0.35071481317E+02  0.12700000000E+01 0. -1.
         25    2    1    2    0    0  0.15970917707E+02  0.25267264398E+02  0.94241389163E+02  0.15937227171E+03  0.12499830678E+03 0.  0.
    9000005    1    3    3    0    0  0.32546431412E+02 -0.20222333079E+02  0.10323257204E+03  0.11011892155E+03  0.10000000000E+01 0.  0.
    9000005    1    3    3    0    0 -0.16575513705E+02  0.45489597478E+02 -0.89911828763E+01  0.49253350168E+02  0.10000000000E+01 0.  0.
          4    1    1    2  501    0 -0.15970917707E+02 -0.25267264398E+02  0.87213193487E+02  0.92202271559E+02  0.12700000000E+01 0.  1.
<mgrwt>
<rscale>  1 0.12852269E+03</rscale>
<asrwt>0</asrwt>
<pdfrwt beam="1">  1       21 0.33308162E-01 0.12852269E+03</pdfrwt>
<pdfrwt beam="2">  1        4 0.53941298E-02 0.12852269E+03</pdfrwt>
<totfact> 0.73845887E+04</totfact>
</mgrwt>
</event>
<event>
 6    3  0.3813045E-003  0.1268193E+03  0.7818608E-02  0.1232253E+00
         21   -1    0    0  501  502  0.00000000000E+00  0.00000000000E+00  0.28411158614E+02  0.28411158614E+02  0.00000000000E+00 0. -1.
          4   -1    0    0  502    0 -0.00000000000E+00 -0.00000000000E+00 -0.31345298285E+03  0.31345555563E+03  0.12700000000E+01 0. -1.
         25    2    1    2    0    0  0.19052359479E+02 -0.97491334816E+01 -0.29278579581E+03  0.31907153930E+03  0.12500034783E+03 0.  0.
    9000005    1    3    3    0    0 -0.31983759751E+02 -0.12916688260E+01 -0.13036000905E+02  0.34576966550E+02  0.10000000000E+01 0.  0.
    9000005    1    3    3    0    0  0.51036119230E+02 -0.84574646557E+01 -0.27974979490E+03  0.28449457275E+03  0.10000000000E+01 0.  0.
          4    1    1    2  501    0 -0.19052359479E+02  0.97491334816E+01  0.77439715720E+01  0.22795174951E+02  0.12700000000E+01 0.  1.
<mgrwt>
<rscale>  1 0.12681926E+03</rscale>
<asrwt>0</asrwt>
<pdfrwt beam="1">  1       21 0.43709472E-02 0.12681926E+03</pdfrwt>
<pdfrwt beam="2">  1        4 0.48225920E-01 0.12681926E+03</pdfrwt>
<totfact> 0.56389302E+04</totfact>
</mgrwt>
</event>
<event>
 6    3  0.3813045E-003  0.1302220E+03  0.7818608E-02  0.1227127E+00
         21   -1    0    0  501  502  0.00000000000E+00  0.00000000000E+00  0.87290360222E+02  0.87290360222E+02  0.00000000000E+00 0. -1.
         -4   -1    0    0    0  501 -0.00000000000E+00 -0.00000000000E+00 -0.12917024188E+03  0.12917648504E+03  0.12700000000E+01 0.  1.
         25    2    1    2    0    0 -0.22044188297E+02  0.29109658826E+02 -0.88341981201E+02  0.15735967083E+03  0.12499776753E+03 0.  0.
    9000005    1    3    3    0    0 -0.26792191768E+02 -0.46688181450E+02 -0.42992452684E+02  0.68898177150E+02  0.10000000000E+01 0.  0.
    9000005    1    3    3    0    0  0.47480034715E+01  0.75797840276E+02 -0.45349528517E+02  0.88461493681E+02  0.10000000000E+01 0.  0.
         -4    1    1    2    0  502  0.22044188297E+02 -0.29109658826E+02  0.46462099546E+02  0.59107174428E+02  0.12700000000E+01 0. -1.
<mgrwt>
<rscale>  1 0.13022197E+03</rscale>
<asrwt>0</asrwt>
<pdfrwt beam="1">  1       21 0.13429286E-01 0.13022197E+03</pdfrwt>
<pdfrwt beam="2">  1       -4 0.19873536E-01 0.13022197E+03</pdfrwt>
<totfact> 0.44129012E+04</totfact>
</mgrwt>
</event>
<event>
 6    3  0.3813045E-003  0.1282092E+03  0.7818608E-02  0.1230137E+00
         21   -1    0    0  501  502  0.00000000000E+00  0.00000000000E+00  0.37838698033E+02  0.37838698033E+02  0.00000000000E+00 0. -1.
          4   -1    0    0  502    0 -0.00000000000E+00 -0.00000000000E+00 -0.30806476205E+03  0.30806737983E+03  0.12700000000E+01 0.  1.
         25    2    1    2    0    0  0.16685791270E+00 -0.28508495797E+02 -0.28591188595E+03  0.31334198592E+03  0.12499932575E+03 0.  0.
    9000005    1    3    3    0    0 -0.13920766532E+02 -0.12274162704E+02  0.68367307683E+01  0.19803628418E+02  0.10000000000E+01 0.  0.
    9000005    1    3    3    0    0  0.14087624444E+02 -0.16234333093E+02 -0.29274861672E+03  0.29353835750E+03  0.10000000000E+01 0.  0.
          4    1    1    2  501    0 -0.16685791270E+00  0.28508495797E+02  0.15685821938E+02  0.32564091942E+02  0.12700000000E+01 0. -1.
<mgrwt>
<rscale>  1 0.12820918E+03</rscale>
<asrwt>0</asrwt>
<pdfrwt beam="1">  1       21 0.58213381E-02 0.12820918E+03</pdfrwt>
<pdfrwt beam="2">  1        4 0.47396420E-01 0.12820918E+03</pdfrwt>
<totfact> 0.36138763E+04</totfact>
</mgrwt>
</event>
<event>
 6    3  0.3813045E-003  0.1280706E+03  0.7818608E-02  0.1230347E+00
         21   -1    0    0  501  502  0.00000000000E+00  0.00000000000E+00  0.37785303456E+03  0.37785303456E+03  0.00000000000E+00 0.  1.
         -4   -1    0    0    0  501 -0.00000000000E+00 -0.00000000000E+00 -0.62781326078E+02  0.62794170144E+02  0.12700000000E+01 0. -1.
         25    2    1    2    0    0  0.27628469166E+02 -0.37370130882E+01  0.38001753585E+01  0.12812700086E+03  0.12499915777E+03 0.  0.
    9000005    1    3    3    0    0  0.24006840035E+01 -0.51859534527E+02 -0.33878208185E+02  0.61999254793E+02  0.10000000000E+01 0.  0.
    9000005    1    3    3    0    0  0.25227785162E+02  0.48122521439E+02  0.37678383544E+02  0.66127746070E+02  0.10000000000E+01 0.  0.
         -4    1    1    2    0  502 -0.27628469166E+02  0.37370130882E+01  0.31127153312E+03  0.31252020384E+03  0.12700000000E+01 0.  1.
<mgrwt>
<rscale>  1 0.12807063E+03</rscale>
<asrwt>0</asrwt>
<pdfrwt beam="1">  1       21 0.58131235E-01 0.12807063E+03</pdfrwt>
<pdfrwt beam="2">  1       -4 0.96598180E-02 0.12807063E+03</pdfrwt>
<totfact> 0.91603500E+03</totfact>
</mgrwt>
</event>
<event>
 6    3  0.3813045E-003  0.1276530E+03  0.7818608E-02  0.1230980E+00
         21   -1    0    0  501  502  0.00000000000E+00  0.00000000000E+00  0.98164501031E+03  0.98164501031E+03  0.00000000000E+00 0. -1.
         -4   -1    0    0    0  501 -0.00000000000E+00 -0.00000000000E+00 -0.12979863474E+02  0.13041846334E+02  0.12700000000E+01 0. -1.
         25    2    1    2    0    0  0.12357702479E+02  0.22772953992E+02  0.30658704695E+03  0.33210075394E+03  0.12499589260E+03 0.  0.
    9000005    1    3    3    0    0  0.36991330859E+02  0.41805397738E+02  0.29273885104E+03  0.29801524247E+03  0.10000000000E+01 0.  0.
    9000005    1    3    3    0    0 -0.24633628380E+02 -0.19032443746E+02  0.13848195909E+02  0.34085511468E+02  0.10000000000E+01 0.  0.
         -4    1    1    2    0  502 -0.12357702479E+02 -0.22772953992E+02  0.66207809989E+03  0.66258610270E+03  0.12700000000E+01 0.  1.
<mgrwt>
<rscale>  1 0.12765302E+03</rscale>
<asrwt>0</asrwt>
<pdfrwt beam="1">  1       21 0.15102225E+00 0.12765302E+03</pdfrwt>
<pdfrwt beam="2">  1       -4 0.20017339E-02 0.12765302E+03</pdfrwt>
<totfact> 0.12369214E+04</totfact>
</mgrwt>
</event>
<event>
 6    3  0.3813045E-003  0.1303504E+03  0.7818608E-02  0.1226937E+00
         21   -1    0    0  501  502  0.00000000000E+00  0.00000000000E+00  0.50014707904E+03  0.50014707904E+03  0.00000000000E+00 0. -1.
         -4   -1    0    0    0  501 -0.00000000000E+00 -0.00000000000E+00 -0.20011985561E+02  0.20052243418E+02  0.12700000000E+01 0.  1.
         25    2    1    2    0    0  0.36263319653E+02  0.71308720748E+01  0.20734829944E+03  0.24491742041E+03  0.12500139141E+03 0.  0.
    9000005    1    3    3    0    0  0.34294734952E+02  0.64416368955E+02  0.11315527747E+03  0.13465034071E+03  0.10000000000E+01 0.  0.
    9000005    1    3    3    0    0  0.19685847009E+01 -0.57285496880E+02  0.94193021971E+02  0.11026707970E+03  0.10000000000E+01 0.  0.
         -4    1    1    2    0  502 -0.36263319653E+02 -0.71308720748E+01  0.27278679405E+03  0.27528190205E+03  0.12700000000E+01 0. -1.
<mgrwt>
<rscale>  1 0.13035040E+03</rscale>
<asrwt>0</asrwt>
<pdfrwt beam="1">  1       21 0.76945695E-01 0.13035040E+03</pdfrwt>
<pdfrwt beam="2">  1       -4 0.30819882E-02 0.13035040E+03</pdfrwt>
<totfact> 0.31716828E+04</totfact>
</mgrwt>
</event>
<event>
 6    3  0.3813045E-003  0.1430607E+03  0.7818608E-02  0.1209269E+00
         21   -1    0    0  501  502  0.00000000000E+00  0.00000000000E+00  0.22761618766E+03  0.22761618766E+03  0.00000000000E+00 0. -1.
          4   -1    0    0  502    0 -0.00000000000E+00 -0.00000000000E+00 -0.12802541694E+03  0.12803171593E+03  0.12700000000E+01 0.  1.
         25    2    1    2    0    0 -0.64228498431E+02  0.26791475801E+02 -0.79387559915E+02  0.16361160774E+03  0.12499316115E+03 0.  0.
    9000005    1    3    3    0    0  0.27224601466E+02  0.11225675674E+02 -0.62797018809E+02  0.69366132158E+02  0.10000000000E+01 0.  0.
    9000005    1    3    3    0    0 -0.91453099896E+02  0.15565800127E+02 -0.16590541106E+02  0.94245475586E+02  0.10000000000E+01 0.  0.
          4    1    1    2  501    0  0.64228498431E+02 -0.26791475801E+02  0.17897833063E+03  0.19203629584E+03  0.12700000000E+01 0. -1.
<mgrwt>
<rscale>  1 0.14306073E+03</rscale>
<asrwt>0</asrwt>
<pdfrwt beam="1">  1       21 0.35017875E-01 0.14306073E+03</pdfrwt>
<pdfrwt beam="2">  1        4 0.19696975E-01 0.14306073E+03</pdfrwt>
<totfact> 0.75351545E+03</totfact>
</mgrwt>
</event>
<event>
 6    3  0.3813045E-003  0.1278667E+03  0.7818608E-02  0.1230656E+00
          4   -1    0    0  502    0 -0.00000000000E+00  0.00000000000E+00  0.61263038355E+03  0.61263169992E+03  0.12700000000E+01 0. -1.
         21   -1    0    0  501  502  0.00000000000E+00 -0.00000000000E+00 -0.97907738976E+01  0.97907738976E+01  0.00000000000E+00 0. -1.
         25    2    1    2    0    0 -0.18598806748E+02 -0.19448985450E+02  0.48950434721E+03  0.50592924114E+03  0.12500284978E+03 0.  0.
    9000005    1    3    3    0    0  0.47830060823E+02  0.17175269512E+02  0.23081509177E+03  0.23634574502E+03  0.10000000000E+01 0.  0.
    9000005    1    3    3    0    0 -0.66428867571E+02 -0.36624254962E+02  0.25868925544E+03  0.26958349611E+03  0.10000000000E+01 0.  0.
          4    1    1    2  501    0  0.18598806748E+02  0.19448985450E+02  0.11333526244E+03  0.11649323268E+03  0.12700000000E+01 0.  1.
<mgrwt>
<rscale>  1 0.12786669E+03</rscale>
<asrwt>0</asrwt>
<pdfrwt beam="2">  1       21 0.15062734E-02 0.12786669E+03</pdfrwt>
<pdfrwt beam="1">  1        4 0.94257235E-01 0.12786669E+03</pdfrwt>
<totfact> 0.76221658E+04</totfact>
</mgrwt>
</event>
<event>
 6    3  0.3813045E-003  0.1267941E+03  0.7818608E-02  0.1232292E+00
         -4   -1    0    0    0  501 -0.00000000000E+00  0.00000000000E+00  0.57536915564E+02  0.57550930076E+02  0.12700000000E+01 0. -1.
         21   -1    0    0  501  502  0.00000000000E+00 -0.00000000000E+00 -0.96550691802E+02  0.96550691802E+02  0.00000000000E+00 0. -1.
         25    2    1    2    0    0 -0.54018043036E+01  0.20567120339E+02 -0.26972078593E+02  0.12963120482E+03  0.12499828123E+03 0.  0.
    9000005    1    3    3    0    0  0.49348955300E+02  0.18836956616E+02 -0.47577856344E+02  0.71097135934E+02  0.10000000000E+01 0.  0.
    9000005    1    3    3    0    0 -0.54750759603E+02  0.17301637231E+01  0.20605777751E+02  0.58534068886E+02  0.10000000000E+01 0.  0.
         -4    1    1    2    0  502  0.54018043036E+01 -0.20567120339E+02 -0.12041697646E+02  0.24470417057E+02  0.12700000000E+01 0.  1.
<mgrwt>
<rscale>  1 0.12679415E+03</rscale>
<asrwt>0</asrwt>
<pdfrwt beam="2">  1       21 0.14853953E-01 0.12679415E+03</pdfrwt>
<pdfrwt beam="1">  1       -4 0.88535538E-02 0.12679415E+03</pdfrwt>
<totfact> 0.14819163E+05</totfact>
</mgrwt>
</event>
<event>
 6    3  0.3813045E-003  0.1331654E+03  0.7818608E-02  0.1222833E+00
         -4   -1    0    0    0  501 -0.00000000000E+00  0.00000000000E+00  0.53494153932E+02  0.53509227288E+02  0.12700000000E+01 0. -1.
         21   -1    0    0  501  502  0.00000000000E+00 -0.00000000000E+00 -0.16281060899E+03  0.16281060899E+03  0.00000000000E+00 0. -1.
         25    2    1    2    0    0  0.40415943451E+02 -0.21790760232E+02 -0.52215353693E+02  0.14303658858E+03  0.12499894717E+03 0.  0.
    9000005    1    3    3    0    0  0.33286313316E+02 -0.62036402956E+02 -0.69238658975E+02  0.98749611860E+02  0.10000000000E+01 0.  0.
    9000005    1    3    3    0    0  0.71296301344E+01  0.40245642724E+02  0.17023305282E+02  0.44286976718E+02  0.10000000000E+01 0.  0.
         -4    1    1    2    0  502 -0.40415943451E+02  0.21790760232E+02 -0.57101101369E+02  0.73283247704E+02  0.12700000000E+01 0.  1.
<mgrwt>
<rscale>  1 0.13316540E+03</rscale>
<asrwt>0</asrwt>
<pdfrwt beam="2">  1       21 0.25047785E-01 0.13316540E+03</pdfrwt>
<pdfrwt beam="1">  1       -4 0.82314105E-02 0.13316540E+03</pdfrwt>
<totfact> 0.64255524E+04</totfact>
</mgrwt>
</event>
<event>
 6    3  0.3813045E-003  0.1283127E+03  0.7818608E-02  0.1229981E+00
          4   -1    0    0  502    0 -0.00000000000E+00  0.00000000000E+00  0.12388413461E+03  0.12389064415E+03  0.12700000000E+01 0.  1.
         21   -1    0    0  501  502  0.00000000000E+00 -0.00000000000E+00 -0.54897230232E+02  0.54897230232E+02  0.00000000000E+00 0.  1.
         25    2    1    2    0    0 -0.27858456531E+02  0.79958758095E+01  0.75743101310E+02  0.14900051587E+03  0.12499643476E+03 0.  0.
    9000005    1    3    3    0    0 -0.12931239211E+01 -0.51736361102E+02  0.39721936733E+01  0.51914367493E+02  0.10000000000E+01 0.  0.
    9000005    1    3    3    0    0 -0.26565332610E+02  0.59732236912E+02  0.71770907637E+02  0.97086148375E+02  0.10000000000E+01 0.  0.
          4    1    1    2  501    0  0.27858456531E+02 -0.79958758095E+01 -0.67561969326E+01  0.29787358514E+02  0.12700000000E+01 0. -1.
<mgrwt>
<rscale>  1 0.12831265E+03</rscale>
<asrwt>0</asrwt>
<pdfrwt beam="2">  1       21 0.84457278E-02 0.12831265E+03</pdfrwt>
<pdfrwt beam="1">  1        4 0.19060728E-01 0.12831265E+03</pdfrwt>
<totfact> 0.10723207E+05</totfact>
</mgrwt>
</event>
<event>
 6    3  0.3813045E-003  0.1267996E+03  0.7818608E-02  0.1232283E+00
         -4   -1    0    0    0  501 -0.00000000000E+00  0.00000000000E+00  0.23339103424E+03  0.23339448958E+03  0.12700000000E+01 0.  1.
         21   -1    0    0  501  502  0.00000000000E+00 -0.00000000000E+00 -0.11616953768E+03  0.11616953768E+03  0.00000000000E+00 0. -1.
         25    2    1    2    0    0  0.16866800588E+02  0.12987209212E+02  0.21493528969E+03  0.24955025404E+03  0.12499997588E+03 0.  0.
    9000005    1    3    3    0    0  0.27538834478E+02 -0.29651278013E+02  0.12455656899E+02  0.42352438903E+02  0.10000000000E+01 0.  0.
    9000005    1    3    3    0    0 -0.10672033890E+02  0.42638487226E+02  0.20247963279E+03  0.20719781514E+03  0.10000000000E+01 0.  0.
         -4    1    1    2    0  502 -0.16866800588E+02 -0.12987209212E+02 -0.97713793135E+02  0.10001377322E+03  0.12700000000E+01 0. -1.
<mgrwt>
<rscale>  1 0.12679965E+03</rscale>
<asrwt>0</asrwt>
<pdfrwt beam="2">  1       21 0.17872237E-01 0.12679965E+03</pdfrwt>
<pdfrwt beam="1">  1       -4 0.35907113E-01 0.12679965E+03</pdfrwt>
<totfact> 0.87288714E+03</totfact>
</mgrwt>
</event>
<event>
 6    3  0.3813045E-003  0.1317791E+03  0.7818608E-02  0.1224840E+00
         -4   -1    0    0    0  501 -0.00000000000E+00  0.00000000000E+00  0.12333178051E+03  0.12333831920E+03  0.12700000000E+01 0. -1.
         21   -1    0    0  501  502  0.00000000000E+00 -0.00000000000E+00 -0.20400294178E+03  0.20400294178E+03  0.00000000000E+00 0.  1.
         25    2    1    2    0    0 -0.27898321578E+02  0.31022362271E+02  0.84787156835E+02  0.15669902929E+03  0.12500008203E+03 0.  0.
    9000005    1    3    3    0    0 -0.19206656035E+02  0.30906089434E+02  0.11740982292E+03  0.12292334407E+03  0.10000000000E+01 0.  0.
    9000005    1    3    3    0    0 -0.86916655432E+01  0.11627283723E+00 -0.32622666086E+02  0.33775685216E+02  0.10000000000E+01 0.  0.
         -4    1    1    2    0  502  0.27898321578E+02 -0.31022362271E+02 -0.16545831811E+03  0.17064223170E+03  0.12700000000E+01 0.  1.
<mgrwt>
<rscale>  1 0.13177907E+03</rscale>
<asrwt>0</asrwt>
<pdfrwt beam="2">  1       21 0.31385068E-01 0.13177907E+03</pdfrwt>
<pdfrwt beam="1">  1       -4 0.18974927E-01 0.13177907E+03</pdfrwt>
<totfact> 0.99214372E+03</totfact>
</mgrwt>
</event>
<event>
 6    3  0.3813045E-003  0.1275574E+03  0.7818608E-02  0.1231126E+00
         21   -1    0    0  501  502  0.00000000000E+00  0.00000000000E+00  0.80601719740E+02  0.80601719740E+02  0.00000000000E+00 0.  1.
          4   -1    0    0  502    0 -0.00000000000E+00 -0.00000000000E+00 -0.74460270442E+02  0.74471100262E+02  0.12700000000E+01 0.  1.
         25    2    1    2    0    0  0.77070672745E+01  0.24223059098E+02  0.14274526978E+02  0.12835362595E+03  0.12499894278E+03 0.  0.
    9000005    1    3    3    0    0 -0.36868458585E+02  0.14055515361E+02  0.54606938681E+02  0.67377730019E+02  0.10000000000E+01 0.  0.
    9000005    1    3    3    0    0  0.44575525860E+02  0.10167543737E+02 -0.40332411703E+02  0.60975895935E+02  0.10000000000E+01 0.  0.
          4    1    1    2  501    0 -0.77070672745E+01 -0.24223059098E+02 -0.81330776791E+01  0.26719194048E+02  0.12700000000E+01 0. -1.
<mgrwt>
<rscale>  1 0.12755740E+03</rscale>
<asrwt>0</asrwt>
<pdfrwt beam="1">  1       21 0.12400265E-01 0.12755740E+03</pdfrwt>
<pdfrwt beam="2">  1        4 0.11457029E-01 0.12755740E+03</pdfrwt>
<totfact> 0.13270799E+05</totfact>
</mgrwt>
</event>
<event>
 6    3  0.3813045E-003  0.1274669E+03  0.7818608E-02  0.1231263E+00
         21   -1    0    0  501  502  0.00000000000E+00  0.00000000000E+00  0.72567836613E+02  0.72567836613E+02  0.00000000000E+00 0. -1.
         -4   -1    0    0    0  501 -0.00000000000E+00 -0.00000000000E+00 -0.10056561277E+03  0.10057363160E+03  0.12700000000E+01 0. -1.
         25    2    1    2    0    0  0.24951769543E+02  0.62099977483E+00  0.97839951057E+01  0.12784189223E+03  0.12499938562E+03 0.  0.
    9000005    1    3    3    0    0  0.63582125806E+02  0.11117576205E+02  0.41514122587E+02  0.76750958280E+02  0.10000000000E+01 0.  0.
    9000005    1    3    3    0    0 -0.38630356263E+02 -0.10496576430E+02 -0.31730127482E+02  0.51090933949E+02  0.10000000000E+01 0.  0.
         -4    1    1    2    0  502 -0.24951769543E+02 -0.62099977483E+00 -0.37781771265E+02  0.45299575980E+02  0.12700000000E+01 0.  1.
<mgrwt>
<rscale>  1 0.12746695E+03</rscale>
<asrwt>0</asrwt>
<pdfrwt beam="1">  1       21 0.11164283E-01 0.12746695E+03</pdfrwt>
<pdfrwt beam="2">  1       -4 0.15473104E-01 0.12746695E+03</pdfrwt>
<totfact> 0.95154722E+04</totfact>
</mgrwt>
</event>
<event>
 6    3  0.3813045E-003  0.1336965E+03  0.7818608E-02  0.1222072E+00
          4   -1    0    0  502    0 -0.00000000000E+00  0.00000000000E+00  0.72845554453E+02  0.72856624295E+02  0.12700000000E+01 0.  1.
         21   -1    0    0  501  502  0.00000000000E+00 -0.00000000000E+00 -0.11259329372E+03  0.11259329372E+03  0.00000000000E+00 0.  1.
         25    2    1    2    0    0 -0.44820286025E+02  0.15505484080E+02 -0.29205583067E+02  0.13684921809E+03  0.12500185732E+03 0.  0.
    9000005    1    3    3    0    0 -0.79659112316E+02 -0.20607399458E+02 -0.27031196212E+02  0.86613651673E+02  0.10000000000E+01 0.  0.
    9000005    1    3    3    0    0  0.34838826291E+02  0.36112883537E+02 -0.21743868559E+01  0.50235566414E+02  0.10000000000E+01 0.  0.
          4    1    1    2  501    0  0.44820286025E+02 -0.15505484080E+02 -0.10542156196E+02  0.48600699925E+02  0.12700000000E+01 0. -1.
<mgrwt>
<rscale>  1 0.13369646E+03</rscale>
<asrwt>0</asrwt>
<pdfrwt beam="2">  1       21 0.17322045E-01 0.13369646E+03</pdfrwt>
<pdfrwt beam="1">  1        4 0.11208411E-01 0.13369646E+03</pdfrwt>
<totfact> 0.75960757E+04</totfact>
</mgrwt>
</event>
<event>
 6    3  0.3813045E-003  0.1278940E+03  0.7818608E-02  0.1230615E+00
          4   -1    0    0  502    0 -0.00000000000E+00  0.00000000000E+00  0.80050281777E+02  0.80060355436E+02  0.12700000000E+01 0. -1.
         21   -1    0    0  501  502  0.00000000000E+00 -0.00000000000E+00 -0.29654190086E+03  0.29654190086E+03  0.00000000000E+00 0.  1.
         25    2    1    2    0    0  0.21380437145E+02 -0.16561957514E+02  0.27745565751E+02  0.13086899260E+03  0.12500182110E+03 0.  0.
    9000005    1    3    3    0    0  0.34977278768E+02  0.41004594925E+02 -0.17189147993E+02  0.56579622159E+02  0.10000000000E+01 0.  0.
    9000005    1    3    3    0    0 -0.13596841623E+02 -0.57566552439E+02  0.44934713744E+02  0.74289370444E+02  0.10000000000E+01 0.  0.
          4    1    1    2  501    0 -0.21380437145E+02  0.16561957514E+02 -0.24423718483E+03  0.24573326369E+03  0.12700000000E+01 0.  1.
<mgrwt>
<rscale>  1 0.12789401E+03</rscale>
<asrwt>0</asrwt>
<pdfrwt beam="2">  1       21 0.45621831E-01 0.12789401E+03</pdfrwt>
<pdfrwt beam="1">  1        4 0.12316412E-01 0.12789401E+03</pdfrwt>
<totfact> 0.10025666E+04</totfact>
</mgrwt>
</event>
<event>
 6    3  0.3813045E-003  0.1284740E+03  0.7818608E-02  0.1229738E+00
         21   -1    0    0  501  502  0.00000000000E+00  0.00000000000E+00  0.34458131574E+02  0.34458131574E+02  0.00000000000E+00 0. -1.
          4   -1    0    0  502    0 -0.00000000000E+00 -0.00000000000E+00 -0.23893252697E+03  0.23893590216E+03  0.12700000000E+01 0.  1.
         25    2    1    2    0    0  0.13064706415E+02 -0.26643251991E+02 -0.20695470022E+03  0.24358943271E+03  0.12500005742E+03 0.  0.
    9000005    1    3    3    0    0  0.44553111648E+02  0.14102798701E+02 -0.22119011321E+02  0.51711887904E+02  0.10000000000E+01 0.  0.
    9000005    1    3    3    0    0 -0.31488405233E+02 -0.40746050692E+02 -0.18483568890E+03  0.19187754481E+03  0.10000000000E+01 0.  0.
          4    1    1    2  501    0 -0.13064706415E+02  0.26643251991E+02  0.24803048244E+01  0.29804601027E+02  0.12700000000E+01 0. -1.
<mgrwt>
<rscale>  1 0.12847398E+03</rscale>
<asrwt>0</asrwt>
<pdfrwt beam="1">  1       21 0.53012512E-02 0.12847398E+03</pdfrwt>
<pdfrwt beam="2">  1        4 0.36760909E-01 0.12847398E+03</pdfrwt>
<totfact> 0.69992738E+04</totfact>
</mgrwt>
</event>
<event>
 6    3  0.3813045E-003  0.1284510E+03  0.7818608E-02  0.1229772E+00
         21   -1    0    0  501  502  0.00000000000E+00  0.00000000000E+00  0.11050220694E+03  0.11050220694E+03  0.00000000000E+00 0.  1.
          4   -1    0    0  502    0 -0.00000000000E+00 -0.00000000000E+00 -0.83095469558E+02  0.83105174093E+02  0.12700000000E+01 0.  1.
         25    2    1    2    0    0 -0.16095669625E+02 -0.24513286712E+02 -0.27486598451E+02  0.13135898326E+03  0.12505877652E+03 0.  0.
    9000005    1    3    3    0    0 -0.35146780394E+02 -0.68372819092E+02 -0.14393224091E+01  0.76897400552E+02  0.10000000000E+01 0.  0.
    9000005    1    3    3    0    0  0.19051110770E+02  0.43859532380E+02 -0.26047276042E+02  0.54461582711E+02  0.10000000000E+01 0.  0.
          4    1    1    2  501    0  0.16095669625E+02  0.24513286712E+02  0.54893335837E+02  0.62248397773E+02  0.12700000000E+01 0. -1.
<mgrwt>
<rscale>  1 0.12845104E+03</rscale>
<asrwt>0</asrwt>
<pdfrwt beam="1">  1       21 0.17000340E-01 0.12845104E+03</pdfrwt>
<pdfrwt beam="2">  1        4 0.12785226E-01 0.12845104E+03</pdfrwt>
<totfact> 0.62447751E+04</totfact>
</mgrwt>
</event>
<event>
 6    3  0.3813045E-003  0.1312399E+03  0.7818608E-02  0.1225627E+00
         -4   -1    0    0    0  501 -0.00000000000E+00  0.00000000000E+00  0.21277817196E+03  0.21278196202E+03  0.12700000000E+01 0. -1.
         21   -1    0    0  501  502  0.00000000000E+00 -0.00000000000E+00 -0.16311868202E+03  0.16311868202E+03  0.00000000000E+00 0.  1.
         25    2    1    2    0    0 -0.27001961378E+02  0.29485153991E+02  0.18946802389E+03  0.23048221574E+03  0.12500175786E+03 0.  0.
    9000005    1    3    3    0    0  0.14605527060E+02 -0.42302607189E+02  0.93159535934E+02  0.10335633087E+03  0.10000000000E+01 0.  0.
    9000005    1    3    3    0    0 -0.41607488437E+02  0.71787761180E+02  0.96308487961E+02  0.12712588486E+03  0.10000000000E+01 0.  0.
         -4    1    1    2    0  502  0.27001961378E+02 -0.29485153991E+02 -0.13980853396E+03  0.14541842831E+03  0.12700000000E+01 0.  1.
<mgrwt>
<rscale>  1 0.13123993E+03</rscale>
<asrwt>0</asrwt>
<pdfrwt beam="2">  1       21 0.25095182E-01 0.13123993E+03</pdfrwt>
<pdfrwt beam="1">  1       -4 0.32735775E-01 0.13123993E+03</pdfrwt>
<totfact> 0.55624706E+03</totfact>
</mgrwt>
</event>
<event>
 6    3  0.3813045E-003  0.1277861E+03  0.7818608E-02  0.1230778E+00
         -4   -1    0    0    0  501 -0.00000000000E+00  0.00000000000E+00  0.41817179473E+03  0.41817372324E+03  0.12700000000E+01 0. -1.
         21   -1    0    0  501  502  0.00000000000E+00 -0.00000000000E+00 -0.21654214430E+02  0.21654214430E+02  0.00000000000E+00 0.  1.
         25    2    1    2    0    0 -0.26098870829E+02 -0.48444936809E+01  0.39271491328E+03  0.41298220516E+03  0.12499871393E+03 0.  0.
    9000005    1    3    3    0    0  0.16391757707E+02  0.53226005776E+02  0.18032526440E+03  0.18873234591E+03  0.10000000000E+01 0.  0.
    9000005    1    3    3    0    0 -0.42490628537E+02 -0.58070499457E+02  0.21238964889E+03  0.22424985925E+03  0.10000000000E+01 0.  0.
         -4    1    1    2    0  502  0.26098870829E+02  0.48444936809E+01  0.38026670169E+01  0.26845732511E+02  0.12700000000E+01 0.  1.
<mgrwt>
<rscale>  1 0.12778614E+03</rscale>
<asrwt>0</asrwt>
<pdfrwt beam="2">  1       21 0.33314179E-02 0.12778614E+03</pdfrwt>
<pdfrwt beam="1">  1       -4 0.64337130E-01 0.12778614E+03</pdfrwt>
<totfact> 0.48730925E+04</totfact>
</mgrwt>
</event>
<event>
 6    3  0.3813045E-003  0.1311415E+03  0.7818608E-02  0.1225772E+00
         21   -1    0    0  501  502  0.00000000000E+00  0.00000000000E+00  0.13260544500E+02  0.13260544500E+02  0.00000000000E+00 0.  1.
         -4   -1    0    0    0  501 -0.00000000000E+00 -0.00000000000E+00 -0.58138642223E+03  0.58138780934E+03  0.12700000000E+01 0. -1.
         25    2    1    2    0    0  0.30465965348E+02  0.25381772962E+02 -0.48689198432E+03  0.50424388613E+03  0.12500273143E+03 0.  0.
    9000005    1    3    3    0    0  0.24992849347E+02  0.76104739479E+02 -0.29538540556E+03  0.30605573301E+03  0.10000000000E+01 0.  0.
    9000005    1    3    3    0    0  0.54731160016E+01 -0.50722966517E+02 -0.19150657876E+03  0.19818815312E+03  0.10000000000E+01 0.  0.
         -4    1    1    2    0  502 -0.30465965348E+02 -0.25381772962E+02 -0.81233893407E+02  0.90404467707E+02  0.12700000000E+01 0.  1.
<mgrwt>
<rscale>  1 0.13114150E+03</rscale>
<asrwt>0</asrwt>
<pdfrwt beam="1">  1       21 0.20400839E-02 0.13114150E+03</pdfrwt>
<pdfrwt beam="2">  1       -4 0.89448843E-01 0.13114150E+03</pdfrwt>
<totfact> 0.52916656E+04</totfact>
</mgrwt>
</event>
<event>
 6    3  0.3813045E-003  0.1365722E+03  0.7818608E-02  0.1218017E+00
         21   -1    0    0  501  502  0.00000000000E+00  0.00000000000E+00  0.44172583108E+02  0.44172583108E+02  0.00000000000E+00 0.  1.
          4   -1    0    0  502    0 -0.00000000000E+00 -0.00000000000E+00 -0.23313515763E+03  0.23313861675E+03  0.12700000000E+01 0.  1.
         25    2    1    2    0    0  0.54938194039E+02 -0.30310894114E+01 -0.17219018050E+03  0.21977583015E+03  0.12499825834E+03 0.  0.
    9000005    1    3    3    0    0  0.85588019003E+02 -0.14760744944E+02 -0.16454826476E+03  0.18606536493E+03  0.10000000000E+01 0.  0.
    9000005    1    3    3    0    0 -0.30649824964E+02  0.11729655533E+02 -0.76419157339E+01  0.33710465220E+02  0.10000000000E+01 0.  0.
          4    1    1    2  501    0 -0.54938194039E+02  0.30310894114E+01 -0.16772394022E+02  0.57535369717E+02  0.12700000000E+01 0. -1.
<mgrwt>
<rscale>  1 0.13657217E+03</rscale>
<asrwt>0</asrwt>
<pdfrwt beam="1">  1       21 0.67957820E-02 0.13657217E+03</pdfrwt>
<pdfrwt beam="2">  1        4 0.35868618E-01 0.13657217E+03</pdfrwt>
<totfact> 0.48547940E+04</totfact>
</mgrwt>
</event>
<event>
 6    3  0.3813045E-003  0.1266855E+03  0.7818608E-02  0.1232458E+00
          4   -1    0    0  502    0 -0.00000000000E+00  0.00000000000E+00  0.22581939520E+03  0.22582296639E+03  0.12700000000E+01 0.  1.
         21   -1    0    0  501  502  0.00000000000E+00 -0.00000000000E+00 -0.25124673397E+02  0.25124673397E+02  0.00000000000E+00 0.  1.
         25    2    1    2    0    0  0.19901721941E+02 -0.53083254274E+01  0.18805985533E+03  0.22675033403E+03  0.12499979176E+03 0.  0.
    9000005    1    3    3    0    0  0.36245337754E+02  0.48003894431E+02  0.51320765498E+02  0.79075403007E+02  0.10000000000E+01 0.  0.
    9000005    1    3    3    0    0 -0.16343615814E+02 -0.53312219858E+02  0.13673908984E+03  0.14767493102E+03  0.10000000000E+01 0.  0.
          4    1    1    2  501    0 -0.19901721941E+02  0.53083254274E+01  0.12634866471E+02  0.24197305755E+02  0.12700000000E+01 0. -1.
<mgrwt>
<rscale>  1 0.12668546E+03</rscale>
<asrwt>0</asrwt>
<pdfrwt beam="2">  1       21 0.38653345E-02 0.12668546E+03</pdfrwt>
<pdfrwt beam="1">  1        4 0.34744188E-01 0.12668546E+03</pdfrwt>
<totfact> 0.13205480E+05</totfact>
</mgrwt>
</event>
<event>
 6    3  0.3813045E-003  0.1266596E+03  0.7818608E-02  0.1232498E+00
         21   -1    0    0  501  502  0.00000000000E+00  0.00000000000E+00  0.19574514821E+02  0.19574514821E+02  0.00000000000E+00 0.  1.
         -4   -1    0    0    0  501 -0.00000000000E+00 -0.00000000000E+00 -0.61733051180E+03  0.61733181815E+03  0.12700000000E+01 0. -1.
         25    2    1    2    0    0 -0.20114186483E+02  0.37332538869E+01 -0.60266387470E+03  0.61582985684E+03  0.12499659605E+03 0.  0.
    9000005    1    3    3    0    0 -0.20834806678E+02 -0.10498319370E+02 -0.60099426831E+03  0.60144776533E+03  0.10000000000E+01 0.  0.
    9000005    1    3    3    0    0  0.72062019492E+00  0.14231573257E+02 -0.16696063964E+01  0.14382091515E+02  0.10000000000E+01 0.  0.
         -4    1    1    2    0  502  0.20114186483E+02 -0.37332538869E+01  0.49078777201E+01  0.21076476133E+02  0.12700000000E+01 0.  1.
<mgrwt>
<rscale>  1 0.12665965E+03</rscale>
<asrwt>0</asrwt>
<pdfrwt beam="1">  1       21 0.30114644E-02 0.12665965E+03</pdfrwt>
<pdfrwt beam="2">  1       -4 0.94977175E-01 0.12665965E+03</pdfrwt>
<totfact> 0.24400436E+04</totfact>
</mgrwt>
</event>
<event>
 6    3  0.3813045E-003  0.1327815E+03  0.7818608E-02  0.1223386E+00
         21   -1    0    0  501  502  0.00000000000E+00  0.00000000000E+00  0.47906646656E+02  0.47906646656E+02  0.00000000000E+00 0.  1.
          4   -1    0    0  502    0 -0.00000000000E+00 -0.00000000000E+00 -0.17095279132E+03  0.17095750864E+03  0.12700000000E+01 0.  1.
         25    2    1    2    0    0 -0.10047517536E+02 -0.43643527090E+02 -0.10935492421E+03  0.17201575636E+03  0.12500084368E+03 0.  0.
    9000005    1    3    3    0    0 -0.57045688947E+01  0.27337088302E+02  0.12744847186E+02  0.30713020576E+02  0.10000000000E+01 0.  0.
    9000005    1    3    3    0    0 -0.43429486410E+01 -0.70980615393E+02 -0.12209977140E+03  0.14130273578E+03  0.10000000000E+01 0.  0.
          4    1    1    2  501    0  0.10047517536E+02  0.43643527090E+02 -0.13691220455E+02  0.46848398938E+02  0.12700000000E+01 0. -1.
<mgrwt>
<rscale>  1 0.13278148E+03</rscale>
<asrwt>0</asrwt>
<pdfrwt beam="1">  1       21 0.73702534E-02 0.13278148E+03</pdfrwt>
<pdfrwt beam="2">  1        4 0.26302087E-01 0.13278148E+03</pdfrwt>
<totfact> 0.75802376E+04</totfact>
</mgrwt>
</event>
<event>
 6    3  0.3813045E-003  0.1279522E+03  0.7818608E-02  0.1230526E+00
         21   -1    0    0  501  502  0.00000000000E+00  0.00000000000E+00  0.18293715699E+03  0.18293715699E+03  0.00000000000E+00 0.  1.
         -4   -1    0    0    0  501 -0.00000000000E+00 -0.00000000000E+00 -0.35533549419E+02  0.35556237629E+02  0.12700000000E+01 0.  1.
         25    2    1    2    0    0  0.26211598824E+02 -0.76895647722E+01  0.94930021286E+02  0.15932188562E+03  0.12500230789E+03 0.  0.
    9000005    1    3    3    0    0  0.69087048660E+02 -0.25483643900E+02  0.83825913983E+02  0.11158055500E+03  0.10000000000E+01 0.  0.
    9000005    1    3    3    0    0 -0.42875449836E+02  0.17794079127E+02  0.11104107303E+02  0.47741330623E+02  0.10000000000E+01 0.  0.
         -4    1    1    2    0  502 -0.26211598824E+02  0.76895647722E+01  0.52473586290E+02  0.59171509001E+02  0.12700000000E+01 0. -1.
<mgrwt>
<rscale>  1 0.12795216E+03</rscale>
<asrwt>0</asrwt>
<pdfrwt beam="1">  1       21 0.28144177E-01 0.12795216E+03</pdfrwt>
<pdfrwt beam="2">  1       -4 0.54687844E-02 0.12795216E+03</pdfrwt>
<totfact> 0.99974018E+04</totfact>
</mgrwt>
</event>
<event>
 6    3  0.3813045E-003  0.1275045E+03  0.7818608E-02  0.1231206E+00
         21   -1    0    0  501  502  0.00000000000E+00  0.00000000000E+00  0.28503511457E+03  0.28503511457E+03  0.00000000000E+00 0.  1.
          4   -1    0    0  502    0 -0.00000000000E+00 -0.00000000000E+00 -0.30737924383E+02  0.30764149515E+02  0.12700000000E+01 0.  1.
         25    2    1    2    0    0  0.23469875630E+02 -0.89302778636E+01  0.10723623241E+03  0.16660434752E+03  0.12500725638E+03 0.  0.
    9000005    1    3    3    0    0  0.36760096230E+02  0.39454576006E+02  0.68450457512E+01  0.54367480114E+02  0.10000000000E+01 0.  0.
    9000005    1    3    3    0    0 -0.13290220600E+02 -0.48384853869E+02  0.10039118666E+03  0.11223686741E+03  0.10000000000E+01 0.  0.
          4    1    1    2  501    0 -0.23469875630E+02  0.89302778636E+01  0.14706095778E+03  0.14919491656E+03  0.12700000000E+01 0. -1.
<mgrwt>
<rscale>  1 0.12750451E+03</rscale>
<asrwt>0</asrwt>
<pdfrwt beam="1">  1       21 0.43851554E-01 0.12750451E+03</pdfrwt>
<pdfrwt beam="2">  1        4 0.47311466E-02 0.12750451E+03</pdfrwt>
<totfact> 0.52737133E+04</totfact>
</mgrwt>
</event>
<event>
 6    3  0.3813045E-003  0.1841452E+03  0.7818608E-02  0.1163851E+00
          4   -1    0    0  502    0 -0.00000000000E+00  0.00000000000E+00  0.20750479309E+03  0.20750867947E+03  0.12700000000E+01 0.  1.
         21   -1    0    0  501  502  0.00000000000E+00 -0.00000000000E+00 -0.78409353063E+03  0.78409353063E+03  0.00000000000E+00 0. -1.
         25    2    1    2    0    0  0.11702702611E+03  0.67742719447E+02  0.15924208561E+03  0.24344914147E+03  0.12500016709E+03 0.  0.
    9000005    1    3    3    0    0  0.11181108401E+03  0.95117477778E+02  0.15780294129E+03  0.21552684604E+03  0.10000000000E+01 0.  0.
    9000005    1    3    3    0    0  0.52159421040E+01 -0.27374758331E+02  0.14391443290E+01  0.27922295431E+02  0.10000000000E+01 0.  0.
          4    1    1    2  501    0 -0.11702702611E+03 -0.67742719447E+02 -0.73583082316E+03  0.74815306862E+03  0.12700000000E+01 0. -1.
<mgrwt>
<rscale>  1 0.18414517E+03</rscale>
<asrwt>0</asrwt>
<pdfrwt beam="2">  1       21 0.12062977E+00 0.18414517E+03</pdfrwt>
<pdfrwt beam="1">  1        4 0.31924193E-01 0.18414517E+03</pdfrwt>
<totfact> 0.20733690E+02</totfact>
</mgrwt>
</event>
<event>
 6    3  0.3813045E-003  0.1333542E+03  0.7818608E-02  0.1222562E+00
          4   -1    0    0  502    0 -0.00000000000E+00  0.00000000000E+00  0.11713808985E+03  0.11714497425E+03  0.12700000000E+01 0. -1.
         21   -1    0    0  501  502  0.00000000000E+00 -0.00000000000E+00 -0.77884104263E+02  0.77884104263E+02  0.00000000000E+00 0. -1.
         25    2    1    2    0    0 -0.54043887923E+01  0.46143906757E+02  0.57337495705E+02  0.14515830764E+03  0.12499951326E+03 0.  0.
    9000005    1    3    3    0    0 -0.62924422754E+02  0.17970496135E+02  0.11647468094E+02  0.66476200427E+02  0.10000000000E+01 0.  0.
    9000005    1    3    3    0    0  0.57520033962E+02  0.28173410622E+02  0.45690027611E+02  0.78682107217E+02  0.10000000000E+01 0.  0.
          4    1    1    2  501    0  0.54043887923E+01 -0.46143906757E+02 -0.18083510122E+02  0.49870770872E+02  0.12700000000E+01 0.  1.
<mgrwt>
<rscale>  1 0.13335421E+03</rscale>
<asrwt>0</asrwt>
<pdfrwt beam="2">  1       21 0.11982170E-01 0.13335421E+03</pdfrwt>
<pdfrwt beam="1">  1        4 0.18022571E-01 0.13335421E+03</pdfrwt>
<totfact> 0.64570099E+04</totfact>
</mgrwt>
</event>
<event>
 6    3  0.3813045E-003  0.1270203E+03  0.7818608E-02  0.1231945E+00
         21   -1    0    0  501  502  0.00000000000E+00  0.00000000000E+00  0.50634352653E+03  0.50634352653E+03  0.00000000000E+00 0.  1.
         -4   -1    0    0    0  501 -0.00000000000E+00 -0.00000000000E+00 -0.70775452185E+02  0.70786845755E+02  0.12700000000E+01 0. -1.
         25    2    1    2    0    0 -0.78084830691E+01  0.21174663232E+02 -0.13280752252E+02  0.12771272598E+03  0.12499929290E+03 0.  0.
    9000005    1    3    3    0    0 -0.55920112514E+02  0.31349088188E+02 -0.36002389476E+02  0.73532281086E+02  0.10000000000E+01 0.  0.
    9000005    1    3    3    0    0  0.48111629444E+02 -0.10174424956E+02  0.22721637224E+02  0.54180444896E+02  0.10000000000E+01 0.  0.
         -4    1    1    2    0  502  0.78084830691E+01 -0.21174663232E+02  0.44884882660E+03  0.44941764630E+03  0.12700000000E+01 0.  1.
<mgrwt>
<rscale>  1 0.12702032E+03</rscale>
<asrwt>0</asrwt>
<pdfrwt beam="1">  1       21 0.77899002E-01 0.12702032E+03</pdfrwt>
<pdfrwt beam="2">  1       -4 0.10889530E-01 0.12702032E+03</pdfrwt>
<totfact> 0.39688179E+03</totfact>
</mgrwt>
</event>
<event>
 6    3  0.3813045E-003  0.1305753E+03  0.7818608E-02  0.1226605E+00
         -4   -1    0    0    0  501 -0.00000000000E+00  0.00000000000E+00  0.10628901922E+03  0.10629660628E+03  0.12700000000E+01 0. -1.
         21   -1    0    0  501  502  0.00000000000E+00 -0.00000000000E+00 -0.72047485861E+02  0.72047485861E+02  0.00000000000E+00 0.  1.
         25    2    1    2    0    0  0.19201703268E+01 -0.37691859146E+02  0.46552952815E+02  0.13862574312E+03  0.12500222374E+03 0.  0.
    9000005    1    3    3    0    0  0.46789770106E+02 -0.41694015881E+02 -0.12934336334E+02  0.63999770338E+02  0.10000000000E+01 0.  0.
    9000005    1    3    3    0    0 -0.44869599779E+02  0.40021567347E+01  0.59487289149E+02  0.74625972779E+02  0.10000000000E+01 0.  0.
         -4    1    1    2    0  502 -0.19201703268E+01  0.37691859146E+02 -0.12311419459E+02  0.39718349022E+02  0.12700000000E+01 0.  1.
<mgrwt>
<rscale>  1 0.13057534E+03</rscale>
<asrwt>0</asrwt>
<pdfrwt beam="2">  1       21 0.11084229E-01 0.13057534E+03</pdfrwt>
<pdfrwt beam="1">  1       -4 0.16353601E-01 0.13057534E+03</pdfrwt>
<totfact> 0.87749148E+04</totfact>
</mgrwt>
</event>
<event>
 6    3  0.3813045E-003  0.1326351E+03  0.7818608E-02  0.1223597E+00
          4   -1    0    0  502    0 -0.00000000000E+00  0.00000000000E+00  0.13156536956E+03  0.13157149907E+03  0.12700000000E+01 0.  1.
         21   -1    0    0  501  502  0.00000000000E+00 -0.00000000000E+00 -0.79951320990E+02  0.79951320990E+02  0.00000000000E+00 0.  1.
         25    2    1    2    0    0  0.24518554590E+02 -0.36977709914E+02 -0.12849544393E+02  0.13325610768E+03  0.12499427544E+03 0.  0.
    9000005    1    3    3    0    0  0.42951834576E+01 -0.76902802485E+02 -0.33448806015E+02  0.83978046267E+02  0.10000000000E+01 0.  0.
    9000005    1    3    3    0    0  0.20223371132E+02  0.39925092571E+02  0.20599261622E+02  0.49278061408E+02  0.10000000000E+01 0.  0.
          4    1    1    2  501    0 -0.24518554590E+02  0.36977709914E+02  0.64463592961E+02  0.78266712382E+02  0.12700000000E+01 0. -1.
<mgrwt>
<rscale>  1 0.13263514E+03</rscale>
<asrwt>0</asrwt>
<pdfrwt beam="2">  1       21 0.12300203E-01 0.13263514E+03</pdfrwt>
<pdfrwt beam="1">  1        4 0.20242073E-01 0.13263514E+03</pdfrwt>
<totfact> 0.50040402E+04</totfact>
</mgrwt>
</event>
<event>
 6    3  0.3813045E-003  0.1451997E+03  0.7818608E-02  0.1206499E+00
          4   -1    0    0  502    0 -0.00000000000E+00  0.00000000000E+00  0.43695704489E+02  0.43714156640E+02  0.12700000000E+01 0.  1.
         21   -1    0    0  501  502  0.00000000000E+00 -0.00000000000E+00 -0.98001637915E+03  0.98001637915E+03  0.00000000000E+00 0. -1.
         25    2    1    2    0    0 -0.67946223962E+02  0.29003848876E+02 -0.83062641663E+02  0.16727925499E+03  0.12500013645E+03 0.  0.
    9000005    1    3    3    0    0  0.22535007923E+02 -0.50004433263E+01 -0.64942973812E+02  0.68930551014E+02  0.10000000000E+01 0.  0.
    9000005    1    3    3    0    0 -0.90481231886E+02  0.34004292202E+02 -0.18119667851E+02  0.98348703981E+02  0.10000000000E+01 0.  0.
          4    1    1    2  501    0  0.67946223962E+02 -0.29003848876E+02 -0.85325803299E+03  0.85645128079E+03  0.12700000000E+01 0. -1.
<mgrwt>
<rscale>  1 0.14519968E+03</rscale>
<asrwt>0</asrwt>
<pdfrwt beam="2">  1       21 0.15077174E+00 0.14519968E+03</pdfrwt>
<pdfrwt beam="1">  1        4 0.67238992E-02 0.14519968E+03</pdfrwt>
<totfact> 0.18293760E+03</totfact>
</mgrwt>
</event>
<event>
 6    3  0.3813045E-003  0.1271183E+03  0.7818608E-02  0.1231795E+00
         -4   -1    0    0    0  501 -0.00000000000E+00  0.00000000000E+00  0.29419390400E+02  0.29446789833E+02  0.12700000000E+01 0. -1.
         21   -1    0    0  501  502  0.00000000000E+00 -0.00000000000E+00 -0.19272142296E+03  0.19272142296E+03  0.00000000000E+00 0. -1.
         25    2    1    2    0    0 -0.23132398915E+02 -0.38096685209E+00 -0.14332097792E+03  0.19157232320E+03  0.12499519707E+03 0.  0.
    9000005    1    3    3    0    0 -0.59843967218E+02 -0.33375249020E+02 -0.11708259059E+03  0.13566333580E+03  0.10000000000E+01 0.  0.
    9000005    1    3    3    0    0  0.36711568303E+02  0.32994282168E+02 -0.26238387324E+02  0.55908987403E+02  0.10000000000E+01 0.  0.
         -4    1    1    2    0  502  0.23132398915E+02  0.38096685209E+00 -0.19981054642E+02  0.30595889592E+02  0.12700000000E+01 0.  1.
<mgrwt>
<rscale>  1 0.12711826E+03</rscale>
<asrwt>0</asrwt>
<pdfrwt beam="2">  1       21 0.29649451E-01 0.12711826E+03</pdfrwt>
<pdfrwt beam="1">  1       -4 0.45284895E-02 0.12711826E+03</pdfrwt>
<totfact> 0.12234422E+05</totfact>
</mgrwt>
</event>
<event>
 6    3  0.3813045E-003  0.1377701E+03  0.7818608E-02  0.1216361E+00
          4   -1    0    0  502    0 -0.00000000000E+00  0.00000000000E+00  0.12103998318E+03  0.12104664567E+03  0.12700000000E+01 0.  1.
         21   -1    0    0  501  502  0.00000000000E+00 -0.00000000000E+00 -0.10472754195E+03  0.10472754195E+03  0.00000000000E+00 0. -1.
         25    2    1    2    0    0  0.34681486932E+02  0.46405529283E+02  0.62873159478E+02  0.15143851606E+03  0.12499724509E+03 0.  0.
    9000005    1    3    3    0    0  0.52672575831E+02  0.47092473619E+02 -0.14378789410E+02  0.72109991687E+02  0.10000000000E+01 0.  0.
    9000005    1    3    3    0    0 -0.17991088899E+02 -0.68694433612E+00  0.77251948888E+02  0.79328524373E+02  0.10000000000E+01 0.  0.
          4    1    1    2  501    0 -0.34681486932E+02 -0.46405529283E+02 -0.46560718249E+02  0.74335671569E+02  0.12700000000E+01 0. -1.
<mgrwt>
<rscale>  1 0.13777006E+03</rscale>
<asrwt>0</asrwt>
<pdfrwt beam="2">  1       21 0.16111930E-01 0.13777006E+03</pdfrwt>
<pdfrwt beam="1">  1        4 0.18622641E-01 0.13777006E+03</pdfrwt>
<totfact> 0.35939267E+04</totfact>
</mgrwt>
</event>
<event>
 6    3  0.3813045E-003  0.1277456E+03  0.7818608E-02  0.1230840E+00
         21   -1    0    0  501  502  0.00000000000E+00  0.00000000000E+00  0.77896094143E+02  0.77896094143E+02  0.00000000000E+00 0. -1.
         -4   -1    0    0    0  501 -0.00000000000E+00 -0.00000000000E+00 -0.12941776800E+03  0.12942399922E+03  0.12700000000E+01 0. -1.
         25    2    1    2    0    0  0.11461975281E+02 -0.23735934014E+02 -0.93102108118E+02  0.15807258730E+03  0.12499667547E+03 0.  0.
    9000005    1    3    3    0    0  0.49652340088E+02 -0.54450919163E+02 -0.33645229745E+02  0.81013942988E+02  0.10000000000E+01 0.  0.
    9000005    1    3    3    0    0 -0.38190364807E+02  0.30714985149E+02 -0.59456878373E+02  0.77058644309E+02  0.10000000000E+01 0.  0.
         -4    1    1    2    0  502 -0.11461975281E+02  0.23735934014E+02  0.41580434258E+02  0.49247506068E+02  0.12700000000E+01 0.  1.
<mgrwt>
<rscale>  1 0.12774561E+03</rscale>
<asrwt>0</asrwt>
<pdfrwt beam="1">  1       21 0.11984015E-01 0.12774561E+03</pdfrwt>
<pdfrwt beam="2">  1       -4 0.19911701E-01 0.12774561E+03</pdfrwt>
<totfact> 0.53722037E+04</totfact>
</mgrwt>
</event>
<event>
 6    3  0.3813045E-003  0.1313664E+03  0.7818608E-02  0.1225442E+00
         21   -1    0    0  501  502  0.00000000000E+00  0.00000000000E+00  0.67105438299E+02  0.67105438299E+02  0.00000000000E+00 0. -1.
         -4   -1    0    0    0  501 -0.00000000000E+00 -0.00000000000E+00 -0.11321976328E+03  0.11322688593E+03  0.12700000000E+01 0. -1.
         25    2    1    2    0    0 -0.38883605978E+02  0.11104763459E+02 -0.47920578877E+02  0.13983385465E+03  0.12498749714E+03 0.  0.
    9000005    1    3    3    0    0 -0.18445552395E+02  0.29868276048E+02 -0.85892640799E+02  0.92794924757E+02  0.10000000000E+01 0.  0.
    9000005    1    3    3    0    0 -0.20438053583E+02 -0.18763512590E+02  0.37972061922E+02  0.47038929894E+02  0.10000000000E+01 0.  0.
         -4    1    1    2    0  502  0.38883605978E+02 -0.11104763459E+02  0.18062538903E+01  0.40498469582E+02  0.12700000000E+01 0.  1.
<mgrwt>
<rscale>  1 0.13136638E+03</rscale>
<asrwt>0</asrwt>
<pdfrwt beam="1">  1       21 0.10323914E-01 0.13136638E+03</pdfrwt>
<pdfrwt beam="2">  1       -4 0.17419897E-01 0.13136638E+03</pdfrwt>
<totfact> 0.89010693E+04</totfact>
</mgrwt>
</event>
<event>
 6    3  0.3813045E-003  0.1279505E+03  0.7818608E-02  0.1230529E+00
         21   -1    0    0  501  502  0.00000000000E+00  0.00000000000E+00  0.13704940423E+02  0.13704940423E+02  0.00000000000E+00 0. -1.
          4   -1    0    0  502    0 -0.00000000000E+00 -0.00000000000E+00 -0.64859310534E+03  0.64859434873E+03  0.12700000000E+01 0.  1.
         25    2    1    2    0    0 -0.46889818708E+00  0.27309185526E+02 -0.61580147485E+03  0.62895373296E+03  0.12500132119E+03 0.  0.
    9000005    1    3    3    0    0 -0.39100514268E+02 -0.36366771791E+02 -0.24789229245E+03  0.25358032448E+03  0.10000000000E+01 0.  0.
    9000005    1    3    3    0    0  0.38631616081E+02  0.63675957316E+02 -0.36790918240E+03  0.37537340848E+03  0.10000000000E+01 0.  0.
          4    1    1    2  501    0  0.46889818708E+00 -0.27309185526E+02 -0.19086690069E+02  0.33345556187E+02  0.12700000000E+01 0. -1.
<mgrwt>
<rscale>  1 0.12795054E+03</rscale>
<asrwt>0</asrwt>
<pdfrwt beam="1">  1       21 0.21084524E-02 0.12795054E+03</pdfrwt>
<pdfrwt beam="2">  1        4 0.99788175E-01 0.12795054E+03</pdfrwt>
<totfact> 0.38971368E+04</totfact>
</mgrwt>
</event>
<event>
 6    3  0.3813045E-003  0.1288495E+03  0.7818608E-02  0.1229173E+00
         21   -1    0    0  501  502  0.00000000000E+00  0.00000000000E+00  0.14513588163E+02  0.14513588163E+02  0.00000000000E+00 0. -1.
          4   -1    0    0  502    0 -0.00000000000E+00 -0.00000000000E+00 -0.44219593840E+03  0.44219776213E+03  0.12700000000E+01 0. -1.
         25    2    1    2    0    0 -0.98739123804E+01  0.29663079073E+02 -0.35002882984E+03  0.37299113449E+03  0.12499924912E+03 0.  0.
    9000005    1    3    3    0    0 -0.88394250787E+01  0.28681955690E+02 -0.81611726123E+01  0.31119041700E+02  0.10000000000E+01 0.  0.
    9000005    1    3    3    0    0 -0.10344873017E+01  0.98112338317E+00 -0.34186765723E+03  0.34187209279E+03  0.10000000000E+01 0.  0.
          4    1    1    2  501    0  0.98739123804E+01 -0.29663079073E+02 -0.77653520391E+02  0.83720215808E+02  0.12700000000E+01 0.  1.
<mgrwt>
<rscale>  1 0.12884954E+03</rscale>
<asrwt>0</asrwt>
<pdfrwt beam="1">  1       21 0.22328600E-02 0.12884954E+03</pdfrwt>
<pdfrwt beam="2">  1        4 0.68034549E-01 0.12884954E+03</pdfrwt>
<totfact> 0.83246618E+04</totfact>
</mgrwt>
</event>
<event>
 6    3  0.3813045E-003  0.1276170E+03  0.7818608E-02  0.1231035E+00
         -4   -1    0    0    0  501 -0.00000000000E+00  0.00000000000E+00  0.43877264913E+03  0.43877448710E+03  0.12700000000E+01 0.  1.
         21   -1    0    0  501  502  0.00000000000E+00 -0.00000000000E+00 -0.13627736236E+02  0.13627736236E+02  0.00000000000E+00 0.  1.
         25    2    1    2    0    0  0.63001022081E+01  0.24930389477E+02  0.37341276930E+03  0.39461776877E+03  0.12499948620E+03 0.  0.
    9000005    1    3    3    0    0  0.26623644183E+01 -0.37961272313E+02  0.39672003565E+02  0.54981944734E+02  0.10000000000E+01 0.  0.
    9000005    1    3    3    0    0  0.36377377898E+01  0.62891661790E+02  0.33374076573E+03  0.33963582404E+03  0.10000000000E+01 0.  0.
         -4    1    1    2    0  502 -0.63001022081E+01 -0.24930389477E+02  0.51732143601E+02  0.57784454560E+02  0.12700000000E+01 0. -1.
<mgrwt>
<rscale>  1 0.12761695E+03</rscale>
<asrwt>0</asrwt>
<pdfrwt beam="2">  1       21 0.20965751E-02 0.12761695E+03</pdfrwt>
<pdfrwt beam="1">  1       -4 0.67508167E-01 0.12761695E+03</pdfrwt>
<totfact> 0.93591567E+04</totfact>
</mgrwt>
</event>
<event>
 6    3  0.3813045E-003  0.1273498E+03  0.7818608E-02  0.1231442E+00
         21   -1    0    0  501  502  0.00000000000E+00  0.00000000000E+00  0.35178804710E+02  0.35178804710E+02  0.00000000000E+00 0.  1.
          4   -1    0    0  502    0 -0.00000000000E+00 -0.00000000000E+00 -0.28328075233E+03  0.28328359914E+03  0.12700000000E+01 0. -1.
         25    2    1    2    0    0  0.24310611676E+02 -0.12997624812E+01 -0.26134306645E+03  0.29072010131E+03  0.12500113480E+03 0.  0.
    9000005    1    3    3    0    0  0.12062613352E+02 -0.56432537163E+02 -0.19612607475E+03  0.20444210693E+03  0.10000000000E+01 0.  0.
    9000005    1    3    3    0    0  0.12247998324E+02  0.55132774682E+02 -0.65216991702E+02  0.86277994377E+02  0.10000000000E+01 0.  0.
          4    1    1    2  501    0 -0.24310611676E+02  0.12997624812E+01  0.13241118825E+02  0.27742302542E+02  0.12700000000E+01 0.  1.
<mgrwt>
<rscale>  1 0.12734983E+03</rscale>
<asrwt>0</asrwt>
<pdfrwt beam="1">  1       21 0.54121238E-02 0.12734983E+03</pdfrwt>
<pdfrwt beam="2">  1        4 0.43583636E-01 0.12734983E+03</pdfrwt>
<totfact> 0.48311711E+04</totfact>
</mgrwt>
</event>
<event>
 6    3  0.3813045E-003  0.1273489E+03  0.7818608E-02  0.1231443E+00
         -4   -1    0    0    0  501 -0.00000000000E+00  0.00000000000E+00  0.13666807595E+03  0.13667397661E+03  0.12700000000E+01 0.  1.
         21   -1    0    0  501  502  0.00000000000E+00 -0.00000000000E+00 -0.63469203786E+02  0.63469203786E+02  0.00000000000E+00 0.  1.
         25    2    1    2    0    0 -0.16616130005E+02  0.17769573425E+02  0.10146498108E+03  0.16282777702E+03  0.12500355622E+03 0.  0.
    9000005    1    3    3    0    0 -0.69207673379E+01  0.30428440669E+02  0.12805555679E+03  0.13180672459E+03  0.10000000000E+01 0.  0.
    9000005    1    3    3    0    0 -0.96953626667E+01 -0.12658867245E+02 -0.26590575713E+02  0.31021052431E+02  0.10000000000E+01 0.  0.
         -4    1    1    2    0  502  0.16616130005E+02 -0.17769573425E+02 -0.28266108916E+02  0.37315403378E+02  0.12700000000E+01 0. -1.
<mgrwt>
<rscale>  1 0.12734890E+03</rscale>
<asrwt>0</asrwt>
<pdfrwt beam="2">  1       21 0.97644930E-02 0.12734890E+03</pdfrwt>
<pdfrwt beam="1">  1       -4 0.21027289E-01 0.12734890E+03</pdfrwt>
<totfact> 0.69779911E+04</totfact>
</mgrwt>
</event>
<event>
 6    3  0.3813045E-003  0.1267002E+03  0.7818608E-02  0.1232436E+00
         -4   -1    0    0    0  501 -0.00000000000E+00  0.00000000000E+00  0.73867961936E+03  0.73868071111E+03  0.12700000000E+01 0.  1.
         21   -1    0    0  501  502  0.00000000000E+00 -0.00000000000E+00 -0.77064895951E+02  0.77064895951E+02  0.00000000000E+00 0. -1.
         25    2    1    2    0    0 -0.15842765940E+02  0.13258454054E+02  0.73174083004E+03  0.74262882672E+03  0.12500460829E+03 0.  0.
    9000005    1    3    3    0    0 -0.42302062369E+02  0.34618159712E+02  0.14598903114E+03  0.15588995694E+03  0.10000000000E+01 0.  0.
    9000005    1    3    3    0    0  0.26459296429E+02 -0.21359705658E+02  0.58575179890E+03  0.58673886978E+03  0.10000000000E+01 0.  0.
         -4    1    1    2    0  502  0.15842765940E+02 -0.13258454054E+02 -0.70126106627E+02  0.73116780339E+02  0.12700000000E+01 0. -1.
<mgrwt>
<rscale>  1 0.12670017E+03</rscale>
<asrwt>0</asrwt>
<pdfrwt beam="2">  1       21 0.11856138E-01 0.12670017E+03</pdfrwt>
<pdfrwt beam="1">  1       -4 0.11364390E+00 0.12670017E+03</pdfrwt>
<totfact> 0.15689151E+03</totfact>
</mgrwt>
</event>
<event>
 6    3  0.3813045E-003  0.1312075E+03  0.7818608E-02  0.1225675E+00
          4   -1    0    0  502    0 -0.00000000000E+00  0.00000000000E+00  0.35810469300E+02  0.35832982174E+02  0.12700000000E+01 0.  1.
         21   -1    0    0  501  502  0.00000000000E+00 -0.00000000000E+00 -0.43114172692E+03  0.43114172692E+03  0.00000000000E+00 0. -1.
         25    2    1    2    0    0  0.39713889590E+02  0.37231488219E+01 -0.90145057835E+02  0.15919023206E+03  0.12499737464E+03 0.  0.
    9000005    1    3    3    0    0 -0.40725407865E+02 -0.96329234831E+01 -0.58017688905E+02  0.71543024024E+02  0.10000000000E+01 0.  0.
    9000005    1    3    3    0    0  0.80439297455E+02  0.13356072305E+02 -0.32127368930E+02  0.87647208037E+02  0.10000000000E+01 0.  0.
          4    1    1    2  501    0 -0.39713889590E+02 -0.37231488219E+01 -0.30518619978E+03  0.30778447703E+03  0.12700000000E+01 0. -1.
<mgrwt>
<rscale>  1 0.13120746E+03</rscale>
<asrwt>0</asrwt>
<pdfrwt beam="2">  1       21 0.66329496E-01 0.13120746E+03</pdfrwt>
<pdfrwt beam="1">  1        4 0.55111786E-02 0.13120746E+03</pdfrwt>
<totfact> 0.17431081E+04</totfact>
</mgrwt>
</event>
<event>
 6    3  0.3813045E-003  0.1408549E+03  0.7818608E-02  0.1212183E+00
         -4   -1    0    0    0  501 -0.00000000000E+00  0.00000000000E+00  0.76623499292E+02  0.76634023408E+02  0.12700000000E+01 0. -1.
         21   -1    0    0  501  502  0.00000000000E+00 -0.00000000000E+00 -0.39263873626E+03  0.39263873626E+03  0.00000000000E+00 0.  1.
         25    2    1    2    0    0  0.35237257541E+02  0.54531066840E+02  0.57968830572E+01  0.14097418357E+03  0.12499926004E+03 0.  0.
    9000005    1    3    3    0    0 -0.42177515382E+02  0.31184689236E+02 -0.19920959626E+02  0.56118377373E+02  0.10000000000E+01 0.  0.
    9000005    1    3    3    0    0  0.77414772922E+02  0.23346377604E+02  0.25717842683E+02  0.84855806202E+02  0.10000000000E+01 0.  0.
         -4    1    1    2    0  502 -0.35237257541E+02 -0.54531066840E+02 -0.32181212003E+03  0.32829857609E+03  0.12700000000E+01 0.  1.
<mgrwt>
<rscale>  1 0.14085495E+03</rscale>
<asrwt>0</asrwt>
<pdfrwt beam="2">  1       21 0.60405961E-01 0.14085495E+03</pdfrwt>
<pdfrwt beam="1">  1       -4 0.11789198E-01 0.14085495E+03</pdfrwt>
<totfact> 0.60629453E+03</totfact>
</mgrwt>
</event>
<event>
 6    3  0.3813045E-003  0.1327249E+03  0.7818608E-02  0.1223468E+00
         21   -1    0    0  501  502  0.00000000000E+00  0.00000000000E+00  0.84083321937E+02  0.84083321937E+02  0.00000000000E+00 0.  1.
         -4   -1    0    0    0  501 -0.00000000000E+00 -0.00000000000E+00 -0.26688742917E+03  0.26689045083E+03  0.12700000000E+01 0. -1.
         25    2    1    2    0    0 -0.33993068022E+02 -0.28920079828E+02 -0.24248937616E+03  0.27643623915E+03  0.12499598825E+03 0.  0.
    9000005    1    3    3    0    0 -0.39473088710E+02  0.44237436249E+02 -0.11249576742E+03  0.12716671414E+03  0.10000000000E+01 0.  0.
    9000005    1    3    3    0    0  0.54800206877E+01 -0.73157516077E+02 -0.12999360874E+03  0.14926952501E+03  0.10000000000E+01 0.  0.
         -4    1    1    2    0  502  0.33993068022E+02  0.28920079828E+02  0.59685268928E+02  0.74537533618E+02  0.12700000000E+01 0.  1.
<mgrwt>
<rscale>  1 0.13272489E+03</rscale>
<asrwt>0</asrwt>
<pdfrwt beam="1">  1       21 0.12935896E-01 0.13272489E+03</pdfrwt>
<pdfrwt beam="2">  1       -4 0.41060574E-01 0.13272489E+03</pdfrwt>
<totfact> 0.12088597E+04</totfact>
</mgrwt>
</event>
<event>
 6    3  0.3813045E-003  0.1285794E+03  0.7818608E-02  0.1229579E+00
          4   -1    0    0  502    0 -0.00000000000E+00  0.00000000000E+00  0.18296433472E+03  0.18296874235E+03  0.12700000000E+01 0. -1.
         21   -1    0    0  501  502  0.00000000000E+00 -0.00000000000E+00 -0.54988931345E+02  0.54988931345E+02  0.00000000000E+00 0.  1.
         25    2    1    2    0    0 -0.11599893328E+02  0.27762401181E+02  0.15224765261E+03  0.19927869456E+03  0.12500936739E+03 0.  0.
    9000005    1    3    3    0    0  0.49441885626E+02  0.13095435471E+02  0.24042893162E+02  0.56524783909E+02  0.10000000000E+01 0.  0.
    9000005    1    3    3    0    0 -0.61041778954E+02  0.14666965710E+02  0.12820475944E+03  0.14275391065E+03  0.10000000000E+01 0.  0.
          4    1    1    2  501    0  0.11599893328E+02 -0.27762401181E+02 -0.24272249234E+02  0.38678979142E+02  0.12700000000E+01 0.  1.
<mgrwt>
<rscale>  1 0.12857935E+03</rscale>
<asrwt>0</asrwt>
<pdfrwt beam="2">  1       21 0.84598357E-02 0.12857935E+03</pdfrwt>
<pdfrwt beam="1">  1        4 0.28149826E-01 0.12857935E+03</pdfrwt>
<totfact> 0.52437368E+04</totfact>
</mgrwt>
</event>
<event>
 6    3  0.3813045E-003  0.1326770E+03  0.7818608E-02  0.1223537E+00
         21   -1    0    0  501  502  0.00000000000E+00  0.00000000000E+00  0.33178955341E+03  0.33178955341E+03  0.00000000000E+00 0. -1.
         -4   -1    0    0    0  501 -0.00000000000E+00 -0.00000000000E+00 -0.28037684348E+02  0.28066432684E+02  0.12700000000E+01 0.  1.
         25    2    1    2    0    0 -0.22020769495E+02 -0.38645496387E+02  0.15222034461E+03  0.20192624069E+03  0.12499913874E+03 0.  0.
    9000005    1    3    3    0    0 -0.38434245847E+02  0.22062840842E+02  0.12638070457E+03  0.13392924508E+03  0.10000000000E+01 0.  0.
    9000005    1    3    3    0    0  0.16413476353E+02 -0.60708337230E+02  0.25839640043E+02  0.67996995616E+02  0.10000000000E+01 0.  0.
         -4    1    1    2    0  502  0.22020769495E+02  0.38645496387E+02  0.15153152445E+03  0.15792974540E+03  0.12700000000E+01 0. -1.
<mgrwt>
<rscale>  1 0.13267695E+03</rscale>
<asrwt>0</asrwt>
<pdfrwt beam="1">  1       21 0.51044544E-01 0.13267695E+03</pdfrwt>
<pdfrwt beam="2">  1       -4 0.43158885E-02 0.13267695E+03</pdfrwt>
<totfact> 0.44949152E+04</totfact>
</mgrwt>
</event>
<event>
 6    3  0.3813045E-003  0.1272232E+03  0.7818608E-02  0.1231635E+00
          4   -1    0    0  502    0 -0.00000000000E+00  0.00000000000E+00  0.77256855282E+01  0.78293752548E+01  0.12700000000E+01 0.  1.
         21   -1    0    0  501  502  0.00000000000E+00 -0.00000000000E+00 -0.84844363633E+03  0.84844363633E+03  0.00000000000E+00 0. -1.
         25    2    1    2    0    0  0.15685753201E+02 -0.17734285817E+02 -0.54702338563E+03  0.56162295091E+03  0.12500082724E+03 0.  0.
    9000005    1    3    3    0    0 -0.47141897878E+02 -0.38442212932E+02 -0.24536681080E+03  0.25279642820E+03  0.10000000000E+01 0.  0.
    9000005    1    3    3    0    0  0.62827651079E+02  0.20707927114E+02 -0.30165657483E+03  0.30882652271E+03  0.10000000000E+01 0.  0.
          4    1    1    2  501    0 -0.15685753201E+02  0.17734285817E+02 -0.29369456517E+03  0.29465006068E+03  0.12700000000E+01 0. -1.
<mgrwt>
<rscale>  1 0.12722325E+03</rscale>
<asrwt>0</asrwt>
<pdfrwt beam="2">  1       21 0.13052973E+00 0.12722325E+03</pdfrwt>
<pdfrwt beam="1">  1        4 0.11966168E-02 0.12722325E+03</pdfrwt>
<totfact> 0.39248809E+04</totfact>
</mgrwt>
</event>
<event>
 6    3  0.3813045E-003  0.1280502E+03  0.7818608E-02  0.1230378E+00
         21   -1    0    0  501  502  0.00000000000E+00  0.00000000000E+00  0.12147482407E+03  0.12147482407E+03  0.00000000000E+00 0. -1.
          4   -1    0    0  502    0 -0.00000000000E+00 -0.00000000000E+00 -0.56445113513E+02  0.56459399036E+02  0.12700000000E+01 0.  1.
         25    2    1    2    0    0 -0.27356408184E+02 -0.49075602737E+01  0.27086505162E+02  0.13088364445E+03  0.12499756960E+03 0.  0.
    9000005    1    3    3    0    0 -0.74973611713E+01 -0.12285245956E+02 -0.49424726984E+02  0.51487292900E+02  0.10000000000E+01 0.  0.
    9000005    1    3    3    0    0 -0.19859047013E+02  0.73776856821E+01  0.76511232146E+02  0.79396351546E+02  0.10000000000E+01 0.  0.
          4    1    1    2  501    0  0.27356408184E+02  0.49075602737E+01  0.37943205394E+02  0.47050578659E+02  0.12700000000E+01 0. -1.
<mgrwt>
<rscale>  1 0.12805018E+03</rscale>
<asrwt>0</asrwt>
<pdfrwt beam="1">  1       21 0.18688434E-01 0.12805018E+03</pdfrwt>
<pdfrwt beam="2">  1        4 0.86854732E-02 0.12805018E+03</pdfrwt>
<totfact> 0.10092491E+05</totfact>
</mgrwt>
</event>
<event>
 6    3  0.3813045E-003  0.1268385E+03  0.7818608E-02  0.1232224E+00
         21   -1    0    0  501  502  0.00000000000E+00  0.00000000000E+00  0.10552929051E+03  0.10552929051E+03  0.00000000000E+00 0. -1.
          4   -1    0    0  502    0 -0.00000000000E+00 -0.00000000000E+00 -0.70552597371E+02  0.70564026924E+02  0.12700000000E+01 0. -1.
         25    2    1    2    0    0  0.40773930065E+01 -0.21111236947E+02 -0.89667649129E+01  0.12715509245E+03  0.12500282078E+03 0.  0.
    9000005    1    3    3    0    0 -0.53716862390E+02 -0.37839912205E+02 -0.12434452696E+02  0.66880310066E+02  0.10000000000E+01 0.  0.
    9000005    1    3    3    0    0  0.57794255396E+02  0.16728675258E+02  0.34676877835E+01  0.60274782382E+02  0.10000000000E+01 0.  0.
          4    1    1    2  501    0 -0.40773930065E+01  0.21111236947E+02  0.43943458051E+02  0.48938224985E+02  0.12700000000E+01 0.  1.
<mgrwt>
<rscale>  1 0.12683854E+03</rscale>
<asrwt>0</asrwt>
<pdfrwt beam="1">  1       21 0.16235276E-01 0.12683854E+03</pdfrwt>
<pdfrwt beam="2">  1        4 0.10855713E-01 0.12683854E+03</pdfrwt>
<totfact> 0.89601220E+04</totfact>
</mgrwt>
</event>
<event>
 6    3  0.3813045E-003  0.1266228E+03  0.7818608E-02  0.1232555E+00
         -4   -1    0    0    0  501 -0.00000000000E+00  0.00000000000E+00  0.13500819676E+03  0.13501416997E+03  0.12700000000E+01 0. -1.
         21   -1    0    0  501  502  0.00000000000E+00 -0.00000000000E+00 -0.51165437723E+02  0.51165437723E+02  0.00000000000E+00 0. -1.
         25    2    1    2    0    0  0.19463817231E+02 -0.54406075752E+01  0.99127180304E+02  0.16080901792E+03  0.12499960790E+03 0.  0.
    9000005    1    3    3    0    0 -0.30283558703E+02 -0.44302374758E+02  0.15195636967E+02  0.55782629194E+02  0.10000000000E+01 0.  0.
    9000005    1    3    3    0    0  0.49747375934E+02  0.38861767183E+02  0.83931543337E+02  0.10502638872E+03  0.10000000000E+01 0.  0.
         -4    1    1    2    0  502 -0.19463817231E+02  0.54406075752E+01 -0.15284421269E+02  0.25370589775E+02  0.12700000000E+01 0.  1.
<mgrwt>
<rscale>  1 0.12662284E+03</rscale>
<asrwt>0</asrwt>
<pdfrwt beam="2">  1       21 0.78716059E-02 0.12662284E+03</pdfrwt>
<pdfrwt beam="1">  1       -4 0.20772163E-01 0.12662284E+03</pdfrwt>
<totfact> 0.10355843E+05</totfact>
</mgrwt>
</event>
<event>
 6    3  0.3813045E-003  0.1265938E+03  0.7818608E-02  0.1232599E+00
         21   -1    0    0  501  502  0.00000000000E+00  0.00000000000E+00  0.32742787574E+01  0.32742787574E+01  0.00000000000E+00 0.  1.
         -4   -1    0    0    0  501 -0.00000000000E+00 -0.00000000000E+00 -0.17189192409E+04  0.17189197100E+04  0.12700000000E+01 0.  1.
         25    2    1    2    0    0  0.16483035927E+02 -0.11390940155E+02 -0.15810391660E+04  0.15860992525E+04  0.12499820179E+03 0.  0.
    9000005    1    3    3    0    0  0.39046147216E+02 -0.23514277689E+02 -0.15080642198E+04  0.15087531985E+04  0.10000000000E+01 0.  0.
    9000005    1    3    3    0    0 -0.22563111289E+02  0.12123337534E+02 -0.72974946138E+02  0.77346053990E+02  0.10000000000E+01 0.  0.
         -4    1    1    2    0  502 -0.16483035927E+02  0.11390940155E+02 -0.13460579614E+03  0.13609473629E+03  0.12700000000E+01 0. -1.
<mgrwt>
<rscale>  1 0.12659382E+03</rscale>
<asrwt>0</asrwt>
<pdfrwt beam="1">  1       21 0.50373744E-03 0.12659382E+03</pdfrwt>
<pdfrwt beam="2">  1       -4 0.26446692E+00 0.12659382E+03</pdfrwt>
<totfact> 0.26885607E+04</totfact>
</mgrwt>
</event>
<event>
 6    3  0.3813045E-003  0.1394625E+03  0.7818608E-02  0.1214054E+00
         21   -1    0    0  501  502  0.00000000000E+00  0.00000000000E+00  0.60405468712E+03  0.60405468712E+03  0.00000000000E+00 0.  1.
         -4   -1    0    0    0  501 -0.00000000000E+00 -0.00000000000E+00 -0.22049302800E+02  0.22085847368E+02  0.12700000000E+01 0. -1.
         25    2    1    2    0    0  0.61836987707E+02  0.13314495218E+01  0.23185471352E+03  0.27056678550E+03  0.12499676567E+03 0.  0.
    9000005    1    3    3    0    0  0.25513411131E+02 -0.61356379629E+02  0.98995504618E+02  0.11923359176E+03  0.10000000000E+01 0.  0.
    9000005    1    3    3    0    0  0.36323576576E+02  0.62687829150E+02  0.13285920890E+03  0.15133319374E+03  0.10000000000E+01 0.  0.
         -4    1    1    2    0  502 -0.61836987707E+02 -0.13314495218E+01  0.35015067080E+03  0.35557374899E+03  0.12700000000E+01 0.  1.
<mgrwt>
<rscale>  1 0.13946246E+03</rscale>
<asrwt>0</asrwt>
<pdfrwt beam="1">  1       21 0.92931478E-01 0.13946246E+03</pdfrwt>
<pdfrwt beam="2">  1       -4 0.33951147E-02 0.13946246E+03</pdfrwt>
<totfact> 0.17874488E+04</totfact>
</mgrwt>
</event>
<event>
 6    3  0.3813045E-003  0.1272317E+03  0.7818608E-02  0.1231622E+00
         21   -1    0    0  501  502  0.00000000000E+00  0.00000000000E+00  0.92021919289E+03  0.92021919289E+03  0.00000000000E+00 0.  1.
          4   -1    0    0  502    0 -0.00000000000E+00 -0.00000000000E+00 -0.94571670566E+02  0.94580197577E+02  0.12700000000E+01 0. -1.
         25    2    1    2    0    0  0.35583871512E+01  0.23455883948E+02 -0.51551422314E+02  0.13727876850E+03  0.12500028211E+03 0.  0.
    9000005    1    3    3    0    0  0.41411369849E+01  0.34439551022E+01 -0.91985567624E+02  0.92148545802E+02  0.10000000000E+01 0.  0.
    9000005    1    3    3    0    0 -0.58274983368E+00  0.20011928846E+02  0.40434145310E+02  0.45130222695E+02  0.10000000000E+01 0.  0.
          4    1    1    2  501    0 -0.35583871512E+01 -0.23455883948E+02  0.87719894463E+03  0.87752062197E+03  0.12700000000E+01 0.  1.
<mgrwt>
<rscale>  1 0.12723172E+03</rscale>
<asrwt>0</asrwt>
<pdfrwt beam="1">  1       21 0.14157218E+00 0.12723172E+03</pdfrwt>
<pdfrwt beam="2">  1        4 0.14550212E-01 0.12723172E+03</pdfrwt>
<totfact> 0.58597452E+02</totfact>
</mgrwt>
</event>
<event>
 6    3  0.3813045E-003  0.1494077E+03  0.7818608E-02  0.1201203E+00
         -4   -1    0    0    0  501 -0.00000000000E+00  0.00000000000E+00  0.10038714906E+03  0.10039518213E+03  0.12700000000E+01 0. -1.
         21   -1    0    0  501  502  0.00000000000E+00 -0.00000000000E+00 -0.16393922049E+03  0.16393922049E+03  0.00000000000E+00 0.  1.
         25    2    1    2    0    0  0.80570377492E+02  0.14345074702E+02  0.15918173070E+02  0.15025329306E+03  0.12500118777E+03 0.  0.
    9000005    1    3    3    0    0  0.86784555047E+02  0.34583900847E+02  0.53094231783E+02  0.10745977220E+03  0.10000000000E+01 0.  0.
    9000005    1    3    3    0    0 -0.62141775547E+01 -0.20238826145E+02 -0.37176058713E+02  0.42793520863E+02  0.10000000000E+01 0.  0.
         -4    1    1    2    0  502 -0.80570377492E+02 -0.14345074702E+02 -0.79470244503E+02  0.11408110956E+03  0.12700000000E+01 0.  1.
<mgrwt>
<rscale>  1 0.14940771E+03</rscale>
<asrwt>0</asrwt>
<pdfrwt beam="2">  1       21 0.25221419E-01 0.14940771E+03</pdfrwt>
<pdfrwt beam="1">  1       -4 0.15445173E-01 0.14940771E+03</pdfrwt>
<totfact> 0.21962510E+04</totfact>
</mgrwt>
</event>
<event>
 6    3  0.3813045E-003  0.1273651E+03  0.7818608E-02  0.1231419E+00
         21   -1    0    0  501  502  0.00000000000E+00  0.00000000000E+00  0.18976328820E+02  0.18976328820E+02  0.00000000000E+00 0. -1.
         -4   -1    0    0    0  501 -0.00000000000E+00 -0.00000000000E+00 -0.45072699245E+03  0.45072878167E+03  0.12700000000E+01 0.  1.
         25    2    1    2    0    0 -0.24178883682E+02 -0.34677568346E+01 -0.42592664137E+03  0.44456200231E+03  0.12500090526E+03 0.  0.
    9000005    1    3    3    0    0 -0.73134624172E+02 -0.19742619366E+02 -0.25120042176E+03  0.26237586810E+03  0.10000000000E+01 0.  0.
    9000005    1    3    3    0    0  0.48955740490E+02  0.16274862531E+02 -0.17472621961E+03  0.18218613421E+03  0.10000000000E+01 0.  0.
         -4    1    1    2    0  502  0.24178883682E+02  0.34677568346E+01 -0.58240222626E+01  0.25143108179E+02  0.12700000000E+01 0. -1.
<mgrwt>
<rscale>  1 0.12736511E+03</rscale>
<asrwt>0</asrwt>
<pdfrwt beam="1">  1       21 0.29194355E-02 0.12736511E+03</pdfrwt>
<pdfrwt beam="2">  1       -4 0.69346013E-01 0.12736511E+03</pdfrwt>
<totfact> 0.51546825E+04</totfact>
</mgrwt>
</event>
<event>
 6    3  0.3813045E-003  0.1583778E+03  0.7818608E-02  0.1190541E+00
          4   -1    0    0  502    0 -0.00000000000E+00  0.00000000000E+00  0.92061410014E+03  0.92061497613E+03  0.12700000000E+01 0. -1.
         21   -1    0    0  501  502  0.00000000000E+00 -0.00000000000E+00 -0.25996928117E+02  0.25996928117E+02  0.00000000000E+00 0.  1.
         25    2    1    2    0    0  0.93573574020E+02  0.26510230981E+02  0.78168418012E+03  0.79756734829E+03  0.12499884600E+03 0.  0.
    9000005    1    3    3    0    0  0.61471566005E+01 -0.39517527502E+02  0.34655805370E+03  0.34885943745E+03  0.10000000000E+01 0.  0.
    9000005    1    3    3    0    0  0.87426417419E+02  0.66027758483E+02  0.43512612642E+03  0.44870791084E+03  0.10000000000E+01 0.  0.
          4    1    1    2  501    0 -0.93573574020E+02 -0.26510230981E+02  0.11293299190E+03  0.14904455596E+03  0.12700000000E+01 0.  1.
<mgrwt>
<rscale>  1 0.15837777E+03</rscale>
<asrwt>0</asrwt>
<pdfrwt beam="2">  1       21 0.39995281E-02 0.15837777E+03</pdfrwt>
<pdfrwt beam="1">  1        4 0.14163537E+00 0.15837777E+03</pdfrwt>
<totfact> 0.59915079E+03</totfact>
</mgrwt>
</event>
<event>
 6    3  0.3813045E-003  0.1294052E+03  0.7818608E-02  0.1228341E+00
         21   -1    0    0  501  502  0.00000000000E+00  0.00000000000E+00  0.13248781758E+02  0.13248781758E+02  0.00000000000E+00 0. -1.
          4   -1    0    0  502    0 -0.00000000000E+00 -0.00000000000E+00 -0.50096799090E+03  0.50096960068E+03  0.12700000000E+01 0. -1.
         25    2    1    2    0    0  0.35270724759E+01  0.33295742050E+02 -0.38323345447E+03  0.40449175619E+03  0.12499861407E+03 0.  0.
    9000005    1    3    3    0    0 -0.41853480958E+01  0.28250494224E+02 -0.87392104808E+01  0.29882793752E+02  0.10000000000E+01 0.  0.
    9000005    1    3    3    0    0  0.77124205717E+01  0.50452478260E+01 -0.37449424399E+03  0.37460896244E+03  0.10000000000E+01 0.  0.
          4    1    1    2  501    0 -0.35270724759E+01 -0.33295742050E+02 -0.10448575467E+03  0.10972662625E+03  0.12700000000E+01 0.  1.
<mgrwt>
<rscale>  1 0.12940518E+03</rscale>
<asrwt>0</asrwt>
<pdfrwt beam="1">  1       21 0.20382740E-02 0.12940518E+03</pdfrwt>
<pdfrwt beam="2">  1        4 0.77076809E-01 0.12940518E+03</pdfrwt>
<totfact> 0.73650350E+04</totfact>
</mgrwt>
</event>
<event>
 6    3  0.3813045E-003  0.1810632E+03  0.7818608E-02  0.1166778E+00
         21   -1    0    0  501  502  0.00000000000E+00  0.00000000000E+00  0.16546066766E+03  0.16546066766E+03  0.00000000000E+00 0.  1.
         -4   -1    0    0    0  501 -0.00000000000E+00 -0.00000000000E+00 -0.17396682917E+03  0.17397146476E+03  0.12700000000E+01 0. -1.
         25    2    1    2    0    0 -0.55778794840E+02  0.11852260959E+03 -0.70754205922E+02  0.19439656826E+03  0.12499994064E+03 0.  0.
    9000005    1    3    3    0    0 -0.49047732220E+02  0.88053329012E+02  0.16124442835E+02  0.10207872669E+03  0.10000000000E+01 0.  0.
    9000005    1    3    3    0    0 -0.67310626206E+01  0.30469280573E+02 -0.86878648757E+02  0.92317841572E+02  0.10000000000E+01 0.  0.
         -4    1    1    2    0  502  0.55778794840E+02 -0.11852260959E+03  0.62248044415E+02  0.14503556416E+03  0.12700000000E+01 0.  1.
<mgrwt>
<rscale>  1 0.18106316E+03</rscale>
<asrwt>0</asrwt>
<pdfrwt beam="1">  1       21 0.25455487E-01 0.18106316E+03</pdfrwt>
<pdfrwt beam="2">  1       -4 0.26764859E-01 0.18106316E+03</pdfrwt>
<totfact> 0.80874636E+03</totfact>
</mgrwt>
</event>
<event>
 6    3  0.3813045E-003  0.1302283E+03  0.7818608E-02  0.1227117E+00
         21   -1    0    0  501  502  0.00000000000E+00  0.00000000000E+00  0.27739200211E+02  0.27739200211E+02  0.00000000000E+00 0.  1.
          4   -1    0    0  502    0 -0.00000000000E+00 -0.00000000000E+00 -0.25442210770E+03  0.25442527741E+03  0.12700000000E+01 0.  1.
         25    2    1    2    0    0  0.35262194924E+02 -0.95219710848E+01 -0.16182233464E+03  0.20771585686E+03  0.12500127550E+03 0.  0.
    9000005    1    3    3    0    0 -0.20129682042E+02  0.33928390442E+02 -0.10531386509E+02  0.40844214755E+02  0.10000000000E+01 0.  0.
    9000005    1    3    3    0    0  0.55391876966E+02 -0.43450361527E+02 -0.15129094814E+03  0.16687164210E+03  0.10000000000E+01 0.  0.
          4    1    1    2  501    0 -0.35262194924E+02  0.95219710848E+01 -0.64860572839E+02  0.74448620761E+02  0.12700000000E+01 0. -1.
<mgrwt>
<rscale>  1 0.13022830E+03</rscale>
<asrwt>0</asrwt>
<pdfrwt beam="1">  1       21 0.42675693E-02 0.13022830E+03</pdfrwt>
<pdfrwt beam="2">  1        4 0.39144343E-01 0.13022830E+03</pdfrwt>
<totfact> 0.89231747E+04</totfact>
</mgrwt>
</event>
<event>
 6    3  0.3813045E-003  0.1355602E+03  0.7818608E-02  0.1219431E+00
         21   -1    0    0  501  502  0.00000000000E+00  0.00000000000E+00  0.25840638442E+02  0.25840638442E+02  0.00000000000E+00 0.  1.
          4   -1    0    0  502    0 -0.00000000000E+00 -0.00000000000E+00 -0.68492818222E+03  0.68492935964E+03  0.12700000000E+01 0. -1.
         25    2    1    2    0    0 -0.47975050240E+02  0.21119878587E+02 -0.64119413986E+03  0.65536745734E+03  0.12501569675E+03 0.  0.
    9000005    1    3    3    0    0 -0.30823261576E+02  0.55410494616E+02 -0.15234917926E+03  0.16502020721E+03  0.10000000000E+01 0.  0.
    9000005    1    3    3    0    0 -0.17151788664E+02 -0.34290616029E+02 -0.48884496060E+03  0.49034725013E+03  0.10000000000E+01 0.  0.
          4    1    1    2  501    0  0.47975050240E+02 -0.21119878587E+02 -0.17893403918E+02  0.55402540744E+02  0.12700000000E+01 0.  1.
<mgrwt>
<rscale>  1 0.13556024E+03</rscale>
<asrwt>0</asrwt>
<pdfrwt beam="1">  1       21 0.39754829E-02 0.13556024E+03</pdfrwt>
<pdfrwt beam="2">  1        4 0.10537605E+00 0.13556024E+03</pdfrwt>
<totfact> 0.12221800E+04</totfact>
</mgrwt>
</event>
<event>
 6    3  0.3813045E-003  0.1269105E+03  0.7818608E-02  0.1232113E+00
         21   -1    0    0  501  502  0.00000000000E+00  0.00000000000E+00  0.94696035754E+03  0.94696035754E+03  0.00000000000E+00 0. -1.
         -4   -1    0    0    0  501 -0.00000000000E+00 -0.00000000000E+00 -0.71908108342E+01  0.73020997291E+01  0.12700000000E+01 0. -1.
         25    2    1    2    0    0 -0.19297722930E+00  0.21934880967E+02  0.57533101510E+03  0.58916215261E+03  0.12500035555E+03 0.  0.
    9000005    1    3    3    0    0  0.49887112804E+02  0.32930671684E+02  0.16232197553E+03  0.17298143514E+03  0.10000000000E+01 0.  0.
    9000005    1    3    3    0    0 -0.50080090033E+02 -0.10995790717E+02  0.41300903957E+03  0.41618071748E+03  0.10000000000E+01 0.  0.
         -4    1    1    2    0  502  0.19297722930E+00 -0.21934880967E+02  0.36443853161E+03  0.36510030466E+03  0.12700000000E+01 0.  1.
<mgrwt>
<rscale>  1 0.12691046E+03</rscale>
<asrwt>0</asrwt>
<pdfrwt beam="1">  1       21 0.14568611E+00 0.12691046E+03</pdfrwt>
<pdfrwt beam="2">  1       -4 0.11149055E-02 0.12691046E+03</pdfrwt>
<totfact> 0.33078906E+04</totfact>
</mgrwt>
</event>
<event>
 6    3  0.3813045E-003  0.1280464E+03  0.7818608E-02  0.1230384E+00
          4   -1    0    0  502    0 -0.00000000000E+00  0.00000000000E+00  0.76378691769E+02  0.76389249612E+02  0.12700000000E+01 0. -1.
         21   -1    0    0  501  502  0.00000000000E+00 -0.00000000000E+00 -0.83730807908E+02  0.83730807908E+02  0.00000000000E+00 0. -1.
         25    2    1    2    0    0  0.14051676607E+02 -0.24006636404E+02  0.80489233834E+01  0.12829910333E+03  0.12498842563E+03 0.  0.
    9000005    1    3    3    0    0 -0.17112706394E+02 -0.62087977582E+02  0.33811796781E+02  0.72746128982E+02  0.10000000000E+01 0.  0.
    9000005    1    3    3    0    0  0.31164383001E+02  0.38081341177E+02 -0.25762873397E+02  0.55552974352E+02  0.10000000000E+01 0.  0.
          4    1    1    2  501    0 -0.14051676607E+02  0.24006636404E+02 -0.15401039522E+02  0.31820954185E+02  0.12700000000E+01 0.  1.
<mgrwt>
<rscale>  1 0.12804638E+03</rscale>
<asrwt>0</asrwt>
<pdfrwt beam="2">  1       21 0.12881663E-01 0.12804638E+03</pdfrwt>
<pdfrwt beam="1">  1        4 0.11752121E-01 0.12804638E+03</pdfrwt>
<totfact> 0.11882892E+05</totfact>
</mgrwt>
</event>
<event>
 6    3  0.3813045E-003  0.1317883E+03  0.7818608E-02  0.1224826E+00
         -4   -1    0    0    0  501 -0.00000000000E+00  0.00000000000E+00  0.96606095112E+03  0.96606178590E+03  0.12700000000E+01 0.  1.
         21   -1    0    0  501  502  0.00000000000E+00 -0.00000000000E+00 -0.26553884339E+02  0.26553884339E+02  0.00000000000E+00 0. -1.
         25    2    1    2    0    0  0.39019147846E+02  0.14890262360E+02  0.94160214977E+03  0.95078008629E+03  0.12499580077E+03 0.  0.
    9000005    1    3    3    0    0  0.30544814851E+02  0.55661163187E+02  0.81566605335E+03  0.81813401188E+03  0.10000000000E+01 0.  0.
    9000005    1    3    3    0    0  0.84743329953E+01 -0.40770900827E+02  0.12593609642E+03  0.13264607441E+03  0.10000000000E+01 0.  0.
         -4    1    1    2    0  502 -0.39019147846E+02 -0.14890262360E+02 -0.20950829949E+01  0.41835583951E+02  0.12700000000E+01 0. -1.
<mgrwt>
<rscale>  1 0.13178833E+03</rscale>
<asrwt>0</asrwt>
<pdfrwt beam="2">  1       21 0.40852137E-02 0.13178833E+03</pdfrwt>
<pdfrwt beam="1">  1       -4 0.14862714E+00 0.13178833E+03</pdfrwt>
<totfact> 0.50541135E+03</totfact>
</mgrwt>
</event>
<event>
 6    3  0.3813045E-003  0.1356813E+03  0.7818608E-02  0.1219261E+00
         21   -1    0    0  501  502  0.00000000000E+00  0.00000000000E+00  0.33963050596E+03  0.33963050596E+03  0.00000000000E+00 0. -1.
         -4   -1    0    0    0  501 -0.00000000000E+00 -0.00000000000E+00 -0.51044523984E+02  0.51060320492E+02  0.12700000000E+01 0.  1.
         25    2    1    2    0    0  0.45031299141E+02 -0.27506335637E+02  0.47285475334E+02  0.14368482691E+03  0.12499998762E+03 0.  0.
    9000005    1    3    3    0    0 -0.16985014433E+02 -0.62161205520E+02  0.26234155828E+02  0.69582592069E+02  0.10000000000E+01 0.  0.
    9000005    1    3    3    0    0  0.62016313575E+02  0.34654869883E+02  0.21051319506E+02  0.74102234844E+02  0.10000000000E+01 0.  0.
         -4    1    1    2    0  502 -0.45031299141E+02  0.27506335637E+02  0.24130050664E+03  0.24700599954E+03  0.12700000000E+01 0. -1.
<mgrwt>
<rscale>  1 0.13568129E+03</rscale>
<asrwt>0</asrwt>
<pdfrwt beam="1">  1       21 0.52250846E-01 0.13568129E+03</pdfrwt>
<pdfrwt beam="2">  1       -4 0.78544017E-02 0.13568129E+03</pdfrwt>
<totfact> 0.16240644E+04</totfact>
</mgrwt>
</event>
<event>
 6    3  0.3813045E-003  0.1269720E+03  0.7818608E-02  0.1232019E+00
         -4   -1    0    0    0  501 -0.00000000000E+00  0.00000000000E+00  0.90656435285E+03  0.90656524241E+03  0.12700000000E+01 0. -1.
         21   -1    0    0  501  502  0.00000000000E+00 -0.00000000000E+00 -0.29460970344E+02  0.29460970344E+02  0.00000000000E+00 0.  1.
         25    2    1    2    0    0 -0.20167682921E+02  0.93820569534E+01  0.89712894906E+03  0.90606966685E+03  0.12500852575E+03 0.  0.
    9000005    1    3    3    0    0  0.25330728963E+02 -0.42817712739E+02  0.54002699022E+03  0.54231462503E+03  0.10000000000E+01 0.  0.
    9000005    1    3    3    0    0 -0.45498411884E+02  0.52199769693E+02  0.35710195884E+03  0.36375504181E+03  0.10000000000E+01 0.  0.
         -4    1    1    2    0  502  0.20167682921E+02 -0.93820569534E+01 -0.20025566557E+02  0.29956545912E+02  0.12700000000E+01 0.  1.
<mgrwt>
<rscale>  1 0.12697200E+03</rscale>
<asrwt>0</asrwt>
<pdfrwt beam="2">  1       21 0.45324577E-02 0.12697200E+03</pdfrwt>
<pdfrwt beam="1">  1       -4 0.13947359E+00 0.12697200E+03</pdfrwt>
<totfact> 0.49730492E+03</totfact>
</mgrwt>
</event>
<event>
 6    3  0.3813045E-003  0.1595911E+03  0.7818608E-02  0.1189159E+00
         -4   -1    0    0    0  501 -0.00000000000E+00  0.00000000000E+00  0.24987627373E+02  0.25019880530E+02  0.12700000000E+01 0.  1.
         21   -1    0    0  501  502  0.00000000000E+00 -0.00000000000E+00 -0.13876458814E+04  0.13876458814E+04  0.00000000000E+00 0. -1.
         25    2    1    2    0    0  0.59331678286E+02  0.79526652190E+02 -0.25670142222E+03  0.30226634587E+03  0.12499834888E+03 0.  0.
    9000005    1    3    3    0    0 -0.51945797716E+01 -0.27718812527E+02 -0.20258650546E+02  0.34738007266E+02  0.10000000000E+01 0.  0.
    9000005    1    3    3    0    0  0.64526258057E+02  0.10724546472E+03 -0.23644277167E+03  0.26752833861E+03  0.10000000000E+01 0.  0.
         -4    1    1    2    0  502 -0.59331678286E+02 -0.79526652190E+02 -0.11059568318E+04  0.11103994161E+04  0.12700000000E+01 0. -1.
<mgrwt>
<rscale>  1 0.15959111E+03</rscale>
<asrwt>0</asrwt>
<pdfrwt beam="2">  1       21 0.21348391E+00 0.15959111E+03</pdfrwt>
<pdfrwt beam="1">  1       -4 0.38467774E-02 0.15959111E+03</pdfrwt>
<totfact> 0.17027333E+03</totfact>
</mgrwt>
</event>
<event>
 6    3  0.3813045E-003  0.1266972E+03  0.7818608E-02  0.1232440E+00
         21   -1    0    0  501  502  0.00000000000E+00  0.00000000000E+00  0.20465480617E+03  0.20465480617E+03  0.00000000000E+00 0. -1.
          4   -1    0    0  502    0 -0.00000000000E+00 -0.00000000000E+00 -0.36577904939E+02  0.36599945761E+02  0.12700000000E+01 0. -1.
         25    2    1    2    0    0  0.11833672435E+02  0.16939193863E+02  0.77895337319E+02  0.14872746157E+03  0.12500080863E+03 0.  0.
    9000005    1    3    3    0    0  0.22855917395E+02  0.45920691463E+02 -0.12796978760E+02  0.52875944718E+02  0.10000000000E+01 0.  0.
    9000005    1    3    3    0    0 -0.11022244961E+02 -0.28981497600E+02  0.90692316079E+02  0.95851516853E+02  0.10000000000E+01 0.  0.
          4    1    1    2  501    0 -0.11833672435E+02 -0.16939193863E+02  0.90181563908E+02  0.92527290357E+02  0.12700000000E+01 0.  1.
<mgrwt>
<rscale>  1 0.12669718E+03</rscale>
<asrwt>0</asrwt>
<pdfrwt beam="1">  1       21 0.31485354E-01 0.12669718E+03</pdfrwt>
<pdfrwt beam="2">  1        4 0.56293687E-02 0.12669718E+03</pdfrwt>
<totfact> 0.76765373E+04</totfact>
</mgrwt>
</event>
<event>
 6    3  0.3813045E-003  0.1269976E+03  0.7818608E-02  0.1231980E+00
          4   -1    0    0  502    0 -0.00000000000E+00  0.00000000000E+00  0.33631585864E+03  0.33631825653E+03  0.12700000000E+01 0. -1.
         21   -1    0    0  501  502  0.00000000000E+00 -0.00000000000E+00 -0.28574908745E+02  0.28574908745E+02  0.00000000000E+00 0.  1.
         25    2    1    2    0    0  0.18976945469E+02  0.11967681837E+02  0.31630294460E+03  0.34084590928E+03  0.12500012497E+03 0.  0.
    9000005    1    3    3    0    0  0.59197967707E+01  0.26572614683E+02  0.35434663746E+01  0.27471876508E+02  0.10000000000E+01 0.  0.
    9000005    1    3    3    0    0  0.13057148699E+02 -0.14604932846E+02  0.31275947822E+03  0.31337403277E+03  0.10000000000E+01 0.  0.
          4    1    1    2  501    0 -0.18976945469E+02 -0.11967681837E+02 -0.85619946974E+01  0.24047255999E+02  0.12700000000E+01 0.  1.
<mgrwt>
<rscale>  1 0.12699756E+03</rscale>
<asrwt>0</asrwt>
<pdfrwt beam="2">  1       21 0.43961400E-02 0.12699756E+03</pdfrwt>
<pdfrwt beam="1">  1        4 0.51743254E-01 0.12699756E+03</pdfrwt>
<totfact> 0.48409959E+04</totfact>
</mgrwt>
</event>
<event>
 6    3  0.3813045E-003  0.1317122E+03  0.7818608E-02  0.1224937E+00
         21   -1    0    0  501  502  0.00000000000E+00  0.00000000000E+00  0.91454678498E+02  0.91454678498E+02  0.00000000000E+00 0.  1.
          4   -1    0    0  502    0 -0.00000000000E+00 -0.00000000000E+00 -0.36898123227E+03  0.36898341788E+03  0.12700000000E+01 0. -1.
         25    2    1    2    0    0  0.89577134296E+01  0.40530433440E+02 -0.35163165993E+03  0.37549025166E+03  0.12500059264E+03 0.  0.
    9000005    1    3    3    0    0  0.40332421769E+02  0.67139502270E+02 -0.14503378145E+03  0.16483390055E+03  0.10000000000E+01 0.  0.
    9000005    1    3    3    0    0 -0.31374708339E+02 -0.26609068830E+02 -0.20659787848E+03  0.21065635110E+03  0.10000000000E+01 0.  0.
          4    1    1    2  501    0 -0.89577134296E+01 -0.40530433440E+02  0.74105106153E+02  0.84947844721E+02  0.12700000000E+01 0.  1.
<mgrwt>
<rscale>  1 0.13171220E+03</rscale>
<asrwt>0</asrwt>
<pdfrwt beam="1">  1       21 0.14069951E-01 0.13171220E+03</pdfrwt>
<pdfrwt beam="2">  1        4 0.56767189E-01 0.13171220E+03</pdfrwt>
<totfact> 0.53939186E+03</totfact>
</mgrwt>
</event>
<event>
 6    3  0.3813045E-003  0.1300974E+03  0.7818608E-02  0.1227311E+00
         -4   -1    0    0    0  501 -0.00000000000E+00  0.00000000000E+00  0.12495282210E+03  0.12495927597E+03  0.12700000000E+01 0. -1.
         21   -1    0    0  501  502  0.00000000000E+00 -0.00000000000E+00 -0.64763263100E+02  0.64763263100E+02  0.00000000000E+00 0. -1.
         25    2    1    2    0    0 -0.32106606191E+02 -0.16482543247E+02  0.75589958542E+02  0.15046322681E+03  0.12499132929E+03 0.  0.
    9000005    1    3    3    0    0  0.18692114586E+02  0.26601255293E+02  0.77257970219E+02  0.83826105082E+02  0.10000000000E+01 0.  0.
    9000005    1    3    3    0    0 -0.50798720777E+02 -0.43083798540E+02 -0.16680116770E+01  0.66637121728E+02  0.10000000000E+01 0.  0.
         -4    1    1    2    0  502  0.32106606191E+02  0.16482543247E+02 -0.15400399542E+02  0.39259312259E+02  0.12700000000E+01 0.  1.
<mgrwt>
<rscale>  1 0.13009743E+03</rscale>
<asrwt>0</asrwt>
<pdfrwt beam="2">  1       21 0.99635790E-02 0.13009743E+03</pdfrwt>
<pdfrwt beam="1">  1       -4 0.19224965E-01 0.13009743E+03</pdfrwt>
<totfact> 0.79370487E+04</totfact>
</mgrwt>
</event>
<event>
 6    3  0.3813045E-003  0.1307218E+03  0.7818608E-02  0.1226389E+00
         21   -1    0    0  501  502  0.00000000000E+00  0.00000000000E+00  0.26484128121E+02  0.26484128121E+02  0.00000000000E+00 0. -1.
         -4   -1    0    0    0  501 -0.00000000000E+00 -0.00000000000E+00 -0.92002039910E+03  0.92002127565E+03  0.12700000000E+01 0.  1.
         25    2    1    2    0    0 -0.36523559263E+01 -0.38031235204E+02 -0.89849793273E+03  0.90795743960E+03  0.12501384904E+03 0.  0.
    9000005    1    3    3    0    0 -0.30721779089E+02 -0.69761640937E+02 -0.74502137174E+03  0.74891144911E+03  0.10000000000E+01 0.  0.
    9000005    1    3    3    0    0  0.27069423163E+02  0.31730405732E+02 -0.15347656098E+03  0.15904599049E+03  0.10000000000E+01 0.  0.
         -4    1    1    2    0  502  0.36523559263E+01  0.38031235204E+02  0.49616617493E+01  0.38547964178E+02  0.12700000000E+01 0. -1.
<mgrwt>
<rscale>  1 0.13072175E+03</rscale>
<asrwt>0</asrwt>
<pdfrwt beam="1">  1       21 0.40744818E-02 0.13072175E+03</pdfrwt>
<pdfrwt beam="2">  1       -4 0.14154399E+00 0.13072175E+03</pdfrwt>
<totfact> 0.57376990E+03</totfact>
</mgrwt>
</event>
<event>
 6    3  0.3813045E-003  0.1372767E+03  0.7818608E-02  0.1217041E+00
         21   -1    0    0  501  502  0.00000000000E+00  0.00000000000E+00  0.62781343199E+02  0.62781343199E+02  0.00000000000E+00 0.  1.
          4   -1    0    0  502    0 -0.00000000000E+00 -0.00000000000E+00 -0.26142092776E+03  0.26142401261E+03  0.12700000000E+01 0. -1.
         25    2    1    2    0    0 -0.32642236927E+01 -0.56653949596E+02 -0.22345666559E+03  0.26225516960E+03  0.12499826967E+03 0.  0.
    9000005    1    3    3    0    0  0.40725517296E+02 -0.18186730472E+01 -0.16751868014E+03  0.17241050875E+03  0.10000000000E+01 0.  0.
    9000005    1    3    3    0    0 -0.43989740989E+02 -0.54835276549E+02 -0.55937985449E+02  0.89844660846E+02  0.10000000000E+01 0.  0.
          4    1    1    2  501    0  0.32642236927E+01  0.56653949596E+02  0.24817081032E+02  0.61950186215E+02  0.12700000000E+01 0.  1.
<mgrwt>
<rscale>  1 0.13727670E+03</rscale>
<asrwt>0</asrwt>
<pdfrwt beam="1">  1       21 0.96586682E-02 0.13727670E+03</pdfrwt>
<pdfrwt beam="2">  1        4 0.40219829E-01 0.13727670E+03</pdfrwt>
<totfact> 0.21154743E+04</totfact>
</mgrwt>
</event>
<event>
 6    3  0.3813045E-003  0.1268724E+03  0.7818608E-02  0.1232172E+00
         21   -1    0    0  501  502  0.00000000000E+00  0.00000000000E+00  0.75869464597E+03  0.75869464597E+03  0.00000000000E+00 0. -1.
         -4   -1    0    0    0  501 -0.00000000000E+00 -0.00000000000E+00 -0.72268616534E+01  0.73376037886E+01  0.12700000000E+01 0. -1.
         25    2    1    2    0    0  0.12115100107E+02 -0.18023120004E+02  0.63505991034E+03  0.64760921767E+03  0.12500000234E+03 0.  0.
    9000005    1    3    3    0    0 -0.33075749874E+02 -0.27927593906E+02  0.83024416603E+02  0.93637649925E+02  0.10000000000E+01 0.  0.
    9000005    1    3    3    0    0  0.45190849981E+02  0.99044739024E+01  0.55203549373E+03  0.55397156774E+03  0.10000000000E+01 0.  0.
         -4    1    1    2    0  502 -0.12115100107E+02  0.18023120004E+02  0.11640787398E+03  0.11842303209E+03  0.12700000000E+01 0.  1.
<mgrwt>
<rscale>  1 0.12687241E+03</rscale>
<asrwt>0</asrwt>
<pdfrwt beam="1">  1       21 0.11672219E+00 0.12687241E+03</pdfrwt>
<pdfrwt beam="2">  1       -4 0.11204259E-02 0.12687241E+03</pdfrwt>
<totfact> 0.57035314E+04</totfact>
</mgrwt>
</event>
<event>
 6    3  0.3813045E-003  0.1316488E+03  0.7818608E-02  0.1225030E+00
          4   -1    0    0  502    0 -0.00000000000E+00  0.00000000000E+00  0.36439797760E+03  0.36440019070E+03  0.12700000000E+01 0. -1.
         21   -1    0    0  501  502  0.00000000000E+00 -0.00000000000E+00 -0.70414345826E+03  0.70414345826E+03  0.00000000000E+00 0.  1.
         25    2    1    2    0    0  0.40743277272E+02  0.68703107986E+01  0.35187136923E+03  0.37569251361E+03  0.12499675391E+03 0.  0.
    9000005    1    3    3    0    0  0.10512380191E+02  0.64592300722E+02  0.15283603077E+03  0.16626042148E+03  0.10000000000E+01 0.  0.
    9000005    1    3    3    0    0  0.30230897082E+02 -0.57721989923E+02  0.19903533846E+03  0.20943209213E+03  0.10000000000E+01 0.  0.
          4    1    1    2  501    0 -0.40743277272E+02 -0.68703107986E+01 -0.69161684988E+03  0.69285113535E+03  0.12700000000E+01 0.  1.
<mgrwt>
<rscale>  1 0.13164879E+03</rscale>
<asrwt>0</asrwt>
<pdfrwt beam="2">  1       21 0.10832976E+00 0.13164879E+03</pdfrwt>
<pdfrwt beam="1">  1        4 0.56061486E-01 0.13164879E+03</pdfrwt>
<totfact> 0.88836314E+01</totfact>
</mgrwt>
</event>
<event>
 6    3  0.3813045E-003  0.1281548E+03  0.7818608E-02  0.1230220E+00
         21   -1    0    0  501  502  0.00000000000E+00  0.00000000000E+00  0.75056654151E+02  0.75056654151E+02  0.00000000000E+00 0.  1.
         -4   -1    0    0    0  501 -0.00000000000E+00 -0.00000000000E+00 -0.19107383121E+03  0.19107805179E+03  0.12700000000E+01 0.  1.
         25    2    1    2    0    0  0.28198972204E+02  0.17149289633E+01 -0.16539345709E+03  0.20923344985E+03  0.12500207148E+03 0.  0.
    9000005    1    3    3    0    0 -0.64072936167E+01 -0.46375295690E+02 -0.17636951533E+02  0.50037820908E+02  0.10000000000E+01 0.  0.
    9000005    1    3    3    0    0  0.34606265821E+02  0.48090224653E+02 -0.14775650556E+03  0.15919562895E+03  0.10000000000E+01 0.  0.
         -4    1    1    2    0  502 -0.28198972204E+02 -0.17149289633E+01  0.49376280026E+02  0.56901256084E+02  0.12700000000E+01 0. -1.
<mgrwt>
<rscale>  1 0.12815475E+03</rscale>
<asrwt>0</asrwt>
<pdfrwt beam="1">  1       21 0.11547178E-01 0.12815475E+03</pdfrwt>
<pdfrwt beam="2">  1       -4 0.29397125E-01 0.12815475E+03</pdfrwt>
<totfact> 0.28051273E+04</totfact>
</mgrwt>
</event>
<event>
 6    3  0.3813045E-003  0.1270320E+03  0.7818608E-02  0.1231927E+00
         21   -1    0    0  501  502  0.00000000000E+00  0.00000000000E+00  0.71040484197E+02  0.71040484197E+02  0.00000000000E+00 0.  1.
          4   -1    0    0  502    0 -0.00000000000E+00 -0.00000000000E+00 -0.19496365161E+03  0.19496778798E+03  0.12700000000E+01 0. -1.
         25    2    1    2    0    0  0.16288814396E+02  0.15691939838E+02 -0.17143588624E+03  0.21337146186E+03  0.12500222077E+03 0.  0.
    9000005    1    3    3    0    0  0.65373485767E+02 -0.13843285972E+02 -0.69376480546E+02  0.96329773490E+02  0.10000000000E+01 0.  0.
    9000005    1    3    3    0    0 -0.49084671370E+02  0.29535225810E+02 -0.10205940569E+03  0.11704168837E+03  0.10000000000E+01 0.  0.
          4    1    1    2  501    0 -0.16288814396E+02 -0.15691939838E+02  0.47512718821E+02  0.52636810314E+02  0.12700000000E+01 0.  1.
<mgrwt>
<rscale>  1 0.12703196E+03</rscale>
<asrwt>0</asrwt>
<pdfrwt beam="1">  1       21 0.10929305E-01 0.12703196E+03</pdfrwt>
<pdfrwt beam="2">  1        4 0.29995599E-01 0.12703196E+03</pdfrwt>
<totfact> 0.29724347E+04</totfact>
</mgrwt>
</event>
<event>
 6    3  0.3813045E-003  0.1267904E+03  0.7818608E-02  0.1232297E+00
         -4   -1    0    0    0  501 -0.00000000000E+00  0.00000000000E+00  0.34079107474E+03  0.34079344114E+03  0.12700000000E+01 0.  1.
         21   -1    0    0  501  502  0.00000000000E+00 -0.00000000000E+00 -0.16391230269E+02  0.16391230269E+02  0.00000000000E+00 0.  1.
         25    2    1    2    0    0 -0.21095575117E+02 -0.19925706685E+01  0.25794882447E+03  0.28742548143E+03  0.12500727059E+03 0.  0.
    9000005    1    3    3    0    0 -0.40046267104E+02  0.30297808981E+02  0.34677126842E+02  0.61034120491E+02  0.10000000000E+01 0.  0.
    9000005    1    3    3    0    0  0.18950691988E+02 -0.32290379650E+02  0.22327169763E+03  0.22639136094E+03  0.10000000000E+01 0.  0.
         -4    1    1    2    0  502  0.21095575117E+02  0.19925706685E+01  0.66451020001E+02  0.69759189979E+02  0.12700000000E+01 0. -1.
<mgrwt>
<rscale>  1 0.12679042E+03</rscale>
<asrwt>0</asrwt>
<pdfrwt beam="2">  1       21 0.25217280E-02 0.12679042E+03</pdfrwt>
<pdfrwt beam="1">  1       -4 0.52433357E-01 0.12679042E+03</pdfrwt>
<totfact> 0.11765523E+05</totfact>
</mgrwt>
</event>
<event>
 6    3  0.3813045E-003  0.1342604E+03  0.7818608E-02  0.1221268E+00
         -4   -1    0    0    0  501 -0.00000000000E+00  0.00000000000E+00  0.14783209725E+02  0.14837661197E+02  0.12700000000E+01 0. -1.
         21   -1    0    0  501  502  0.00000000000E+00 -0.00000000000E+00 -0.10349381021E+04  0.10349381021E+04  0.00000000000E+00 0.  1.
         25    2    1    2    0    0 -0.34880007242E+01 -0.48870295714E+02 -0.30867449890E+03  0.33660927842E+03  0.12500155237E+03 0.  0.
    9000005    1    3    3    0    0 -0.76573622403E+01 -0.90677507403E+02 -0.18897807121E+03  0.20974927161E+03  0.10000000000E+01 0.  0.
    9000005    1    3    3    0    0  0.41693615161E+01  0.41807211688E+02 -0.11969642770E+03  0.12686000681E+03  0.10000000000E+01 0.  0.
         -4    1    1    2    0  502  0.34880007242E+01  0.48870295714E+02 -0.71148039347E+03  0.71316648487E+03  0.12700000000E+01 0.  1.
<mgrwt>
<rscale>  1 0.13426042E+03</rscale>
<asrwt>0</asrwt>
<pdfrwt beam="2">  1       21 0.15922119E+00 0.13426042E+03</pdfrwt>
<pdfrwt beam="1">  1       -4 0.22785893E-02 0.13426042E+03</pdfrwt>
<totfact> 0.88371732E+03</totfact>
</mgrwt>
</event>
<event>
 6    3  0.3813045E-003  0.1267761E+03  0.7818608E-02  0.1232319E+00
         -4   -1    0    0    0  501 -0.00000000000E+00  0.00000000000E+00  0.38668051590E+01  0.40700223755E+01  0.12700000000E+01 0. -1.
         21   -1    0    0  501  502  0.00000000000E+00 -0.00000000000E+00 -0.20692282433E+04  0.20692282433E+04  0.00000000000E+00 0. -1.
         25    2    1    2    0    0  0.70663530570E+01 -0.19923491685E+02 -0.10372550695E+04  0.10449738048E+04  0.12500117789E+03 0.  0.
    9000005    1    3    3    0    0 -0.42431930827E+02  0.28709291593E+02 -0.28902227739E+03  0.29352950278E+03  0.10000000000E+01 0.  0.
    9000005    1    3    3    0    0  0.49498283884E+02 -0.48632783278E+02 -0.74823279216E+03  0.75144430198E+03  0.10000000000E+01 0.  0.
         -4    1    1    2    0  502 -0.70663530570E+01  0.19923491685E+02 -0.10281063686E+04  0.10283244609E+04  0.12700000000E+01 0.  1.
<mgrwt>
<rscale>  1 0.12677608E+03</rscale>
<asrwt>0</asrwt>
<pdfrwt beam="2">  1       21 0.31834253E+00 0.12677608E+03</pdfrwt>
<pdfrwt beam="1">  1       -4 0.61055570E-03 0.12677608E+03</pdfrwt>
<totfact> 0.71414795E+03</totfact>
</mgrwt>
</event>
<event>
 6    3  0.3813045E-003  0.1280207E+03  0.7818608E-02  0.1230423E+00
         -4   -1    0    0    0  501 -0.00000000000E+00  0.00000000000E+00  0.42933341666E+02  0.42952121328E+02  0.12700000000E+01 0. -1.
         21   -1    0    0  501  502  0.00000000000E+00 -0.00000000000E+00 -0.24456693275E+03  0.24456693275E+03  0.00000000000E+00 0. -1.
         25    2    1    2    0    0 -0.27491398184E+02 -0.31758771209E+01 -0.56792616888E+02  0.14005250236E+03  0.12499375550E+03 0.  0.
    9000005    1    3    3    0    0  0.22949082932E+02  0.10072431127E+02 -0.79352342628E+02  0.83222043695E+02  0.10000000000E+01 0.  0.
    9000005    1    3    3    0    0 -0.50440481116E+02 -0.13248308248E+02  0.22559725740E+02  0.56830458665E+02  0.10000000000E+01 0.  0.
         -4    1    1    2    0  502  0.27491398184E+02  0.31758771209E+01 -0.14484097419E+03  0.14746655172E+03  0.12700000000E+01 0.  1.
<mgrwt>
<rscale>  1 0.12802071E+03</rscale>
<asrwt>0</asrwt>
<pdfrwt beam="2">  1       21 0.37625682E-01 0.12802071E+03</pdfrwt>
<pdfrwt beam="1">  1       -4 0.66068277E-02 0.12802071E+03</pdfrwt>
<totfact> 0.41791001E+04</totfact>
</mgrwt>
</event>
<event>
 6    3  0.3813045E-003  0.1268915E+03  0.7818608E-02  0.1232142E+00
         21   -1    0    0  501  502  0.00000000000E+00  0.00000000000E+00  0.11077911299E+03  0.11077911299E+03  0.00000000000E+00 0.  1.
         -4   -1    0    0    0  501 -0.00000000000E+00 -0.00000000000E+00 -0.33498455614E+03  0.33498696356E+03  0.12700000000E+01 0. -1.
         25    2    1    2    0    0 -0.12357237341E+02  0.18127258736E+02 -0.32170227958E+03  0.34582336876E+03  0.12498058597E+03 0.  0.
    9000005    1    3    3    0    0  0.33586689585E+02 -0.40231773751E+02 -0.14256150956E+03  0.15189287457E+03  0.10000000000E+01 0.  0.
    9000005    1    3    3    0    0 -0.45943926927E+02  0.58359032487E+02 -0.17914077002E+03  0.19393049419E+03  0.10000000000E+01 0.  0.
         -4    1    1    2    0  502  0.12357237341E+02 -0.18127258736E+02  0.97496836438E+02  0.99942707785E+02  0.12700000000E+01 0.  1.
<mgrwt>
<rscale>  1 0.12689147E+03</rscale>
<asrwt>0</asrwt>
<pdfrwt beam="1">  1       21 0.17042940E-01 0.12689147E+03</pdfrwt>
<pdfrwt beam="2">  1       -4 0.51536831E-01 0.12689147E+03</pdfrwt>
<totfact> 0.46422608E+03</totfact>
</mgrwt>
</event>
<event>
 6    3  0.3813045E-003  0.1348619E+03  0.7818608E-02  0.1220415E+00
         21   -1    0    0  501  502  0.00000000000E+00  0.00000000000E+00  0.32792307704E+03  0.32792307704E+03  0.00000000000E+00 0.  1.
          4   -1    0    0  502    0 -0.00000000000E+00 -0.00000000000E+00 -0.33985844391E+02  0.34009565110E+02  0.12700000000E+01 0. -1.
         25    2    1    2    0    0  0.43302289724E+01 -0.50439781788E+02  0.11914915265E+03  0.17995624730E+03  0.12499923159E+03 0.  0.
    9000005    1    3    3    0    0 -0.74811870764E+00 -0.78259742325E+02  0.25799858135E+02  0.82412254126E+02  0.10000000000E+01 0.  0.
    9000005    1    3    3    0    0  0.50783476800E+01  0.27819960537E+02  0.93349294512E+02  0.97543993179E+02  0.10000000000E+01 0.  0.
          4    1    1    2  501    0 -0.43302289724E+01  0.50439781788E+02  0.17478808000E+03  0.18197639485E+03  0.12700000000E+01 0.  1.
<mgrwt>
<rscale>  1 0.13486189E+03</rscale>
<asrwt>0</asrwt>
<pdfrwt beam="1">  1       21 0.50449702E-01 0.13486189E+03</pdfrwt>
<pdfrwt beam="2">  1        4 0.52306055E-02 0.13486189E+03</pdfrwt>
<totfact> 0.33897576E+04</totfact>
</mgrwt>
</event>
<event>
 6    3  0.3813045E-003  0.1339259E+03  0.7818608E-02  0.1221744E+00
         21   -1    0    0  501  502  0.00000000000E+00  0.00000000000E+00  0.10544334612E+03  0.10544334612E+03  0.00000000000E+00 0. -1.
          4   -1    0    0  502    0 -0.00000000000E+00 -0.00000000000E+00 -0.16165502070E+03  0.16166000933E+03  0.12700000000E+01 0.  1.
         25    2    1    2    0    0 -0.24717108844E+02  0.41226192316E+02 -0.12498527460E+03  0.18318699612E+03  0.12500248909E+03 0.  0.
    9000005    1    3    3    0    0 -0.29672343875E+02  0.84066168913E+02 -0.97098999134E+02  0.13182103163E+03  0.10000000000E+01 0.  0.
    9000005    1    3    3    0    0  0.49552350310E+01 -0.42839976597E+02 -0.27886275469E+02  0.51365964496E+02  0.10000000000E+01 0.  0.
          4    1    1    2  501    0  0.24717108844E+02 -0.41226192316E+02  0.68773600029E+02  0.83916359331E+02  0.12700000000E+01 0. -1.
<mgrwt>
<rscale>  1 0.13392594E+03</rscale>
<asrwt>0</asrwt>
<pdfrwt beam="1">  1       21 0.16222053E-01 0.13392594E+03</pdfrwt>
<pdfrwt beam="2">  1        4 0.24870975E-01 0.13392594E+03</pdfrwt>
<totfact> 0.20939389E+04</totfact>
</mgrwt>
</event>
<event>
 6    3  0.3813045E-003  0.1268780E+03  0.7818608E-02  0.1232163E+00
         21   -1    0    0  501  502  0.00000000000E+00  0.00000000000E+00  0.42271274837E+02  0.42271274837E+02  0.00000000000E+00 0.  1.
         -4   -1    0    0    0  501 -0.00000000000E+00 -0.00000000000E+00 -0.24520817605E+03  0.24521146486E+03  0.12700000000E+01 0.  1.
         25    2    1    2    0    0 -0.48142729195E+01 -0.21208118714E+02 -0.22383566997E+03  0.25729444795E+03  0.12500025708E+03 0.  0.
    9000005    1    3    3    0    0 -0.43282971962E+02 -0.49219980792E+02 -0.18366120602E+03  0.19500887356E+03  0.10000000000E+01 0.  0.
    9000005    1    3    3    0    0  0.38468699042E+02  0.28011862078E+02 -0.40174463955E+02  0.62285574390E+02  0.10000000000E+01 0.  0.
         -4    1    1    2    0  502  0.48142729195E+01  0.21208118714E+02  0.20898768761E+02  0.30188291751E+02  0.12700000000E+01 0. -1.
<mgrwt>
<rscale>  1 0.12687800E+03</rscale>
<asrwt>0</asrwt>
<pdfrwt beam="1">  1       21 0.65032731E-02 0.12687800E+03</pdfrwt>
<pdfrwt beam="2">  1       -4 0.37726055E-01 0.12687800E+03</pdfrwt>
<totfact> 0.47005176E+04</totfact>
</mgrwt>
</event>
<event>
 6    3  0.3813045E-003  0.1290675E+03  0.7818608E-02  0.1228846E+00
         21   -1    0    0  501  502  0.00000000000E+00  0.00000000000E+00  0.28119396651E+03  0.28119396651E+03  0.00000000000E+00 0. -1.
         -4   -1    0    0    0  501 -0.00000000000E+00 -0.00000000000E+00 -0.96375420459E+02  0.96383787894E+02  0.12700000000E+01 0.  1.
         25    2    1    2    0    0 -0.46323014587E+01 -0.31814236576E+02 -0.51585279178E+02  0.13899446633E+03  0.12499926710E+03 0.  0.
    9000005    1    3    3    0    0 -0.47948093538E+02 -0.50936533628E+02 -0.58418923977E+02  0.91144505104E+02  0.10000000000E+01 0.  0.
    9000005    1    3    3    0    0  0.43315792080E+02  0.19122297052E+02  0.68336447987E+01  0.47849961226E+02  0.10000000000E+01 0.  0.
         -4    1    1    2    0  502  0.46323014587E+01  0.31814236576E+02  0.23640382523E+03  0.23858328808E+03  0.12700000000E+01 0. -1.
<mgrwt>
<rscale>  1 0.12906750E+03</rscale>
<asrwt>0</asrwt>
<pdfrwt beam="1">  1       21 0.43260610E-01 0.12906750E+03</pdfrwt>
<pdfrwt beam="2">  1       -4 0.14827852E-01 0.12906750E+03</pdfrwt>
<totfact> 0.81102775E+03</totfact>
</mgrwt>
</event>
<event>
 6    3  0.3813045E-003  0.1274627E+03  0.7818608E-02  0.1231270E+00
         21   -1    0    0  501  502  0.00000000000E+00  0.00000000000E+00  0.95188367114E+02  0.95188367114E+02  0.00000000000E+00 0. -1.
         -4   -1    0    0    0  501 -0.00000000000E+00 -0.00000000000E+00 -0.14873988819E+03  0.14874530997E+03  0.12700000000E+01 0.  1.
         25    2    1    2    0    0 -0.18163184922E+02  0.17083147264E+02 -0.11869468087E+03  0.17416993740E+03  0.12500001848E+03 0.  0.
    9000005    1    3    3    0    0 -0.69585829381E+02  0.24430802044E+02 -0.83533903255E+02  0.11143592209E+03  0.10000000000E+01 0.  0.
    9000005    1    3    3    0    0  0.51422644459E+02 -0.73476547802E+01 -0.35160777613E+02  0.62734015305E+02  0.10000000000E+01 0.  0.
         -4    1    1    2    0  502  0.18163184922E+02 -0.17083147264E+02  0.65143159795E+02  0.69763739687E+02  0.12700000000E+01 0. -1.
<mgrwt>
<rscale>  1 0.12746270E+03</rscale>
<asrwt>0</asrwt>
<pdfrwt beam="1">  1       21 0.14644364E-01 0.12746270E+03</pdfrwt>
<pdfrwt beam="2">  1       -4 0.22884128E-01 0.12746270E+03</pdfrwt>
<totfact> 0.29193256E+04</totfact>
</mgrwt>
</event>
<event>
 6    3  0.3813045E-003  0.1266413E+03  0.7818608E-02  0.1232526E+00
         -4   -1    0    0    0  501 -0.00000000000E+00  0.00000000000E+00  0.35388766030E+03  0.35388993912E+03  0.12700000000E+01 0. -1.
         21   -1    0    0  501  502  0.00000000000E+00 -0.00000000000E+00 -0.22894629771E+02  0.22894629771E+02  0.00000000000E+00 0.  1.
         25    2    1    2    0    0  0.19465686946E+02 -0.58153701247E+01  0.33306017309E+03  0.35632442528E+03  0.12500114263E+03 0.  0.
    9000005    1    3    3    0    0  0.38598384078E+02  0.40497629705E+02  0.75730931182E+02  0.94159796106E+02  0.10000000000E+01 0.  0.
    9000005    1    3    3    0    0 -0.19132697131E+02 -0.46312999830E+02  0.25732924190E+03  0.26216462918E+03  0.10000000000E+01 0.  0.
         -4    1    1    2    0  502 -0.19465686946E+02  0.58153701247E+01 -0.20671425620E+01  0.20460143605E+02  0.12700000000E+01 0.  1.
<mgrwt>
<rscale>  1 0.12664129E+03</rscale>
<asrwt>0</asrwt>
<pdfrwt beam="2">  1       21 0.35222510E-02 0.12664129E+03</pdfrwt>
<pdfrwt beam="1">  1       -4 0.54447136E-01 0.12664129E+03</pdfrwt>
<totfact> 0.62955917E+04</totfact>
</mgrwt>
</event>
<event>
 6    3  0.3813045E-003  0.1441469E+03  0.7818608E-02  0.1207855E+00
          4   -1    0    0  502    0 -0.00000000000E+00  0.00000000000E+00  0.17537302526E+02  0.17583227231E+02  0.12700000000E+01 0.  1.
         21   -1    0    0  501  502  0.00000000000E+00 -0.00000000000E+00 -0.73356428690E+03  0.73356428690E+03  0.00000000000E+00 0. -1.
         25    2    1    2    0    0 -0.67898820945E+02  0.23312494646E+02 -0.35684443988E+03  0.38485878176E+03  0.12499842132E+03 0.  0.
    9000005    1    3    3    0    0  0.88199791565E+01 -0.34744982335E+01  0.71416505202E+01  0.11910807800E+02  0.10000000000E+01 0.  0.
    9000005    1    3    3    0    0 -0.76718800101E+02  0.26786992879E+02 -0.36398609040E+03  0.37294797396E+03  0.10000000000E+01 0.  0.
          4    1    1    2  501    0  0.67898820945E+02 -0.23312494646E+02 -0.35918254450E+03  0.36628873237E+03  0.12700000000E+01 0. -1.
<mgrwt>
<rscale>  1 0.14414690E+03</rscale>
<asrwt>0</asrwt>
<pdfrwt beam="2">  1       21 0.11285601E+00 0.14414690E+03</pdfrwt>
<pdfrwt beam="1">  1        4 0.27016645E-02 0.14414690E+03</pdfrwt>
<totfact> 0.16206517E+04</totfact>
</mgrwt>
</event>
<event>
 6    3  0.3813045E-003  0.1478466E+03  0.7818608E-02  0.1203144E+00
          4   -1    0    0  502    0 -0.00000000000E+00  0.00000000000E+00  0.11907955138E+02  0.11975487279E+02  0.12700000000E+01 0.  1.
         21   -1    0    0  501  502  0.00000000000E+00 -0.00000000000E+00 -0.18673104603E+04  0.18673104603E+04  0.00000000000E+00 0. -1.
         25    2    1    2    0    0  0.45811278834E+02 -0.64304654444E+02 -0.49535332564E+03  0.51694636236E+03  0.12499944991E+03 0.  0.
    9000005    1    3    3    0    0 -0.14728674750E+02 -0.17249806766E+02 -0.36503820654E+03  0.36574360135E+03  0.10000000000E+01 0.  0.
    9000005    1    3    3    0    0  0.60539953584E+02 -0.47054847678E+02 -0.13031511910E+03  0.15120276101E+03  0.10000000000E+01 0.  0.
          4    1    1    2  501    0 -0.45811278834E+02  0.64304654444E+02 -0.13600491796E+04  0.13623395853E+04  0.12700000000E+01 0. -1.
<mgrwt>
<rscale>  1 0.14784662E+03</rscale>
<asrwt>0</asrwt>
<pdfrwt beam="2">  1       21 0.28727854E+00 0.14784662E+03</pdfrwt>
<pdfrwt beam="1">  1        4 0.18372211E-02 0.14784662E+03</pdfrwt>
<totfact> 0.20113549E+03</totfact>
</mgrwt>
</event>
<event>
 6    3  0.3813045E-003  0.1409910E+03  0.7818608E-02  0.1212002E+00
         21   -1    0    0  501  502  0.00000000000E+00  0.00000000000E+00  0.86577481195E+02  0.86577481195E+02  0.00000000000E+00 0. -1.
         -4   -1    0    0    0  501 -0.00000000000E+00 -0.00000000000E+00 -0.63642919590E+03  0.63643046305E+03  0.12700000000E+01 0.  1.
         25    2    1    2    0    0  0.56674714268E+02 -0.32274426242E+02 -0.61491696782E+03  0.63087346704E+03  0.12499916913E+03 0.  0.
    9000005    1    3    3    0    0  0.66346449071E+02  0.30246984051E+02 -0.40916124378E+03  0.41560877608E+03  0.10000000000E+01 0.  0.
    9000005    1    3    3    0    0 -0.96717348034E+01 -0.62521410293E+02 -0.20575572404E+03  0.21526469096E+03  0.10000000000E+01 0.  0.
         -4    1    1    2    0  502 -0.56674714268E+02  0.32274426242E+02  0.65065253110E+02  0.92134477200E+02  0.12700000000E+01 0. -1.
<mgrwt>
<rscale>  1 0.14099097E+03</rscale>
<asrwt>0</asrwt>
<pdfrwt beam="1">  1       21 0.13319613E-01 0.14099097E+03</pdfrwt>
<pdfrwt beam="2">  1       -4 0.97912998E-01 0.14099097E+03</pdfrwt>
<totfact> 0.18159602E+03</totfact>
</mgrwt>
</event>
<event>
 6    3  0.3813045E-003  0.1507265E+03  0.7818608E-02  0.1199583E+00
         21   -1    0    0  501  502  0.00000000000E+00  0.00000000000E+00  0.27105718213E+02  0.27105718213E+02  0.00000000000E+00 0. -1.
         -4   -1    0    0    0  501 -0.00000000000E+00 -0.00000000000E+00 -0.56839977395E+03  0.56840119276E+03  0.12700000000E+01 0.  1.
         25    2    1    2    0    0  0.62675500189E+02 -0.56237238858E+02 -0.43193639885E+03  0.45747953913E+03  0.12501052239E+03 0.  0.
    9000005    1    3    3    0    0  0.37616515084E+02 -0.30755876991E+02 -0.37394622431E+02  0.61321154288E+02  0.10000000000E+01 0.  0.
    9000005    1    3    3    0    0  0.25058985105E+02 -0.25481361867E+02 -0.39454177642E+03  0.39615838484E+03  0.10000000000E+01 0.  0.
         -4    1    1    2    0  502 -0.62675500189E+02  0.56237238858E+02 -0.10935765689E+03  0.13802737185E+03  0.12700000000E+01 0. -1.
<mgrwt>
<rscale>  1 0.15072649E+03</rscale>
<asrwt>0</asrwt>
<pdfrwt beam="1">  1       21 0.41701107E-02 0.15072649E+03</pdfrwt>
<pdfrwt beam="2">  1       -4 0.87448513E-01 0.15072649E+03</pdfrwt>
<totfact> 0.17492399E+04</totfact>
</mgrwt>
</event>
<event>
 6    3  0.3813045E-003  0.1336346E+03  0.7818608E-02  0.1222160E+00
          4   -1    0    0  502    0 -0.00000000000E+00  0.00000000000E+00  0.36121031826E+03  0.36121255089E+03  0.12700000000E+01 0. -1.
         21   -1    0    0  501  502  0.00000000000E+00 -0.00000000000E+00 -0.51982188064E+02  0.51982188064E+02  0.00000000000E+00 0.  1.
         25    2    1    2    0    0 -0.26118505911E+02  0.39386617400E+02  0.33405692612E+03  0.35979470160E+03  0.12499886171E+03 0.  0.
    9000005    1    3    3    0    0 -0.16180280249E+02  0.44682249837E+02  0.34243825565E+03  0.34572136736E+03  0.10000000000E+01 0.  0.
    9000005    1    3    3    0    0 -0.99382256617E+01 -0.52956324371E+01 -0.83813295212E+01  0.14073334244E+02  0.10000000000E+01 0.  0.
          4    1    1    2  501    0  0.26118505911E+02 -0.39386617400E+02 -0.24828795928E+02  0.53400037345E+02  0.12700000000E+01 0.  1.
<mgrwt>
<rscale>  1 0.13363457E+03</rscale>
<asrwt>0</asrwt>
<pdfrwt beam="2">  1       21 0.79972599E-02 0.13363457E+03</pdfrwt>
<pdfrwt beam="1">  1        4 0.55572182E-01 0.13363457E+03</pdfrwt>
<totfact> 0.15242004E+04</totfact>
</mgrwt>
</event>
<event>
 6    3  0.3813045E-003  0.1287472E+03  0.7818608E-02  0.1229327E+00
         -4   -1    0    0    0  501 -0.00000000000E+00  0.00000000000E+00  0.17284629274E+03  0.17285095838E+03  0.12700000000E+01 0.  1.
         21   -1    0    0  501  502  0.00000000000E+00 -0.00000000000E+00 -0.52107588759E+02  0.52107588759E+02  0.00000000000E+00 0. -1.
         25    2    1    2    0    0  0.17113280901E+02 -0.25665392434E+02  0.13869643068E+03  0.18924202995E+03  0.12499707703E+03 0.  0.
    9000005    1    3    3    0    0  0.17814283814E+02 -0.74877685708E+02  0.65715126803E+02  0.10121014976E+03  0.10000000000E+01 0.  0.
    9000005    1    3    3    0    0 -0.70100291287E+00  0.49212293274E+02  0.72981303875E+02  0.88031880189E+02  0.10000000000E+01 0.  0.
         -4    1    1    2    0  502 -0.17113280901E+02  0.25665392434E+02 -0.17957726696E+02  0.35716517189E+02  0.12700000000E+01 0. -1.
<mgrwt>
<rscale>  1 0.12874722E+03</rscale>
<asrwt>0</asrwt>
<pdfrwt beam="2">  1       21 0.80165522E-02 0.12874722E+03</pdfrwt>
<pdfrwt beam="1">  1       -4 0.26593286E-01 0.12874722E+03</pdfrwt>
<totfact> 0.63996998E+04</totfact>
</mgrwt>
</event>
<event>
 6    3  0.3813045E-003  0.1386331E+03  0.7818608E-02  0.1215180E+00
         21   -1    0    0  501  502  0.00000000000E+00  0.00000000000E+00  0.37811759214E+03  0.37811759214E+03  0.00000000000E+00 0.  1.
         -4   -1    0    0    0  501 -0.00000000000E+00 -0.00000000000E+00 -0.34394108856E+02  0.34417548198E+02  0.12700000000E+01 0.  1.
         25    2    1    2    0    0  0.37458757195E+02 -0.46805024799E+02  0.12819244922E+03  0.18881855986E+03  0.12500110269E+03 0.  0.
    9000005    1    3    3    0    0  0.48183257101E+01  0.33315633692E+02  0.86404407714E+02  0.92735480714E+02  0.10000000000E+01 0.  0.
    9000005    1    3    3    0    0  0.32640431485E+02 -0.80120658491E+02  0.41788041503E+02  0.96083079141E+02  0.10000000000E+01 0.  0.
         -4    1    1    2    0  502 -0.37458757195E+02  0.46805024799E+02  0.21553103407E+03  0.22371658049E+03  0.12700000000E+01 0. -1.
<mgrwt>
<rscale>  1 0.13863313E+03</rscale>
<asrwt>0</asrwt>
<pdfrwt beam="1">  1       21 0.58171934E-01 0.13863313E+03</pdfrwt>
<pdfrwt beam="2">  1       -4 0.52933687E-02 0.13863313E+03</pdfrwt>
<totfact> 0.24747268E+04</totfact>
</mgrwt>
</event>
<event>
 6    3  0.3813045E-003  0.1898963E+03  0.7818608E-02  0.1158555E+00
         21   -1    0    0  501  502  0.00000000000E+00  0.00000000000E+00  0.13598181464E+03  0.13598181464E+03  0.00000000000E+00 0.  1.
         -4   -1    0    0    0  501 -0.00000000000E+00 -0.00000000000E+00 -0.20447622572E+03  0.20448016966E+03  0.12700000000E+01 0.  1.
         25    2    1    2    0    0  0.74142502310E+02 -0.12221688043E+03 -0.28531372952E+02  0.19202770986E+03  0.12500610226E+03 0.  0.
    9000005    1    3    3    0    0  0.56139081201E+02 -0.94677338698E+02 -0.76359265035E+02  0.13396690732E+03  0.10000000000E+01 0.  0.
    9000005    1    3    3    0    0  0.18003421109E+02 -0.27539541734E+02  0.47827892083E+02  0.58060802540E+02  0.10000000000E+01 0.  0.
         -4    1    1    2    0  502 -0.74142502310E+02  0.12221688043E+03 -0.39963038129E+02  0.14843427444E+03  0.12700000000E+01 0. -1.
<mgrwt>
<rscale>  1 0.18989629E+03</rscale>
<asrwt>0</asrwt>
<pdfrwt beam="1">  1       21 0.20920279E-01 0.18989629E+03</pdfrwt>
<pdfrwt beam="2">  1       -4 0.31458640E-01 0.18989629E+03</pdfrwt>
<totfact> 0.86570987E+03</totfact>
</mgrwt>
</event>
<event>
 6    3  0.3813045E-003  0.1268275E+03  0.7818608E-02  0.1232241E+00
         21   -1    0    0  501  502  0.00000000000E+00  0.00000000000E+00  0.38086286308E+02  0.38086286308E+02  0.00000000000E+00 0. -1.
          4   -1    0    0  502    0 -0.00000000000E+00 -0.00000000000E+00 -0.15253735569E+03  0.15254264250E+03  0.12700000000E+01 0. -1.
         25    2    1    2    0    0 -0.18914196027E+02  0.99499350393E+01 -0.11177528263E+03  0.16905299885E+03  0.12501381762E+03 0.  0.
    9000005    1    3    3    0    0  0.21293998790E+02  0.44022462746E+01 -0.12459005333E+03  0.12647725307E+03  0.10000000000E+01 0.  0.
    9000005    1    3    3    0    0 -0.40208194817E+02  0.55476887647E+01  0.12814770691E+02  0.42575745783E+02  0.10000000000E+01 0.  0.
          4    1    1    2  501    0  0.18914196027E+02 -0.99499350393E+01 -0.26757867464E+01  0.21575929954E+02  0.12700000000E+01 0.  1.
<mgrwt>
<rscale>  1 0.12682745E+03</rscale>
<asrwt>0</asrwt>
<pdfrwt beam="1">  1       21 0.58594288E-02 0.12682745E+03</pdfrwt>
<pdfrwt beam="2">  1        4 0.23469320E-01 0.12682745E+03</pdfrwt>
<totfact> 0.13734967E+05</totfact>
</mgrwt>
</event>
<event>
 6    3  0.3813045E-003  0.1282838E+03  0.7818608E-02  0.1230025E+00
         21   -1    0    0  501  502  0.00000000000E+00  0.00000000000E+00  0.61780265691E+03  0.61780265691E+03  0.00000000000E+00 0.  1.
         -4   -1    0    0    0  501 -0.00000000000E+00 -0.00000000000E+00 -0.16668277500E+02  0.16716589809E+02  0.12700000000E+01 0. -1.
         25    2    1    2    0    0  0.16169467976E+02 -0.23836436000E+02  0.23911370196E+03  0.27135232755E+03  0.12500838303E+03 0.  0.
    9000005    1    3    3    0    0 -0.49367147455E+02  0.33251359703E+01  0.54718802305E+02  0.73778852680E+02  0.10000000000E+01 0.  0.
    9000005    1    3    3    0    0  0.65536615431E+02 -0.27161571971E+02  0.18439489965E+03  0.19757347487E+03  0.10000000000E+01 0.  0.
         -4    1    1    2    0  502 -0.16169467976E+02  0.23836436000E+02  0.36202067745E+03  0.36316691917E+03  0.12700000000E+01 0.  1.
<mgrwt>
<rscale>  1 0.12828376E+03</rscale>
<asrwt>0</asrwt>
<pdfrwt beam="1">  1       21 0.95046545E-01 0.12828376E+03</pdfrwt>
<pdfrwt beam="2">  1       -4 0.25681676E-02 0.12828376E+03</pdfrwt>
<totfact> 0.26093605E+04</totfact>
</mgrwt>
</event>
<event>
 6    3  0.3813045E-003  0.1301466E+03  0.7818608E-02  0.1227238E+00
          4   -1    0    0  502    0 -0.00000000000E+00  0.00000000000E+00  0.96255229818E+03  0.96255313600E+03  0.12700000000E+01 0.  1.
         21   -1    0    0  501  502  0.00000000000E+00 -0.00000000000E+00 -0.82289762187E+01  0.82289762187E+01  0.00000000000E+00 0.  1.
         25    2    1    2    0    0 -0.29223026907E+02 -0.21410835034E+02  0.85892057079E+03  0.86872474115E+03  0.12500287920E+03 0.  0.
    9000005    1    3    3    0    0  0.36807670254E+02 -0.45778083080E+02  0.44506042298E+03  0.44892117079E+03  0.10000000000E+01 0.  0.
    9000005    1    3    3    0    0 -0.66030697162E+02  0.24367248046E+02  0.41386014781E+03  0.41980357036E+03  0.10000000000E+01 0.  0.
          4    1    1    2  501    0  0.29223026907E+02  0.21410835034E+02  0.95402751171E+02  0.10205737107E+03  0.12700000000E+01 0. -1.
<mgrwt>
<rscale>  1 0.13014657E+03</rscale>
<asrwt>0</asrwt>
<pdfrwt beam="2">  1       21 0.12659971E-02 0.13014657E+03</pdfrwt>
<pdfrwt beam="1">  1        4 0.14809248E+00 0.13014657E+03</pdfrwt>
<totfact> 0.34119621E+04</totfact>
</mgrwt>
</event>
<event>
 6    3  0.3813045E-003  0.1282336E+03  0.7818608E-02  0.1230101E+00
         -4   -1    0    0    0  501 -0.00000000000E+00  0.00000000000E+00  0.12741346961E+03  0.12741979885E+03  0.12700000000E+01 0.  1.
         21   -1    0    0  501  502  0.00000000000E+00 -0.00000000000E+00 -0.50757718237E+02  0.50757718237E+02  0.00000000000E+00 0.  1.
         25    2    1    2    0    0 -0.25658297987E+02  0.12671688272E+02  0.76914203848E+02  0.14953140676E+03  0.12499970766E+03 0.  0.
    9000005    1    3    3    0    0 -0.38484208367E+02 -0.14605026092E+02  0.10219548947E+03  0.11017830616E+03  0.10000000000E+01 0.  0.
    9000005    1    3    3    0    0  0.12825910381E+02  0.27276714364E+02 -0.25281285624E+02  0.39353100594E+02  0.10000000000E+01 0.  0.
         -4    1    1    2    0  502  0.25658297987E+02 -0.12671688272E+02 -0.25845247244E+00  0.28646110328E+02  0.12700000000E+01 0. -1.
<mgrwt>
<rscale>  1 0.12823356E+03</rscale>
<asrwt>0</asrwt>
<pdfrwt beam="2">  1       21 0.78088798E-02 0.12823356E+03</pdfrwt>
<pdfrwt beam="1">  1       -4 0.19603781E-01 0.12823356E+03</pdfrwt>
<totfact> 0.11673211E+05</totfact>
</mgrwt>
</event>
<event>
 6    3  0.3813045E-003  0.1340083E+03  0.7818608E-02  0.1221626E+00
         21   -1    0    0  501  502  0.00000000000E+00  0.00000000000E+00  0.23438881267E+02  0.23438881267E+02  0.00000000000E+00 0.  1.
          4   -1    0    0  502    0 -0.00000000000E+00 -0.00000000000E+00 -0.48790084341E+03  0.48790249631E+03  0.12700000000E+01 0.  1.
         25    2    1    2    0    0  0.99911935192E+01  0.47261471385E+02 -0.43400074061E+03  0.45421896916E+03  0.12499903388E+03 0.  0.
    9000005    1    3    3    0    0 -0.42938365368E+02  0.41214045000E+01 -0.59243587472E+02  0.73290462217E+02  0.10000000000E+01 0.  0.
    9000005    1    3    3    0    0  0.52929558887E+02  0.43140066885E+02 -0.37475715314E+03  0.38092850694E+03  0.10000000000E+01 0.  0.
          4    1    1    2  501    0 -0.99911935192E+01 -0.47261471385E+02 -0.30461221536E+02  0.57122408413E+02  0.12700000000E+01 0. -1.
<mgrwt>
<rscale>  1 0.13400832E+03</rscale>
<asrwt>0</asrwt>
<pdfrwt beam="1">  1       21 0.36059819E-02 0.13400832E+03</pdfrwt>
<pdfrwt beam="2">  1        4 0.75064439E-01 0.13400832E+03</pdfrwt>
<totfact> 0.30862426E+04</totfact>
</mgrwt>
</event>
<event>
 6    3  0.3813045E-003  0.1298144E+03  0.7818608E-02  0.1227731E+00
         21   -1    0    0  501  502  0.00000000000E+00  0.00000000000E+00  0.10335742558E+03  0.10335742558E+03  0.00000000000E+00 0. -1.
          4   -1    0    0  502    0 -0.00000000000E+00 -0.00000000000E+00 -0.99137464787E+02  0.99145599117E+02  0.12700000000E+01 0.  1.
         25    2    1    2    0    0  0.26901282487E+02 -0.22438194170E+02 -0.49018257146E+02  0.13876079140E+03  0.12499846454E+03 0.  0.
    9000005    1    3    3    0    0  0.41635485323E+02 -0.64902459406E+02 -0.53081072535E+02  0.93618604650E+02  0.10000000000E+01 0.  0.
    9000005    1    3    3    0    0 -0.14734202836E+02  0.42464265236E+02  0.40628153897E+01  0.45142186745E+02  0.10000000000E+01 0.  0.
          4    1    1    2  501    0 -0.26901282487E+02  0.22438194170E+02  0.53238217940E+02  0.63742233304E+02  0.12700000000E+01 0. -1.
<mgrwt>
<rscale>  1 0.12981436E+03</rscale>
<asrwt>0</asrwt>
<pdfrwt beam="1">  1       21 0.15901142E-01 0.12981436E+03</pdfrwt>
<pdfrwt beam="2">  1        4 0.15253144E-01 0.12981436E+03</pdfrwt>
<totfact> 0.52002428E+04</totfact>
</mgrwt>
</event>
<event>
 6    3  0.3813045E-003  0.1269634E+03  0.7818608E-02  0.1232032E+00
         21   -1    0    0  501  502  0.00000000000E+00  0.00000000000E+00  0.17273044596E+03  0.17273044596E+03  0.00000000000E+00 0.  1.
         -4   -1    0    0    0  501 -0.00000000000E+00 -0.00000000000E+00 -0.16469881673E+03  0.16470371317E+03  0.12700000000E+01 0. -1.
         25    2    1    2    0    0 -0.75849025242E+01 -0.20657045601E+02 -0.13929083441E+03  0.18847186365E+03  0.12504184323E+03 0.  0.
    9000005    1    3    3    0    0 -0.24461014654E+02 -0.48969748375E+02 -0.14501249181E+03  0.15500322666E+03  0.10000000000E+01 0.  0.
    9000005    1    3    3    0    0  0.16876112130E+02  0.28312702774E+02  0.57216573949E+01  0.33468636996E+02  0.10000000000E+01 0.  0.
         -4    1    1    2    0  502  0.75849025242E+01  0.20657045601E+02  0.14732246364E+03  0.14896229547E+03  0.12700000000E+01 0.  1.
<mgrwt>
<rscale>  1 0.12696341E+03</rscale>
<asrwt>0</asrwt>
<pdfrwt beam="1">  1       21 0.26573915E-01 0.12696341E+03</pdfrwt>
<pdfrwt beam="2">  1       -4 0.25339015E-01 0.12696341E+03</pdfrwt>
<totfact> 0.80523079E+03</totfact>
</mgrwt>
</event>
<event>
 6    3  0.3813045E-003  0.1274570E+03  0.7818608E-02  0.1231279E+00
         -4   -1    0    0    0  501 -0.00000000000E+00  0.00000000000E+00  0.85151470530E+02  0.85160940773E+02  0.12700000000E+01 0.  1.
         21   -1    0    0  501  502  0.00000000000E+00 -0.00000000000E+00 -0.21369949999E+03  0.21369949999E+03  0.00000000000E+00 0. -1.
         25    2    1    2    0    0  0.96259907313E+01  0.22890608247E+02  0.36000658475E+02  0.13244372512E+03  0.12501461223E+03 0.  0.
    9000005    1    3    3    0    0 -0.57629035461E+02  0.49974635734E+01  0.16041188185E+02  0.60036656208E+02  0.10000000000E+01 0.  0.
    9000005    1    3    3    0    0  0.67255026192E+02  0.17893144674E+02  0.19959470290E+02  0.72407068914E+02  0.10000000000E+01 0.  0.
         -4    1    1    2    0  502 -0.96259907313E+01 -0.22890608247E+02 -0.16454868794E+03  0.16641671564E+03  0.12700000000E+01 0. -1.
<mgrwt>
<rscale>  1 0.12745702E+03</rscale>
<asrwt>0</asrwt>
<pdfrwt beam="2">  1       21 0.32876846E-01 0.12745702E+03</pdfrwt>
<pdfrwt beam="1">  1       -4 0.13101245E-01 0.12745702E+03</pdfrwt>
<totfact> 0.17303751E+04</totfact>
</mgrwt>
</event>
<event>
 6    3  0.3813045E-003  0.1286238E+03  0.7818608E-02  0.1229512E+00
         21   -1    0    0  501  502  0.00000000000E+00  0.00000000000E+00  0.62576084335E+02  0.62576084335E+02  0.00000000000E+00 0.  1.
         -4   -1    0    0    0  501 -0.00000000000E+00 -0.00000000000E+00 -0.24903233561E+03  0.24903557393E+03  0.12700000000E+01 0. -1.
         25    2    1    2    0    0 -0.19282653615E+02 -0.23389216136E+02 -0.22703873203E+03  0.26094187628E+03  0.12500080317E+03 0.  0.
    9000005    1    3    3    0    0 -0.26855002955E+02 -0.26618322912E+02 -0.43222830728E+01  0.38071097033E+02  0.10000000000E+01 0.  0.
    9000005    1    3    3    0    0  0.75723493393E+01  0.32291067761E+01 -0.22271644896E+03  0.22287077925E+03  0.10000000000E+01 0.  0.
         -4    1    1    2    0  502  0.19282653615E+02  0.23389216136E+02  0.40582480754E+02  0.50669781981E+02  0.12700000000E+01 0.  1.
<mgrwt>
<rscale>  1 0.12862378E+03</rscale>
<asrwt>0</asrwt>
<pdfrwt beam="1">  1       21 0.96270900E-02 0.12862378E+03</pdfrwt>
<pdfrwt beam="2">  1       -4 0.38313907E-01 0.12862378E+03</pdfrwt>
<totfact> 0.23239992E+04</totfact>
</mgrwt>
</event>
<event>
 6    3  0.3813045E-003  0.1413605E+03  0.7818608E-02  0.1211510E+00
          4   -1    0    0  502    0 -0.00000000000E+00  0.00000000000E+00  0.34176160159E+02  0.34199748877E+02  0.12700000000E+01 0.  1.
         21   -1    0    0  501  502  0.00000000000E+00 -0.00000000000E+00 -0.60407930681E+03  0.60407930681E+03  0.00000000000E+00 0. -1.
         25    2    1    2    0    0 -0.56409864436E+02  0.34258644390E+02 -0.12559729212E+03  0.18909642825E+03  0.12500820720E+03 0.  0.
    9000005    1    3    3    0    0 -0.42224589448E+02 -0.29020180685E+02 -0.11151808402E+03  0.12272884708E+03  0.10000000000E+01 0.  0.
    9000005    1    3    3    0    0 -0.14185274988E+02  0.63278825076E+02 -0.14079208094E+02  0.66367581167E+02  0.10000000000E+01 0.  0.
          4    1    1    2  501    0  0.56409864436E+02 -0.34258644390E+02 -0.44430585454E+03  0.44918262744E+03  0.12700000000E+01 0. -1.
<mgrwt>
<rscale>  1 0.14136046E+03</rscale>
<asrwt>0</asrwt>
<pdfrwt beam="2">  1       21 0.92935277E-01 0.14136046E+03</pdfrwt>
<pdfrwt beam="1">  1        4 0.52597880E-02 0.14136046E+03</pdfrwt>
<totfact> 0.89014577E+03</totfact>
</mgrwt>
</event>
<event>
 6    3  0.3813045E-003  0.1739395E+03  0.7818608E-02  0.1173801E+00
          4   -1    0    0  502    0 -0.00000000000E+00  0.00000000000E+00  0.20037932258E+03  0.20038334715E+03  0.12700000000E+01 0. -1.
         21   -1    0    0  501  502  0.00000000000E+00 -0.00000000000E+00 -0.11355508871E+03  0.11355508871E+03  0.00000000000E+00 0. -1.
         25    2    1    2    0    0  0.40783388950E+02 -0.11386964785E+03  0.83474871768E+02  0.19293259864E+03  0.12500140753E+03 0.  0.
    9000005    1    3    3    0    0  0.16977917526E+02  0.12844383438E+02 -0.18753236891E+02  0.28388585088E+02  0.10000000000E+01 0.  0.
    9000005    1    3    3    0    0  0.23805471424E+02 -0.12671403129E+03  0.10222810866E+03  0.16454401355E+03  0.10000000000E+01 0.  0.
          4    1    1    2  501    0 -0.40783388950E+02  0.11386964785E+03  0.33493620998E+01  0.12100583723E+03  0.12700000000E+01 0.  1.
<mgrwt>
<rscale>  1 0.17393945E+03</rscale>
<asrwt>0</asrwt>
<pdfrwt beam="2">  1       21 0.17470014E-01 0.17393945E+03</pdfrwt>
<pdfrwt beam="1">  1        4 0.30828444E-01 0.17393945E+03</pdfrwt>
<totfact> 0.12503785E+04</totfact>
</mgrwt>
</event>
<event>
 6    3  0.3813045E-003  0.1301386E+03  0.7818608E-02  0.1227250E+00
         21   -1    0    0  501  502  0.00000000000E+00  0.00000000000E+00  0.12695933325E+03  0.12695933325E+03  0.00000000000E+00 0.  1.
         -4   -1    0    0    0  501 -0.00000000000E+00 -0.00000000000E+00 -0.92542961935E+02  0.92551675856E+02  0.12700000000E+01 0. -1.
         25    2    1    2    0    0  0.20879032910E+02  0.29581764253E+02 -0.40499168443E+02  0.13629462978E+03  0.12500011468E+03 0.  0.
    9000005    1    3    3    0    0 -0.45503196154E+02  0.18500368323E+02 -0.47855776449E+02  0.68585565739E+02  0.10000000000E+01 0.  0.
    9000005    1    3    3    0    0  0.66382229064E+02  0.11081395930E+02  0.73566080051E+01  0.67709064036E+02  0.10000000000E+01 0.  0.
         -4    1    1    2    0  502 -0.20879032910E+02 -0.29581764253E+02  0.74915539759E+02  0.83216379331E+02  0.12700000000E+01 0.  1.
<mgrwt>
<rscale>  1 0.13013855E+03</rscale>
<asrwt>0</asrwt>
<pdfrwt beam="1">  1       21 0.19532205E-01 0.13013855E+03</pdfrwt>
<pdfrwt beam="2">  1       -4 0.14238538E-01 0.13013855E+03</pdfrwt>
<totfact> 0.40267315E+04</totfact>
</mgrwt>
</event>
<event>
 6    3  0.3813045E-003  0.1281070E+03  0.7818608E-02  0.1230292E+00
         21   -1    0    0  501  502  0.00000000000E+00  0.00000000000E+00  0.63635943512E+03  0.63635943512E+03  0.00000000000E+00 0. -1.
         -4   -1    0    0    0  501 -0.00000000000E+00 -0.00000000000E+00 -0.99289421373E+01  0.10009834762E+02  0.12700000000E+01 0. -1.
         25    2    1    2    0    0 -0.26225940155E+02  0.97643569849E+01  0.45605826066E+03  0.47370933518E+03  0.12501301739E+03 0.  0.
    9000005    1    3    3    0    0 -0.25904186381E+02  0.66063470847E+02  0.28070017390E+03  0.28953237587E+03  0.10000000000E+01 0.  0.
    9000005    1    3    3    0    0 -0.32175377338E+00 -0.56299113862E+02  0.17535808676E+03  0.18417695931E+03  0.10000000000E+01 0.  0.
         -4    1    1    2    0  502  0.26225940155E+02 -0.97643569849E+01  0.17037223232E+03  0.17265993470E+03  0.12700000000E+01 0.  1.
<mgrwt>
<rscale>  1 0.12810698E+03</rscale>
<asrwt>0</asrwt>
<pdfrwt beam="1">  1       21 0.97901419E-01 0.12810698E+03</pdfrwt>
<pdfrwt beam="2">  1       -4 0.15338501E-02 0.12810698E+03</pdfrwt>
<totfact> 0.53832524E+04</totfact>
</mgrwt>
</event>
<event>
 6    3  0.3813045E-003  0.1279415E+03  0.7818608E-02  0.1230543E+00
         -4   -1    0    0    0  501 -0.00000000000E+00  0.00000000000E+00  0.77991299763E+02  0.78001639334E+02  0.12700000000E+01 0.  1.
         21   -1    0    0  501  502  0.00000000000E+00 -0.00000000000E+00 -0.84549413695E+02  0.84549413695E+02  0.00000000000E+00 0.  1.
         25    2    1    2    0    0 -0.20516699143E+02  0.17930153567E+02  0.13559161272E+02  0.12865794145E+03  0.12500635861E+03 0.  0.
    9000005    1    3    3    0    0 -0.22949102987E+01 -0.21170602818E+02 -0.48553864905E+02  0.53027717603E+02  0.10000000000E+01 0.  0.
    9000005    1    3    3    0    0 -0.18221788844E+02  0.39100756386E+02  0.62113026177E+02  0.75630223849E+02  0.10000000000E+01 0.  0.
         -4    1    1    2    0  502  0.20516699143E+02 -0.17930153567E+02 -0.20117275204E+02  0.33893111576E+02  0.12700000000E+01 0. -1.
<mgrwt>
<rscale>  1 0.12794145E+03</rscale>
<asrwt>0</asrwt>
<pdfrwt beam="2">  1       21 0.13007602E-01 0.12794145E+03</pdfrwt>
<pdfrwt beam="1">  1       -4 0.12000191E-01 0.12794145E+03</pdfrwt>
<totfact> 0.11268324E+05</totfact>
</mgrwt>
</event>
<event>
 6    3  0.3813045E-003  0.1281705E+03  0.7818608E-02  0.1230196E+00
         -4   -1    0    0    0  501 -0.00000000000E+00  0.00000000000E+00  0.10125097333E+03  0.10125893788E+03  0.12700000000E+01 0.  1.
         21   -1    0    0  501  502  0.00000000000E+00 -0.00000000000E+00 -0.66191746022E+02  0.66191746022E+02  0.00000000000E+00 0.  1.
         25    2    1    2    0    0  0.21150448808E+02  0.18850800869E+02  0.47221316600E+02  0.13659256513E+03  0.12499992771E+03 0.  0.
    9000005    1    3    3    0    0  0.95587828015E+01  0.58886843586E+02  0.67617610680E+02  0.90178555934E+02  0.10000000000E+01 0.  0.
    9000005    1    3    3    0    0  0.11591666006E+02 -0.40036042717E+02 -0.20396294080E+02  0.46414009194E+02  0.10000000000E+01 0.  0.
         -4    1    1    2    0  502 -0.21150448808E+02 -0.18850800869E+02 -0.12162089292E+02  0.30858118772E+02  0.12700000000E+01 0. -1.
<mgrwt>
<rscale>  1 0.12817050E+03</rscale>
<asrwt>0</asrwt>
<pdfrwt beam="2">  1       21 0.10183346E-01 0.12817050E+03</pdfrwt>
<pdfrwt beam="1">  1       -4 0.15578623E-01 0.12817050E+03</pdfrwt>
<totfact> 0.11060256E+05</totfact>
</mgrwt>
</event>
<event>
 6    3  0.3813045E-003  0.1282050E+03  0.7818608E-02  0.1230144E+00
         21   -1    0    0  501  502  0.00000000000E+00  0.00000000000E+00  0.12609709474E+03  0.12609709474E+03  0.00000000000E+00 0.  1.
         -4   -1    0    0    0  501 -0.00000000000E+00 -0.00000000000E+00 -0.61190342390E+02  0.61203520338E+02  0.12700000000E+01 0. -1.
         25    2    1    2    0    0  0.28033386976E+02 -0.50798988330E+01  0.14022297878E+02  0.12896951904E+03  0.12499934339E+03 0.  0.
    9000005    1    3    3    0    0  0.66912796626E+01 -0.61803244813E+02 -0.11455342233E+02  0.63218977835E+02  0.10000000000E+01 0.  0.
    9000005    1    3    3    0    0  0.21342107314E+02  0.56723345980E+02  0.25477640111E+02  0.65750541210E+02  0.10000000000E+01 0.  0.
         -4    1    1    2    0  502 -0.28033386976E+02  0.50798988330E+01  0.50884454471E+02  0.58331096032E+02  0.12700000000E+01 0.  1.
<mgrwt>
<rscale>  1 0.12820496E+03</rscale>
<asrwt>0</asrwt>
<pdfrwt beam="1">  1       21 0.19399553E-01 0.12820496E+03</pdfrwt>
<pdfrwt beam="2">  1       -4 0.94154045E-02 0.12820496E+03</pdfrwt>
<totfact> 0.82357764E+04</totfact>
</mgrwt>
</event>
<event>
 6    3  0.3813045E-003  0.1470483E+03  0.7818608E-02  0.1204148E+00
          4   -1    0    0  502    0 -0.00000000000E+00  0.00000000000E+00  0.21361313658E+03  0.21361691183E+03  0.12700000000E+01 0.  1.
         21   -1    0    0  501  502  0.00000000000E+00 -0.00000000000E+00 -0.61658957758E+02  0.61658957758E+02  0.00000000000E+00 0.  1.
         25    2    1    2    0    0  0.29547823147E+02  0.71583712121E+02  0.12582863013E+03  0.19353567820E+03  0.12500365147E+03 0.  0.
    9000005    1    3    3    0    0  0.50993163362E+02  0.12101593421E+02 -0.32448765343E+00  0.52420001576E+02  0.10000000000E+01 0.  0.
    9000005    1    3    3    0    0 -0.21445340215E+02  0.59482118700E+02  0.12615311779E+03  0.14111567663E+03  0.10000000000E+01 0.  0.
          4    1    1    2  501    0 -0.29547823147E+02 -0.71583712121E+02  0.26125548690E+02  0.81740191388E+02  0.12700000000E+01 0. -1.
<mgrwt>
<rscale>  1 0.14704834E+03</rscale>
<asrwt>0</asrwt>
<pdfrwt beam="2">  1       21 0.94859936E-02 0.14704834E+03</pdfrwt>
<pdfrwt beam="1">  1        4 0.32864856E-01 0.14704834E+03</pdfrwt>
<totfact> 0.32556109E+04</totfact>
</mgrwt>
</event>
<event>
 6    3  0.3813045E-003  0.1286252E+03  0.7818608E-02  0.1229510E+00
         21   -1    0    0  501  502  0.00000000000E+00  0.00000000000E+00  0.11525134623E+03  0.11525134623E+03  0.00000000000E+00 0.  1.
          4   -1    0    0  502    0 -0.00000000000E+00 -0.00000000000E+00 -0.19974416817E+03  0.19974820554E+03  0.12700000000E+01 0. -1.
         25    2    1    2    0    0  0.27366714527E+02  0.13092523879E+02 -0.17633830789E+03  0.21826508307E+03  0.12499638561E+03 0.  0.
    9000005    1    3    3    0    0  0.43264902801E+02  0.55465365817E+02 -0.56721839225E+02  0.90369384554E+02  0.10000000000E+01 0.  0.
    9000005    1    3    3    0    0 -0.15898188274E+02 -0.42372841938E+02 -0.11961646866E+03  0.12789569852E+03  0.10000000000E+01 0.  0.
          4    1    1    2  501    0 -0.27366714527E+02 -0.13092523879E+02  0.91845485946E+02  0.96734468697E+02  0.12700000000E+01 0.  1.
<mgrwt>
<rscale>  1 0.12862522E+03</rscale>
<asrwt>0</asrwt>
<pdfrwt beam="1">  1       21 0.17730977E-01 0.12862522E+03</pdfrwt>
<pdfrwt beam="2">  1        4 0.30730721E-01 0.12862522E+03</pdfrwt>
<totfact> 0.11945274E+04</totfact>
</mgrwt>
</event>
<event>
 6    3  0.3813045E-003  0.1294730E+03  0.7818608E-02  0.1228240E+00
          4   -1    0    0  502    0 -0.00000000000E+00  0.00000000000E+00  0.24897249049E+03  0.24897572958E+03  0.12700000000E+01 0. -1.
         21   -1    0    0  501  502  0.00000000000E+00 -0.00000000000E+00 -0.62603588711E+02  0.62603588711E+02  0.00000000000E+00 0.  1.
         25    2    1    2    0    0 -0.31344176758E+02 -0.12441374137E+02  0.22542632001E+03  0.25996207286E+03  0.12500403339E+03 0.  0.
    9000005    1    3    3    0    0 -0.44178724456E+02  0.39464870955E+02  0.18095919209E+03  0.19041130464E+03  0.10000000000E+01 0.  0.
    9000005    1    3    3    0    0  0.12834547698E+02 -0.51906245091E+02  0.44467127921E+02  0.69550768217E+02  0.10000000000E+01 0.  0.
          4    1    1    2  501    0  0.31344176758E+02  0.12441374137E+02 -0.39057418232E+02  0.51617245432E+02  0.12700000000E+01 0.  1.
<mgrwt>
<rscale>  1 0.12947298E+03</rscale>
<asrwt>0</asrwt>
<pdfrwt beam="2">  1       21 0.96313215E-02 0.12947298E+03</pdfrwt>
<pdfrwt beam="1">  1        4 0.38304700E-01 0.12947298E+03</pdfrwt>
<totfact> 0.23250259E+04</totfact>
</mgrwt>
</event>
<event>
 6    3  0.3813045E-003  0.1344172E+03  0.7818608E-02  0.1221045E+00
         21   -1    0    0  501  502  0.00000000000E+00  0.00000000000E+00  0.70002443572E+02  0.70002443572E+02  0.00000000000E+00 0. -1.
         -4   -1    0    0    0  501 -0.00000000000E+00 -0.00000000000E+00 -0.17135587965E+03  0.17136058587E+03  0.12700000000E+01 0.  1.
         25    2    1    2    0    0  0.46215261723E+02 -0.17523444721E+02 -0.12764254431E+03  0.18536613986E+03  0.12500026064E+03 0.  0.
    9000005    1    3    3    0    0  0.40518020182E+02 -0.70364136177E+02 -0.74457434641E+02  0.11017137193E+03  0.10000000000E+01 0.  0.
    9000005    1    3    3    0    0  0.56972415411E+01  0.52840691456E+02 -0.53185109665E+02  0.75194767935E+02  0.10000000000E+01 0.  0.
         -4    1    1    2    0  502 -0.46215261723E+02  0.17523444721E+02  0.26289108230E+02  0.55996889579E+02  0.12700000000E+01 0. -1.
<mgrwt>
<rscale>  1 0.13441721E+03</rscale>
<asrwt>0</asrwt>
<pdfrwt beam="1">  1       21 0.10769607E-01 0.13441721E+03</pdfrwt>
<pdfrwt beam="2">  1       -4 0.26363691E-01 0.13441721E+03</pdfrwt>
<totfact> 0.39101672E+04</totfact>
</mgrwt>
</event>
<event>
 6    3  0.3813045E-003  0.1411872E+03  0.7818608E-02  0.1211740E+00
         -4   -1    0    0    0  501 -0.00000000000E+00  0.00000000000E+00  0.75779251166E+03  0.75779357587E+03  0.12700000000E+01 0.  1.
         21   -1    0    0  501  502  0.00000000000E+00 -0.00000000000E+00 -0.42657582100E+02  0.42657582100E+02  0.00000000000E+00 0. -1.
         25    2    1    2    0    0 -0.50586018805E+02 -0.41886315961E+02  0.72081974686E+03  0.73451680569E+03  0.12498168512E+03 0.  0.
    9000005    1    3    3    0    0 -0.20824182289E+02  0.23079086654E+02  0.43707295572E+02  0.53643438509E+02  0.10000000000E+01 0.  0.
    9000005    1    3    3    0    0 -0.29761836516E+02 -0.64965402615E+02  0.67711245129E+03  0.68087336718E+03  0.10000000000E+01 0.  0.
         -4    1    1    2    0  502  0.50586018805E+02  0.41886315961E+02 -0.56848172950E+01  0.65934352283E+02  0.12700000000E+01 0. -1.
<mgrwt>
<rscale>  1 0.14118722E+03</rscale>
<asrwt>0</asrwt>
<pdfrwt beam="2">  1       21 0.65627055E-02 0.14118722E+03</pdfrwt>
<pdfrwt beam="1">  1       -4 0.11658499E+00 0.14118722E+03</pdfrwt>
<totfact> 0.41514188E+03</totfact>
</mgrwt>
</event>
<event>
 6    3  0.3813045E-003  0.1655588E+03  0.7818608E-02  0.1182560E+00
         -4   -1    0    0    0  501 -0.00000000000E+00  0.00000000000E+00  0.17875274663E+02  0.17920333263E+02  0.12700000000E+01 0. -1.
         21   -1    0    0  501  502  0.00000000000E+00 -0.00000000000E+00 -0.16813983288E+04  0.16813983288E+04  0.00000000000E+00 0.  1.
         25    2    1    2    0    0 -0.87282510555E+02  0.64538422654E+02 -0.42595305938E+03  0.45699642147E+03  0.12500510307E+03 0.  0.
    9000005    1    3    3    0    0  0.19259547988E+02  0.34305946464E+02 -0.42737754927E+02  0.58097709487E+02  0.10000000000E+01 0.  0.
    9000005    1    3    3    0    0 -0.10654205854E+03  0.30232476191E+02 -0.38321530445E+03  0.39889871198E+03  0.10000000000E+01 0.  0.
         -4    1    1    2    0  502  0.87282510555E+02 -0.64538422654E+02 -0.12375699948E+04  0.12423222406E+04  0.12700000000E+01 0.  1.
<mgrwt>
<rscale>  1 0.16555881E+03</rscale>
<asrwt>0</asrwt>
<pdfrwt beam="2">  1       21 0.25867674E+00 0.16555881E+03</pdfrwt>
<pdfrwt beam="1">  1       -4 0.27535444E-02 0.16555881E+03</pdfrwt>
<totfact> 0.15536995E+03</totfact>
</mgrwt>
</event>
<event>
 6    3  0.3813045E-003  0.1283295E+03  0.7818608E-02  0.1229956E+00
         21   -1    0    0  501  502  0.00000000000E+00  0.00000000000E+00  0.13194683915E+02  0.13194683915E+02  0.00000000000E+00 0.  1.
         -4   -1    0    0    0  501 -0.00000000000E+00 -0.00000000000E+00 -0.46947187748E+03  0.46947359526E+03  0.12700000000E+01 0.  1.
         25    2    1    2    0    0  0.11367422552E+02 -0.26724913452E+02 -0.37470311211E+03  0.39606930136E+03  0.12500011982E+03 0.  0.
    9000005    1    3    3    0    0  0.25776078821E+02 -0.32830511880E+02 -0.37778779230E+03  0.38008796976E+03  0.10000000000E+01 0.  0.
    9000005    1    3    3    0    0 -0.14408656269E+02  0.61055984277E+01  0.30846801841E+01  0.15981331593E+02  0.10000000000E+01 0.  0.
         -4    1    1    2    0  502 -0.11367422552E+02  0.26724913452E+02 -0.81574081451E+02  0.86598977817E+02  0.12700000000E+01 0. -1.
<mgrwt>
<rscale>  1 0.12832953E+03</rscale>
<asrwt>0</asrwt>
<pdfrwt beam="1">  1       21 0.20299512E-02 0.12832953E+03</pdfrwt>
<pdfrwt beam="2">  1       -4 0.72231282E-01 0.12832953E+03</pdfrwt>
<totfact> 0.85308824E+04</totfact>
</mgrwt>
</event>
<event>
 6    3  0.3813045E-003  0.1275725E+03  0.7818608E-02  0.1231103E+00
          4   -1    0    0  502    0 -0.00000000000E+00  0.00000000000E+00  0.50384015215E+03  0.50384175275E+03  0.12700000000E+01 0. -1.
         21   -1    0    0  501  502  0.00000000000E+00 -0.00000000000E+00 -0.14048215420E+02  0.14048215420E+02  0.00000000000E+00 0.  1.
         25    2    1    2    0    0 -0.14508950830E+02  0.20959682581E+02  0.46546415639E+03  0.48262990940E+03  0.12499972248E+03 0.  0.
    9000005    1    3    3    0    0 -0.32680255689E+01 -0.46378392502E+02  0.30076783795E+03  0.30434179408E+03  0.10000000000E+01 0.  0.
    9000005    1    3    3    0    0 -0.11240925261E+02  0.67338075082E+02  0.16469631844E+03  0.17828811532E+03  0.10000000000E+01 0.  0.
          4    1    1    2  501    0  0.14508950830E+02 -0.20959682581E+02  0.24327780340E+02  0.35260058768E+02  0.12700000000E+01 0.  1.
<mgrwt>
<rscale>  1 0.12757252E+03</rscale>
<asrwt>0</asrwt>
<pdfrwt beam="2">  1       21 0.21612643E-02 0.12757252E+03</pdfrwt>
<pdfrwt beam="1">  1        4 0.77518394E-01 0.12757252E+03</pdfrwt>
<totfact> 0.66025251E+04</totfact>
</mgrwt>
</event>
<event>
 6    3  0.3813045E-003  0.1286212E+03  0.7818608E-02  0.1229516E+00
         21   -1    0    0  501  502  0.00000000000E+00  0.00000000000E+00  0.61264866999E+02  0.61264866999E+02  0.00000000000E+00 0.  1.
          4   -1    0    0  502    0 -0.00000000000E+00 -0.00000000000E+00 -0.10380754799E+03  0.10381531640E+03  0.12700000000E+01 0.  1.
         25    2    1    2    0    0  0.97558550438E+01 -0.28692914463E+02 -0.39728868831E+02  0.13461724712E+03  0.12499984062E+03 0.  0.
    9000005    1    3    3    0    0  0.32851894553E+02 -0.49453370421E+02 -0.69619375670E+02  0.91502679143E+02  0.10000000000E+01 0.  0.
    9000005    1    3    3    0    0 -0.23096039509E+02  0.20760455958E+02  0.29890506839E+02  0.43114567975E+02  0.10000000000E+01 0.  0.
          4    1    1    2  501    0 -0.97558550438E+01  0.28692914463E+02 -0.28138121590E+01  0.30462936282E+02  0.12700000000E+01 0. -1.
<mgrwt>
<rscale>  1 0.12862123E+03</rscale>
<asrwt>0</asrwt>
<pdfrwt beam="1">  1       21 0.94253644E-02 0.12862123E+03</pdfrwt>
<pdfrwt beam="2">  1        4 0.15972002E-01 0.12862123E+03</pdfrwt>
<totfact> 0.12125166E+05</totfact>
</mgrwt>
</event>
<event>
 6    3  0.3813045E-003  0.1338169E+03  0.7818608E-02  0.1221900E+00
         21   -1    0    0  501  502  0.00000000000E+00  0.00000000000E+00  0.40593254597E+02  0.40593254597E+02  0.00000000000E+00 0. -1.
         -4   -1    0    0    0  501 -0.00000000000E+00 -0.00000000000E+00 -0.33323477448E+03  0.33323719454E+03  0.12700000000E+01 0.  1.
         25    2    1    2    0    0  0.31901564428E+02  0.35560097409E+02 -0.29708776349E+03  0.32583448761E+03  0.12499897503E+03 0.  0.
    9000005    1    3    3    0    0  0.99918280245E+01  0.13128787425E+01 -0.28242066646E+03  0.28260218174E+03  0.10000000000E+01 0.  0.
    9000005    1    3    3    0    0  0.21909736404E+02  0.34247218666E+02 -0.14667097028E+02  0.43232305870E+02  0.10000000000E+01 0.  0.
         -4    1    1    2    0  502 -0.31901564428E+02 -0.35560097409E+02  0.44462436069E+01  0.47995961527E+02  0.12700000000E+01 0. -1.
<mgrwt>
<rscale>  1 0.13381694E+03</rscale>
<asrwt>0</asrwt>
<pdfrwt beam="1">  1       21 0.62451161E-02 0.13381694E+03</pdfrwt>
<pdfrwt beam="2">  1       -4 0.51268603E-01 0.13381694E+03</pdfrwt>
<totfact> 0.27488929E+04</totfact>
</mgrwt>
</event>
<event>
 6    3  0.3813045E-003  0.1368360E+03  0.7818608E-02  0.1217651E+00
         21   -1    0    0  501  502  0.00000000000E+00  0.00000000000E+00  0.20462383455E+03  0.20462383455E+03  0.00000000000E+00 0. -1.
         -4   -1    0    0    0  501 -0.00000000000E+00 -0.00000000000E+00 -0.75760744043E+02  0.75771387990E+02  0.12700000000E+01 0.  1.
         25    2    1    2    0    0 -0.33805232843E+02 -0.44214192586E+02 -0.34158427959E+01  0.13687861134E+03  0.12500559055E+03 0.  0.
    9000005    1    3    3    0    0 -0.25589270802E+02 -0.57054771474E+01  0.58147880738E+02  0.63792940707E+02  0.10000000000E+01 0.  0.
    9000005    1    3    3    0    0 -0.82159620409E+01 -0.38508715438E+02 -0.61563723534E+02  0.73085670636E+02  0.10000000000E+01 0.  0.
         -4    1    1    2    0  502  0.33805232843E+02  0.44214192586E+02  0.13227893330E+03  0.14351661119E+03  0.12700000000E+01 0. -1.
<mgrwt>
<rscale>  1 0.13683598E+03</rscale>
<asrwt>0</asrwt>
<pdfrwt beam="1">  1       21 0.31480590E-01 0.13683598E+03</pdfrwt>
<pdfrwt beam="2">  1       -4 0.11656621E-01 0.13683598E+03</pdfrwt>
<totfact> 0.23156807E+04</totfact>
</mgrwt>
</event>
<event>
 6    3  0.3813045E-003  0.1291166E+03  0.7818608E-02  0.1228773E+00
         21   -1    0    0  501  502  0.00000000000E+00  0.00000000000E+00  0.89723136952E+03  0.89723136952E+03  0.00000000000E+00 0. -1.
          4   -1    0    0  502    0 -0.00000000000E+00 -0.00000000000E+00 -0.15649515106E+02  0.15700962488E+02  0.12700000000E+01 0.  1.
         25    2    1    2    0    0 -0.15797439380E+02  0.28214639352E+02  0.25793844174E+03  0.28844987106E+03  0.12500185367E+03 0.  0.
    9000005    1    3    3    0    0 -0.63460193351E+02  0.33893745718E+02  0.20360257640E+03  0.21594210163E+03  0.10000000000E+01 0.  0.
    9000005    1    3    3    0    0  0.47662753972E+02 -0.56791063661E+01  0.54335865342E+02  0.72507769430E+02  0.10000000000E+01 0.  0.
          4    1    1    2  501    0  0.15797439380E+02 -0.28214639352E+02  0.62364341267E+03  0.62448246095E+03  0.12700000000E+01 0. -1.
<mgrwt>
<rscale>  1 0.12911657E+03</rscale>
<asrwt>0</asrwt>
<pdfrwt beam="1">  1       21 0.13803556E+00 0.12911657E+03</pdfrwt>
<pdfrwt beam="2">  1        4 0.24116450E-02 0.12911657E+03</pdfrwt>
<totfact> 0.11688638E+04</totfact>
</mgrwt>
</event>
<event>
 6    3  0.3813045E-003  0.1291398E+03  0.7818608E-02  0.1228738E+00
          4   -1    0    0  502    0 -0.00000000000E+00  0.00000000000E+00  0.38985093217E+03  0.38985300078E+03  0.12700000000E+01 0. -1.
         21   -1    0    0  501  502  0.00000000000E+00 -0.00000000000E+00 -0.17036527568E+02  0.17036527568E+02  0.00000000000E+00 0. -1.
         25    2    1    2    0    0  0.73302335053E+01  0.31672026140E+02  0.31683762421E+03  0.34214493470E+03  0.12498090519E+03 0.  0.
    9000005    1    3    3    0    0 -0.18141895534E+02 -0.28681243728E+02  0.23438907259E+03  0.23683534252E+03  0.10000000000E+01 0.  0.
    9000005    1    3    3    0    0  0.25472129039E+02  0.60353269869E+02  0.82448551621E+02  0.10530959218E+03  0.10000000000E+01 0.  0.
          4    1    1    2  501    0 -0.73302335053E+01 -0.31672026140E+02  0.55976780387E+02  0.64744593640E+02  0.12700000000E+01 0.  1.
<mgrwt>
<rscale>  1 0.12913975E+03</rscale>
<asrwt>0</asrwt>
<pdfrwt beam="2">  1       21 0.26210046E-02 0.12913975E+03</pdfrwt>
<pdfrwt beam="1">  1        4 0.59980860E-01 0.12913975E+03</pdfrwt>
<totfact> 0.83829645E+04</totfact>
</mgrwt>
</event>
<event>
 6    3  0.3813045E-003  0.1269823E+03  0.7818608E-02  0.1232003E+00
         21   -1    0    0  501  502  0.00000000000E+00  0.00000000000E+00  0.10683861868E+02  0.10683861868E+02  0.00000000000E+00 0. -1.
          4   -1    0    0  502    0 -0.00000000000E+00 -0.00000000000E+00 -0.52195994102E+03  0.52196148606E+03  0.12700000000E+01 0. -1.
         25    2    1    2    0    0  0.20193850257E+02 -0.95531892671E+01 -0.43441212993E+03  0.45259077527E+03  0.12500182485E+03 0.  0.
    9000005    1    3    3    0    0  0.16925899465E+02 -0.24710769750E+02 -0.43594811790E+03  0.43697696703E+03  0.10000000000E+01 0.  0.
    9000005    1    3    3    0    0  0.32679507923E+01  0.15157580483E+02  0.15359879774E+01  0.15613808233E+02  0.10000000000E+01 0.  0.
          4    1    1    2  501    0 -0.20193850257E+02  0.95531892671E+01 -0.76863949228E+02  0.80054572663E+02  0.12700000000E+01 0.  1.
<mgrwt>
<rscale>  1 0.12698233E+03</rscale>
<asrwt>0</asrwt>
<pdfrwt beam="1">  1       21 0.16436710E-02 0.12698233E+03</pdfrwt>
<pdfrwt beam="2">  1        4 0.80307456E-01 0.12698233E+03</pdfrwt>
<totfact> 0.94835737E+04</totfact>
</mgrwt>
</event>
<event>
 6    3  0.3813045E-003  0.1285689E+03  0.7818608E-02  0.1229595E+00
         -4   -1    0    0    0  501 -0.00000000000E+00  0.00000000000E+00  0.17903088991E+02  0.17948077764E+02  0.12700000000E+01 0.  1.
         21   -1    0    0  501  502  0.00000000000E+00 -0.00000000000E+00 -0.10891524070E+04  0.10891524070E+04  0.00000000000E+00 0. -1.
         25    2    1    2    0    0 -0.14961129154E+02 -0.26106585352E+02 -0.21633674081E+03  0.25165760722E+03  0.12499830664E+03 0.  0.
    9000005    1    3    3    0    0  0.36828122527E+02 -0.28480071772E+02 -0.18565758502E+03  0.19140836966E+03  0.10000000000E+01 0.  0.
    9000005    1    3    3    0    0 -0.51789251681E+02  0.23734864204E+01 -0.30679155784E+02  0.60249237564E+02  0.10000000000E+01 0.  0.
         -4    1    1    2    0  502  0.14961129154E+02  0.26106585352E+02 -0.85491257725E+03  0.85544287759E+03  0.12700000000E+01 0. -1.
<mgrwt>
<rscale>  1 0.12856891E+03</rscale>
<asrwt>0</asrwt>
<pdfrwt beam="2">  1       21 0.16756193E+00 0.12856891E+03</pdfrwt>
<pdfrwt beam="1">  1       -4 0.27578386E-02 0.12856891E+03</pdfrwt>
<totfact> 0.57241246E+03</totfact>
</mgrwt>
</event>
<event>
 6    3  0.3813045E-003  0.1323514E+03  0.7818608E-02  0.1224008E+00
         21   -1    0    0  501  502  0.00000000000E+00  0.00000000000E+00  0.58812039546E+03  0.58812039546E+03  0.00000000000E+00 0.  1.
          4   -1    0    0  502    0 -0.00000000000E+00 -0.00000000000E+00 -0.53840576906E+02  0.53855553303E+02  0.12700000000E+01 0. -1.
         25    2    1    2    0    0  0.41591340432E+01 -0.43304542839E+02  0.29854733415E+02  0.13567676721E+03  0.12499719287E+03 0.  0.
    9000005    1    3    3    0    0  0.54108693787E+02 -0.49063558558E+02 -0.69202576472E+01  0.73374883220E+02  0.10000000000E+01 0.  0.
    9000005    1    3    3    0    0 -0.49949559744E+02  0.57590157182E+01  0.36774991062E+02  0.62301883986E+02  0.10000000000E+01 0.  0.
          4    1    1    2  501    0 -0.41591340432E+01  0.43304542839E+02  0.50442508514E+03  0.50629918156E+03  0.12700000000E+01 0.  1.
<mgrwt>
<rscale>  1 0.13235135E+03</rscale>
<asrwt>0</asrwt>
<pdfrwt beam="1">  1       21 0.90480056E-01 0.13235135E+03</pdfrwt>
<pdfrwt beam="2">  1        4 0.82844236E-02 0.13235135E+03</pdfrwt>
<totfact> 0.44871396E+03</totfact>
</mgrwt>
</event>
<event>
 6    3  0.3813045E-003  0.1307374E+03  0.7818608E-02  0.1226366E+00
         21   -1    0    0  501  502  0.00000000000E+00  0.00000000000E+00  0.15736910122E+03  0.15736910122E+03  0.00000000000E+00 0.  1.
          4   -1    0    0  502    0 -0.00000000000E+00 -0.00000000000E+00 -0.55695202509E+02  0.55709680331E+02  0.12700000000E+01 0. -1.
         25    2    1    2    0    0 -0.37925735826E+02 -0.55292117786E+01  0.33663012974E+02  0.13500172282E+03  0.12499333223E+03 0.  0.
    9000005    1    3    3    0    0 -0.66472594805E+02 -0.41460172086E+02  0.41143053703E+02  0.88494647282E+02  0.10000000000E+01 0.  0.
    9000005    1    3    3    0    0  0.28546858978E+02  0.35930960307E+02 -0.74800407287E+01  0.46507075542E+02  0.10000000000E+01 0.  0.
          4    1    1    2  501    0  0.37925735826E+02  0.55292117786E+01  0.68010885732E+02  0.78077058724E+02  0.12700000000E+01 0.  1.
<mgrwt>
<rscale>  1 0.13073740E+03</rscale>
<asrwt>0</asrwt>
<pdfrwt beam="1">  1       21 0.24210631E-01 0.13073740E+03</pdfrwt>
<pdfrwt beam="2">  1        4 0.85700006E-02 0.13073740E+03</pdfrwt>
<totfact> 0.63931311E+04</totfact>
</mgrwt>
</event>
<event>
 6    3  0.3813045E-003  0.1287846E+03  0.7818608E-02  0.1229270E+00
          4   -1    0    0  502    0 -0.00000000000E+00  0.00000000000E+00  0.69188692122E+02  0.69200346947E+02  0.12700000000E+01 0. -1.
         21   -1    0    0  501  502  0.00000000000E+00 -0.00000000000E+00 -0.13422053614E+03  0.13422053614E+03  0.00000000000E+00 0. -1.
         25    2    1    2    0    0 -0.25758805856E+02  0.17223967100E+02  0.28221807314E+01  0.12881550328E+03  0.12500115223E+03 0.  0.
    9000005    1    3    3    0    0  0.24912611041E+02  0.24565898453E+02 -0.46174344214E+02  0.57941277335E+02  0.10000000000E+01 0.  0.
    9000005    1    3    3    0    0 -0.50671416896E+02 -0.73419313523E+01  0.48996524945E+02  0.70874225943E+02  0.10000000000E+01 0.  0.
          4    1    1    2  501    0  0.25758805856E+02 -0.17223967100E+02 -0.67854024744E+02  0.74605379805E+02  0.12700000000E+01 0.  1.
<mgrwt>
<rscale>  1 0.12878458E+03</rscale>
<asrwt>0</asrwt>
<pdfrwt beam="2">  1       21 0.20649313E-01 0.12878458E+03</pdfrwt>
<pdfrwt beam="1">  1        4 0.10645773E-01 0.12878458E+03</pdfrwt>
<totfact> 0.59710003E+04</totfact>
</mgrwt>
</event>
<event>
 6    3  0.3813045E-003  0.1328053E+03  0.7818608E-02  0.1223352E+00
         -4   -1    0    0    0  501 -0.00000000000E+00  0.00000000000E+00  0.10309052474E+04  0.10309060297E+04  0.12700000000E+01 0.  1.
         21   -1    0    0  501  502  0.00000000000E+00 -0.00000000000E+00 -0.11853711219E+02  0.11853711219E+02  0.00000000000E+00 0. -1.
         25    2    1    2    0    0  0.87133511226E+01 -0.44004277219E+02  0.95705587556E+03  0.96622625974E+03  0.12499974867E+03 0.  0.
    9000005    1    3    3    0    0 -0.12237803879E+02 -0.80624398938E+02  0.44324937484E+03  0.45068954485E+03  0.10000000000E+01 0.  0.
    9000005    1    3    3    0    0  0.20951155002E+02  0.36620121719E+02  0.51380650072E+03  0.51553671489E+03  0.10000000000E+01 0.  0.
         -4    1    1    2    0  502 -0.87133511226E+01  0.44004277219E+02  0.61995660621E+02  0.76533481152E+02  0.12700000000E+01 0. -1.
<mgrwt>
<rscale>  1 0.13280526E+03</rscale>
<asrwt>0</asrwt>
<pdfrwt beam="2">  1       21 0.18236487E-02 0.13280526E+03</pdfrwt>
<pdfrwt beam="1">  1       -4 0.15860603E+00 0.13280526E+03</pdfrwt>
<totfact> 0.16006724E+04</totfact>
</mgrwt>
</event>
<event>
 6    3  0.3813045E-003  0.1289950E+03  0.7818608E-02  0.1228955E+00
         -4   -1    0    0    0  501 -0.00000000000E+00  0.00000000000E+00  0.84627835447E+02  0.84637364281E+02  0.12700000000E+01 0.  1.
         21   -1    0    0  501  502  0.00000000000E+00 -0.00000000000E+00 -0.76685716519E+02  0.76685716519E+02  0.00000000000E+00 0.  1.
         25    2    1    2    0    0  0.29197394613E+02  0.12742152365E+02  0.99476704402E+01  0.12937804306E+03  0.12499948632E+03 0.  0.
    9000005    1    3    3    0    0 -0.47091299745E+02  0.13923656821E+02 -0.10827390964E+02  0.50296034894E+02  0.10000000000E+01 0.  0.
    9000005    1    3    3    0    0  0.76288694359E+02 -0.11815044561E+01  0.20775061404E+02  0.79082008169E+02  0.10000000000E+01 0.  0.
         -4    1    1    2    0  502 -0.29197394613E+02 -0.12742152365E+02 -0.20055515126E+01  0.31945037736E+02  0.12700000000E+01 0. -1.
<mgrwt>
<rscale>  1 0.12899505E+03</rscale>
<asrwt>0</asrwt>
<pdfrwt beam="2">  1       21 0.11797803E-01 0.12899505E+03</pdfrwt>
<pdfrwt beam="1">  1       -4 0.13021209E-01 0.12899505E+03</pdfrwt>
<totfact> 0.11663872E+05</totfact>
</mgrwt>
</event>
<event>
 6    3  0.3813045E-003  0.1291216E+03  0.7818608E-02  0.1228765E+00
         -4   -1    0    0    0  501 -0.00000000000E+00  0.00000000000E+00  0.11841679070E+02  0.11909587029E+02  0.12700000000E+01 0. -1.
         21   -1    0    0  501  502  0.00000000000E+00 -0.00000000000E+00 -0.12440259938E+04  0.12440259938E+04  0.00000000000E+00 0.  1.
         25    2    1    2    0    0  0.30352268584E+02 -0.11269553984E+02 -0.34839945080E+03  0.37155695057E+03  0.12499650851E+03 0.  0.
    9000005    1    3    3    0    0  0.27694207734E+02 -0.17163167944E+02 -0.11457761794E+02  0.34551755111E+02  0.10000000000E+01 0.  0.
    9000005    1    3    3    0    0  0.26580608494E+01  0.58936139601E+01 -0.33694168901E+03  0.33700519546E+03  0.10000000000E+01 0.  0.
         -4    1    1    2    0  502 -0.30352268584E+02  0.11269553984E+02 -0.88378486392E+03  0.88437863025E+03  0.12700000000E+01 0.  1.
<mgrwt>
<rscale>  1 0.12912161E+03</rscale>
<asrwt>0</asrwt>
<pdfrwt beam="2">  1       21 0.19138862E+00 0.12912161E+03</pdfrwt>
<pdfrwt beam="1">  1       -4 0.18270703E-02 0.12912161E+03</pdfrwt>
<totfact> 0.74951373E+03</totfact>
</mgrwt>
</event>
<event>
 6    3  0.3813045E-003  0.1267266E+03  0.7818608E-02  0.1232395E+00
         21   -1    0    0  501  502  0.00000000000E+00  0.00000000000E+00  0.24911476879E+02  0.24911476879E+02  0.00000000000E+00 0. -1.
          4   -1    0    0  502    0 -0.00000000000E+00 -0.00000000000E+00 -0.36103354481E+03  0.36103577853E+03  0.12700000000E+01 0. -1.
         25    2    1    2    0    0  0.20326195408E+02  0.46342386511E+01 -0.34160455177E+03  0.36435325354E+03  0.12499997276E+03 0.  0.
    9000005    1    3    3    0    0  0.97037177871E+01 -0.53218170444E+02 -0.24772552359E+03  0.25356512150E+03  0.10000000000E+01 0.  0.
    9000005    1    3    3    0    0  0.10622477621E+02  0.57852409095E+02 -0.93879028178E+02  0.11078813204E+03  0.10000000000E+01 0.  0.
          4    1    1    2  501    0 -0.20326195408E+02 -0.46342386511E+01  0.54824838362E+01  0.21594001868E+02  0.12700000000E+01 0.  1.
<mgrwt>
<rscale>  1 0.12672657E+03</rscale>
<asrwt>0</asrwt>
<pdfrwt beam="1">  1       21 0.38325354E-02 0.12672657E+03</pdfrwt>
<pdfrwt beam="2">  1        4 0.55546277E-01 0.12672657E+03</pdfrwt>
<totfact> 0.52541386E+04</totfact>
</mgrwt>
</event>
<event>
 6    3  0.3813045E-003  0.1382993E+03  0.7818608E-02  0.1215636E+00
         -4   -1    0    0    0  501 -0.00000000000E+00  0.00000000000E+00  0.68913613190E+03  0.68913730213E+03  0.12700000000E+01 0.  1.
         21   -1    0    0  501  502  0.00000000000E+00 -0.00000000000E+00 -0.18060972173E+02  0.18060972173E+02  0.00000000000E+00 0. -1.
         25    2    1    2    0    0  0.59139569633E+02  0.20279952218E+01  0.59472238529E+03  0.61059102548E+03  0.12500033349E+03 0.  0.
    9000005    1    3    3    0    0  0.28618328215E+02  0.17920491404E-01  0.57139083593E+03  0.57210794123E+03  0.10000000000E+01 0.  0.
    9000005    1    3    3    0    0  0.30521241418E+02  0.20100747304E+01  0.23331549358E+02  0.38483084252E+02  0.10000000000E+01 0.  0.
         -4    1    1    2    0  502 -0.59139569633E+02 -0.20279952218E+01  0.76352774436E+02  0.96607248822E+02  0.12700000000E+01 0. -1.
<mgrwt>
<rscale>  1 0.13829926E+03</rscale>
<asrwt>0</asrwt>
<pdfrwt beam="2">  1       21 0.27786116E-02 0.13829926E+03</pdfrwt>
<pdfrwt beam="1">  1       -4 0.10602445E+00 0.13829926E+03</pdfrwt>
<totfact> 0.21796932E+04</totfact>
</mgrwt>
</event>
<event>
 6    3  0.3813045E-003  0.1282367E+03  0.7818608E-02  0.1230096E+00
          4   -1    0    0  502    0 -0.00000000000E+00  0.00000000000E+00  0.13622354757E+03  0.13622946749E+03  0.12700000000E+01 0.  1.
         21   -1    0    0  501  502  0.00000000000E+00 -0.00000000000E+00 -0.98913153975E+02  0.98913153975E+02  0.00000000000E+00 0. -1.
         25    2    1    2    0    0 -0.95297309009E+01  0.26998523637E+02  0.10234678546E+03  0.16407166245E+03  0.12499963951E+03 0.  0.
    9000005    1    3    3    0    0  0.43891562224E+01  0.70287911172E+02  0.94590124718E+02  0.11793195853E+03  0.10000000000E+01 0.  0.
    9000005    1    3    3    0    0 -0.13918887123E+02 -0.43289387536E+02  0.77566607372E+01  0.46139703919E+02  0.10000000000E+01 0.  0.
          4    1    1    2  501    0  0.95297309009E+01 -0.26998523637E+02 -0.65036391857E+02  0.71070959016E+02  0.12700000000E+01 0. -1.
<mgrwt>
<rscale>  1 0.12823668E+03</rscale>
<asrwt>0</asrwt>
<pdfrwt beam="2">  1       21 0.15217408E-01 0.12823668E+03</pdfrwt>
<pdfrwt beam="1">  1        4 0.20958551E-01 0.12823668E+03</pdfrwt>
<totfact> 0.31977402E+04</totfact>
</mgrwt>
</event>
<event>
 6    3  0.3813045E-003  0.1281285E+03  0.7818608E-02  0.1230259E+00
         21   -1    0    0  501  502  0.00000000000E+00  0.00000000000E+00  0.10112991145E+03  0.10112991145E+03  0.00000000000E+00 0.  1.
          4   -1    0    0  502    0 -0.00000000000E+00 -0.00000000000E+00 -0.87238299456E+02  0.87247543186E+02  0.12700000000E+01 0. -1.
         25    2    1    2    0    0 -0.26570016777E+02  0.91923371064E+01 -0.34237173582E+02  0.13262390987E+03  0.12500581011E+03 0.  0.
    9000005    1    3    3    0    0  0.51975597593E+01  0.60491137805E+02  0.45410102146E+01  0.60891815166E+02  0.10000000000E+01 0.  0.
    9000005    1    3    3    0    0 -0.31767576536E+02 -0.51298800699E+02 -0.38778183796E+02  0.71732094704E+02  0.10000000000E+01 0.  0.
          4    1    1    2  501    0  0.26570016777E+02 -0.91923371064E+01  0.48128785577E+02  0.55753544767E+02  0.12700000000E+01 0.  1.
<mgrwt>
<rscale>  1 0.12812852E+03</rscale>
<asrwt>0</asrwt>
<pdfrwt beam="1">  1       21 0.15558448E-01 0.12812852E+03</pdfrwt>
<pdfrwt beam="2">  1        4 0.13422601E-01 0.12812852E+03</pdfrwt>
<totfact> 0.67426496E+04</totfact>
</mgrwt>
</event>
<event>
 6    3  0.3813045E-003  0.1298496E+03  0.7818608E-02  0.1227679E+00
         -4   -1    0    0    0  501 -0.00000000000E+00  0.00000000000E+00  0.52424884764E+02  0.52440265470E+02  0.12700000000E+01 0.  1.
         21   -1    0    0  501  502  0.00000000000E+00 -0.00000000000E+00 -0.12983002521E+03  0.12983002521E+03  0.00000000000E+00 0.  1.
         25    2    1    2    0    0  0.34735818113E+02  0.50237038062E+01 -0.59110962591E+02  0.14267099140E+03  0.12501636385E+03 0.  0.
    9000005    1    3    3    0    0  0.53107561903E+02 -0.34916670201E+02 -0.72770694982E+02  0.96623811958E+02  0.10000000000E+01 0.  0.
    9000005    1    3    3    0    0 -0.18371743790E+02  0.39940374007E+02  0.13659732391E+02  0.46047179444E+02  0.10000000000E+01 0.  0.
         -4    1    1    2    0  502 -0.34735818113E+02 -0.50237038062E+01 -0.18294177855E+02  0.39599299278E+02  0.12700000000E+01 0. -1.
<mgrwt>
<rscale>  1 0.12984955E+03</rscale>
<asrwt>0</asrwt>
<pdfrwt beam="2">  1       21 0.19973850E-01 0.12984955E+03</pdfrwt>
<pdfrwt beam="1">  1       -4 0.80670278E-02 0.12984955E+03</pdfrwt>
<totfact> 0.10112207E+05</totfact>
</mgrwt>
</event>
<event>
 6    3  0.3813045E-003  0.1295787E+03  0.7818608E-02  0.1228082E+00
         21   -1    0    0  501  502  0.00000000000E+00  0.00000000000E+00  0.13336261250E+03  0.13336261250E+03  0.00000000000E+00 0. -1.
         -4   -1    0    0    0  501 -0.00000000000E+00 -0.00000000000E+00 -0.59104642050E+03  0.59104778494E+03  0.12700000000E+01 0.  1.
         25    2    1    2    0    0  0.33501766145E+02 -0.65845938674E+01 -0.58160527308E+03  0.59586520064E+03  0.12499967381E+03 0.  0.
    9000005    1    3    3    0    0  0.54577160501E+01  0.43416190242E+02 -0.45235942069E+03  0.45447199884E+03  0.10000000000E+01 0.  0.
    9000005    1    3    3    0    0  0.28044050095E+02 -0.50000784110E+02 -0.12924585239E+03  0.14139320181E+03  0.10000000000E+01 0.  0.
         -4    1    1    2    0  502 -0.33501766145E+02  0.65845938674E+01  0.12392146509E+03  0.12854519680E+03  0.12700000000E+01 0. -1.
<mgrwt>
<rscale>  1 0.12957872E+03</rscale>
<asrwt>0</asrwt>
<pdfrwt beam="1">  1       21 0.20517325E-01 0.12957872E+03</pdfrwt>
<pdfrwt beam="2">  1       -4 0.90930790E-01 0.12957872E+03</pdfrwt>
<totfact> 0.97593101E+02</totfact>
</mgrwt>
</event>
<event>
 6    3  0.3813045E-003  0.1303430E+03  0.7818608E-02  0.1226948E+00
         -4   -1    0    0    0  501 -0.00000000000E+00  0.00000000000E+00  0.11028997916E+03  0.11029729101E+03  0.12700000000E+01 0.  1.
         21   -1    0    0  501  502  0.00000000000E+00 -0.00000000000E+00 -0.18526435113E+03  0.18526435113E+03  0.00000000000E+00 0. -1.
         25    2    1    2    0    0  0.22562105566E+02 -0.29296465436E+02  0.68602358259E+02  0.14729424229E+03  0.12498791445E+03 0.  0.
    9000005    1    3    3    0    0 -0.10407686242E+02  0.46395037814E+02  0.21002139231E+02  0.51989511625E+02  0.10000000000E+01 0.  0.
    9000005    1    3    3    0    0  0.32969791808E+02 -0.75691503250E+02  0.47600219028E+02  0.95304730668E+02  0.10000000000E+01 0.  0.
         -4    1    1    2    0  502 -0.22562105566E+02  0.29296465436E+02 -0.14357673023E+03  0.14826739985E+03  0.12700000000E+01 0. -1.
<mgrwt>
<rscale>  1 0.13034305E+03</rscale>
<asrwt>0</asrwt>
<pdfrwt beam="2">  1       21 0.28502208E-01 0.13034305E+03</pdfrwt>
<pdfrwt beam="1">  1       -4 0.16968586E-01 0.13034305E+03</pdfrwt>
<totfact> 0.14558000E+04</totfact>
</mgrwt>
</event>
<event>
 6    3  0.3813045E-003  0.1302574E+03  0.7818608E-02  0.1227074E+00
          4   -1    0    0  502    0 -0.00000000000E+00  0.00000000000E+00  0.44288068140E+03  0.44288250232E+03  0.12700000000E+01 0.  1.
         21   -1    0    0  501  502  0.00000000000E+00 -0.00000000000E+00 -0.29103708737E+02  0.29103708737E+02  0.00000000000E+00 0. -1.
         25    2    1    2    0    0 -0.32622830637E+02 -0.16674976781E+02  0.41534700580E+03  0.43529313496E+03  0.12499869674E+03 0.  0.
    9000005    1    3    3    0    0  0.22360384655E+02  0.25805745707E+02  0.28973017189E+03  0.29173703196E+03  0.10000000000E+01 0.  0.
    9000005    1    3    3    0    0 -0.54983215292E+02 -0.42480722488E+02  0.12561683391E+03  0.14355610300E+03  0.10000000000E+01 0.  0.
          4    1    1    2  501    0  0.32622830637E+02  0.16674976781E+02 -0.15700331332E+01  0.36693076097E+02  0.12700000000E+01 0. -1.
<mgrwt>
<rscale>  1 0.13025735E+03</rscale>
<asrwt>0</asrwt>
<pdfrwt beam="2">  1       21 0.44774940E-02 0.13025735E+03</pdfrwt>
<pdfrwt beam="1">  1        4 0.68137756E-01 0.13025735E+03</pdfrwt>
<totfact> 0.26466511E+04</totfact>
</mgrwt>
</event>
<event>
 6    3  0.3813045E-003  0.1402147E+03  0.7818608E-02  0.1213040E+00
         21   -1    0    0  501  502  0.00000000000E+00  0.00000000000E+00  0.42786504715E+02  0.42786504715E+02  0.00000000000E+00 0.  1.
         -4   -1    0    0    0  501 -0.00000000000E+00 -0.00000000000E+00 -0.77505850432E+03  0.77505954482E+03  0.12700000000E+01 0. -1.
         25    2    1    2    0    0 -0.26418711770E+02  0.57767018418E+02 -0.74061089900E+03  0.75376698204E+03  0.12500073101E+03 0.  0.
    9000005    1    3    3    0    0 -0.43491218418E+02 -0.21667530990E+02 -0.42870497393E+03  0.43145095046E+03  0.10000000000E+01 0.  0.
    9000005    1    3    3    0    0  0.17072506648E+02  0.79434549409E+02 -0.31190592507E+03  0.32231603158E+03  0.10000000000E+01 0.  0.
         -4    1    1    2    0  502  0.26418711770E+02 -0.57767018418E+02  0.83388993899E+01  0.64079067499E+02  0.12700000000E+01 0.  1.
<mgrwt>
<rscale>  1 0.14021469E+03</rscale>
<asrwt>0</asrwt>
<pdfrwt beam="1">  1       21 0.65825404E-02 0.14021469E+03</pdfrwt>
<pdfrwt beam="2">  1       -4 0.11924128E+00 0.14021469E+03</pdfrwt>
<totfact> 0.39117365E+03</totfact>
</mgrwt>
</event>
<event>
 6    3  0.3813045E-003  0.1278201E+03  0.7818608E-02  0.1230727E+00
         -4   -1    0    0    0  501 -0.00000000000E+00  0.00000000000E+00  0.99853862530E+01  0.10065825283E+02  0.12700000000E+01 0. -1.
         21   -1    0    0  501  502  0.00000000000E+00 -0.00000000000E+00 -0.59566881106E+03  0.59566881106E+03  0.00000000000E+00 0. -1.
         25    2    1    2    0    0  0.24526889131E+02 -0.10571699136E+02 -0.48282699854E+03  0.49945958547E+03  0.12499855154E+03 0.  0.
    9000005    1    3    3    0    0  0.50723200642E+01  0.40719586868E+02 -0.57720174041E+02  0.70826772318E+02  0.10000000000E+01 0.  0.
    9000005    1    3    3    0    0  0.19454569067E+02 -0.51291286005E+02 -0.42510682450E+03  0.42863281316E+03  0.10000000000E+01 0.  0.
         -4    1    1    2    0  502 -0.24526889131E+02  0.10571699136E+02 -0.10285642627E+03  0.10627505087E+03  0.12700000000E+01 0.  1.
<mgrwt>
<rscale>  1 0.12782006E+03</rscale>
<asrwt>0</asrwt>
<pdfrwt beam="2">  1       21 0.91641355E-01 0.12782006E+03</pdfrwt>
<pdfrwt beam="1">  1       -4 0.15425050E-02 0.12782006E+03</pdfrwt>
<totfact> 0.62161603E+04</totfact>
</mgrwt>
</event>
<event>
 6    3  0.3813045E-003  0.1283957E+03  0.7818608E-02  0.1229856E+00
          4   -1    0    0  502    0 -0.00000000000E+00  0.00000000000E+00  0.42270076941E+02  0.42289151145E+02  0.12700000000E+01 0.  1.
         21   -1    0    0  501  502  0.00000000000E+00 -0.00000000000E+00 -0.41929471567E+03  0.41929471567E+03  0.00000000000E+00 0. -1.
         25    2    1    2    0    0 -0.13680481189E+02  0.25948331310E+02 -0.57448831442E+02  0.14066209914E+03  0.12499994575E+03 0.  0.
    9000005    1    3    3    0    0 -0.69304159519E+02  0.16810780166E+02 -0.24781997599E+02  0.75503749983E+02  0.10000000000E+01 0.  0.
    9000005    1    3    3    0    0  0.55623678330E+02  0.91375511442E+01 -0.32666833843E+02  0.65158349159E+02  0.10000000000E+01 0.  0.
          4    1    1    2  501    0  0.13680481189E+02 -0.25948331310E+02 -0.31957580729E+03  0.32092176767E+03  0.12700000000E+01 0. -1.
<mgrwt>
<rscale>  1 0.12839571E+03</rscale>
<asrwt>0</asrwt>
<pdfrwt beam="2">  1       21 0.64506881E-01 0.12839571E+03</pdfrwt>
<pdfrwt beam="1">  1        4 0.65047038E-02 0.12839571E+03</pdfrwt>
<totfact> 0.14117784E+04</totfact>
</mgrwt>
</event>
<event>
 6    3  0.3813045E-003  0.1283552E+03  0.7818608E-02  0.1229917E+00
         21   -1    0    0  501  502  0.00000000000E+00  0.00000000000E+00  0.23747348074E+03  0.23747348074E+03  0.00000000000E+00 0.  1.
         -4   -1    0    0    0  501 -0.00000000000E+00 -0.00000000000E+00 -0.35336286961E+02  0.35359101744E+02  0.12700000000E+01 0.  1.
         25    2    1    2    0    0  0.23199000625E+02 -0.17650179744E+02  0.89500467461E+02  0.15647809185E+03  0.12500134831E+03 0.  0.
    9000005    1    3    3    0    0  0.65472990275E+02 -0.40415349441E+02  0.37185829848E+02  0.85462850804E+02  0.10000000000E+01 0.  0.
    9000005    1    3    3    0    0 -0.42273989650E+02  0.22765169697E+02  0.52314637613E+02  0.71015241046E+02  0.10000000000E+01 0.  0.
         -4    1    1    2    0  502 -0.23199000625E+02  0.17650179744E+02  0.11263672632E+03  0.11635449063E+03  0.12700000000E+01 0. -1.
<mgrwt>
<rscale>  1 0.12835521E+03</rscale>
<asrwt>0</asrwt>
<pdfrwt beam="1">  1       21 0.36534381E-01 0.12835521E+03</pdfrwt>
<pdfrwt beam="2">  1       -4 0.54383682E-02 0.12835521E+03</pdfrwt>
<totfact> 0.60771914E+04</totfact>
</mgrwt>
</event>
<event>
 6    3  0.3813045E-003  0.1345702E+03  0.7818608E-02  0.1220828E+00
         21   -1    0    0  501  502  0.00000000000E+00  0.00000000000E+00  0.88170387359E+03  0.88170387359E+03  0.00000000000E+00 0. -1.
         -4   -1    0    0    0  501 -0.00000000000E+00 -0.00000000000E+00 -0.11497602402E+02  0.11567530462E+02  0.12700000000E+01 0.  1.
         25    2    1    2    0    0 -0.31068105708E+02 -0.38966271747E+02  0.43818211762E+03  0.45838052154E+03  0.12500214718E+03 0.  0.
    9000005    1    3    3    0    0 -0.40882025494E+02 -0.63862306711E+02  0.41806433271E+03  0.42488647956E+03  0.10000000000E+01 0.  0.
    9000005    1    3    3    0    0  0.98139197856E+01  0.24896034964E+02  0.20117784904E+02  0.33494041977E+02  0.10000000000E+01 0.  0.
         -4    1    1    2    0  502  0.31068105708E+02  0.38966271747E+02  0.43202415357E+03  0.43489088252E+03  0.12700000000E+01 0. -1.
<mgrwt>
<rscale>  1 0.13457018E+03</rscale>
<asrwt>0</asrwt>
<pdfrwt beam="1">  1       21 0.13564670E+00 0.13457018E+03</pdfrwt>
<pdfrwt beam="2">  1       -4 0.17743120E-02 0.13457018E+03</pdfrwt>
<totfact> 0.19653388E+04</totfact>
</mgrwt>
</event>
<event>
 6    3  0.3813045E-003  0.1274930E+03  0.7818608E-02  0.1231224E+00
          4   -1    0    0  502    0 -0.00000000000E+00  0.00000000000E+00  0.20065970707E+02  0.20106120472E+02  0.12700000000E+01 0.  1.
         21   -1    0    0  501  502  0.00000000000E+00 -0.00000000000E+00 -0.29232930257E+03  0.29232930257E+03  0.00000000000E+00 0.  1.
         25    2    1    2    0    0  0.40607198295E+01  0.24775251448E+02 -0.21615243316E+03  0.25095088529E+03  0.12499667970E+03 0.  0.
    9000005    1    3    3    0    0  0.50230050888E+02  0.50958783158E+02 -0.14947379899E+03  0.16572046397E+03  0.10000000000E+01 0.  0.
    9000005    1    3    3    0    0 -0.46169331059E+02 -0.26183531709E+02 -0.66678634166E+02  0.85230421315E+02  0.10000000000E+01 0.  0.
          4    1    1    2  501    0 -0.40607198295E+01 -0.24775251448E+02 -0.56110898700E+02  0.61484537753E+02  0.12700000000E+01 0. -1.
<mgrwt>
<rscale>  1 0.12749303E+03</rscale>
<asrwt>0</asrwt>
<pdfrwt beam="2">  1       21 0.44973737E-01 0.12749303E+03</pdfrwt>
<pdfrwt beam="1">  1        4 0.30903732E-02 0.12749303E+03</pdfrwt>
<totfact> 0.98318394E+04</totfact>
</mgrwt>
</event>
<event>
 6    3  0.3813045E-003  0.1511904E+03  0.7818608E-02  0.1199018E+00
         21   -1    0    0  501  502  0.00000000000E+00  0.00000000000E+00  0.48805249971E+03  0.48805249971E+03  0.00000000000E+00 0.  1.
         -4   -1    0    0    0  501 -0.00000000000E+00 -0.00000000000E+00 -0.49011991759E+02  0.49028443134E+02  0.12700000000E+01 0. -1.
         25    2    1    2    0    0  0.22489173825E+02 -0.82021492790E+02  0.85999731255E+02  0.17393814568E+03  0.12500094611E+03 0.  0.
    9000005    1    3    3    0    0  0.16990851513E+02  0.79526399265E+01  0.81544520841E+02  0.83680597489E+02  0.10000000000E+01 0.  0.
    9000005    1    3    3    0    0  0.54983223115E+01 -0.89974132716E+02  0.44552104138E+01  0.90257548195E+02  0.10000000000E+01 0.  0.
         -4    1    1    2    0  502 -0.22489173825E+02  0.82021492790E+02  0.35304077669E+03  0.36314279716E+03  0.12700000000E+01 0.  1.
<mgrwt>
<rscale>  1 0.15119036E+03</rscale>
<asrwt>0</asrwt>
<pdfrwt beam="1">  1       21 0.75084997E-01 0.15119036E+03</pdfrwt>
<pdfrwt beam="2">  1       -4 0.75416993E-02 0.15119036E+03</pdfrwt>
<totfact> 0.80369175E+03</totfact>
</mgrwt>
</event>
<event>
 6    3  0.3813045E-003  0.1290242E+03  0.7818608E-02  0.1228911E+00
         21   -1    0    0  501  502  0.00000000000E+00  0.00000000000E+00  0.72608837077E+03  0.72608837077E+03  0.00000000000E+00 0.  1.
          4   -1    0    0  502    0 -0.00000000000E+00 -0.00000000000E+00 -0.33150432004E+02  0.33174750068E+02  0.12700000000E+01 0. -1.
         25    2    1    2    0    0 -0.14222361278E+02 -0.28504027727E+02  0.94384963350E+02  0.15986172575E+03  0.12502997599E+03 0.  0.
    9000005    1    3    3    0    0  0.31303118801E+02 -0.51314829054E+02  0.90678670502E+02  0.10879668291E+03  0.10000000000E+01 0.  0.
    9000005    1    3    3    0    0 -0.45525480079E+02  0.22810801327E+02  0.37062928471E+01  0.51065042840E+02  0.10000000000E+01 0.  0.
          4    1    1    2  501    0  0.14222361278E+02  0.28504027727E+02  0.59855297542E+03  0.59940139509E+03  0.12700000000E+01 0.  1.
<mgrwt>
<rscale>  1 0.12902422E+03</rscale>
<asrwt>0</asrwt>
<pdfrwt beam="1">  1       21 0.11170589E+00 0.12902422E+03</pdfrwt>
<pdfrwt beam="2">  1        4 0.51020231E-02 0.12902422E+03</pdfrwt>
<totfact> 0.60328510E+03</totfact>
</mgrwt>
</event>
<event>
 6    3  0.3813045E-003  0.1282928E+03  0.7818608E-02  0.1230011E+00
         21   -1    0    0  501  502  0.00000000000E+00  0.00000000000E+00  0.53840138343E+02  0.53840138343E+02  0.00000000000E+00 0.  1.
         -4   -1    0    0    0  501 -0.00000000000E+00 -0.00000000000E+00 -0.11930623481E+03  0.11931299411E+03  0.12700000000E+01 0.  1.
         25    2    1    2    0    0  0.22675508508E+01 -0.28824420569E+02 -0.65857611337E+02  0.14420913149E+03  0.12499223826E+03 0.  0.
    9000005    1    3    3    0    0  0.38450615071E+02  0.21671263564E+02  0.10884194517E+02  0.45470420650E+02  0.10000000000E+01 0.  0.
    9000005    1    3    3    0    0 -0.36183064220E+02 -0.50495684133E+02 -0.76741805854E+02  0.98738710839E+02  0.10000000000E+01 0.  0.
         -4    1    1    2    0  502 -0.22675508508E+01  0.28824420569E+02  0.39151487365E+00  0.28944000965E+02  0.12700000000E+01 0. -1.
<mgrwt>
<rscale>  1 0.12829282E+03</rscale>
<asrwt>0</asrwt>
<pdfrwt beam="1">  1       21 0.82830982E-02 0.12829282E+03</pdfrwt>
<pdfrwt beam="2">  1       -4 0.18356477E-01 0.12829282E+03</pdfrwt>
<totfact> 0.11859658E+05</totfact>
</mgrwt>
</event>
<event>
 6    3  0.3813045E-003  0.1300338E+03  0.7818608E-02  0.1227406E+00
          4   -1    0    0  502    0 -0.00000000000E+00  0.00000000000E+00  0.17767442517E+03  0.17767896403E+03  0.12700000000E+01 0.  1.
         21   -1    0    0  501  502  0.00000000000E+00 -0.00000000000E+00 -0.10970808279E+03  0.10970808279E+03  0.00000000000E+00 0. -1.
         25    2    1    2    0    0  0.16114094899E+02  0.32014220012E+02  0.14960509965E+03  0.19821825224E+03  0.12499686132E+03 0.  0.
    9000005    1    3    3    0    0  0.45174098675E+02 -0.98852324202E+01  0.70161598869E+01  0.46782940381E+02  0.10000000000E+01 0.  0.
    9000005    1    3    3    0    0 -0.29060003776E+02  0.41899452432E+02  0.14258893977E+03  0.15143531186E+03  0.10000000000E+01 0.  0.
          4    1    1    2  501    0 -0.16114094899E+02 -0.32014220012E+02 -0.81638757274E+02  0.89168794579E+02  0.12700000000E+01 0. -1.
<mgrwt>
<rscale>  1 0.13003380E+03</rscale>
<asrwt>0</asrwt>
<pdfrwt beam="2">  1       21 0.16878167E-01 0.13003380E+03</pdfrwt>
<pdfrwt beam="1">  1        4 0.27335442E-01 0.13003380E+03</pdfrwt>
<totfact> 0.16303168E+04</totfact>
</mgrwt>
</event>
<event>
 6    3  0.3813045E-003  0.1291918E+03  0.7818608E-02  0.1228660E+00
         21   -1    0    0  501  502  0.00000000000E+00  0.00000000000E+00  0.81095853955E+01  0.81095853955E+01  0.00000000000E+00 0.  1.
          4   -1    0    0  502    0 -0.00000000000E+00 -0.00000000000E+00 -0.12671752617E+04  0.12671758981E+04  0.12700000000E+01 0. -1.
         25    2    1    2    0    0 -0.21691614124E+02 -0.24396058775E+02 -0.12064833874E+04  0.12133806871E+04  0.12499933620E+03 0.  0.
    9000005    1    3    3    0    0 -0.67458517610E+02 -0.23674433140E+02 -0.96158123604E+03  0.96423576157E+03  0.10000000000E+01 0.  0.
    9000005    1    3    3    0    0  0.45766903486E+02 -0.72162563540E+00 -0.24490215134E+03  0.24914492555E+03  0.10000000000E+01 0.  0.
          4    1    1    2  501    0  0.21691614124E+02  0.24396058775E+02 -0.52582288906E+02  0.61904796370E+02  0.12700000000E+01 0.  1.
<mgrwt>
<rscale>  1 0.12919183E+03</rscale>
<asrwt>0</asrwt>
<pdfrwt beam="1">  1       21 0.12476276E-02 0.12919183E+03</pdfrwt>
<pdfrwt beam="2">  1        4 0.19495788E+00 0.12919183E+03</pdfrwt>
<totfact> 0.16780001E+04</totfact>
</mgrwt>
</event>
<event>
 6    3  0.3813045E-003  0.1325290E+03  0.7818608E-02  0.1223751E+00
         21   -1    0    0  501  502  0.00000000000E+00  0.00000000000E+00  0.95269069790E+01  0.95269069790E+01  0.00000000000E+00 0.  1.
         -4   -1    0    0    0  501 -0.00000000000E+00 -0.00000000000E+00 -0.10786917226E+04  0.10786924702E+04  0.12700000000E+01 0. -1.
         25    2    1    2    0    0 -0.76543174881E+01  0.43362164766E+02 -0.97834118521E+03  0.98727676652E+03  0.12500029245E+03 0.  0.
    9000005    1    3    3    0    0  0.43225040503E+02  0.61062194708E+02 -0.44789526635E+03  0.45410149236E+03  0.10000000000E+01 0.  0.
    9000005    1    3    3    0    0 -0.50879357991E+02 -0.17700029942E+02 -0.53044591886E+03  0.53317527415E+03  0.10000000000E+01 0.  0.
         -4    1    1    2    0  502  0.76543174881E+01 -0.43362164766E+02 -0.90823630360E+02  0.10094261063E+03  0.12700000000E+01 0.  1.
<mgrwt>
<rscale>  1 0.13252901E+03</rscale>
<asrwt>0</asrwt>
<pdfrwt beam="1">  1       21 0.14656769E-02 0.13252901E+03</pdfrwt>
<pdfrwt beam="2">  1       -4 0.16595926E+00 0.13252901E+03</pdfrwt>
<totfact> 0.20176506E+04</totfact>
</mgrwt>
</event>
<event>
 6    3  0.3813045E-003  0.1281846E+03  0.7818608E-02  0.1230175E+00
          4   -1    0    0  502    0 -0.00000000000E+00  0.00000000000E+00  0.38620790704E+02  0.38641666302E+02  0.12700000000E+01 0. -1.
         21   -1    0    0  501  502  0.00000000000E+00 -0.00000000000E+00 -0.29917756139E+03  0.29917756139E+03  0.00000000000E+00 0.  1.
         25    2    1    2    0    0 -0.26571442697E+02 -0.10004258717E+02 -0.71777461441E+02  0.14691252991E+03  0.12500064285E+03 0.  0.
    9000005    1    3    3    0    0 -0.85056576591E+01 -0.22565618769E+02 -0.10461981326E+03  0.10736786619E+03  0.10000000000E+01 0.  0.
    9000005    1    3    3    0    0 -0.18065785038E+02  0.12561360052E+02  0.32842351823E+02  0.39544663719E+02  0.10000000000E+01 0.  0.
          4    1    1    2  501    0  0.26571442697E+02  0.10004258717E+02 -0.18877930925E+03  0.19090669779E+03  0.12700000000E+01 0.  1.
<mgrwt>
<rscale>  1 0.12818458E+03</rscale>
<asrwt>0</asrwt>
<pdfrwt beam="2">  1       21 0.46027316E-01 0.12818458E+03</pdfrwt>
<pdfrwt beam="1">  1        4 0.59434735E-02 0.12818458E+03</pdfrwt>
<totfact> 0.33115292E+04</totfact>
</mgrwt>
</event>
<event>
 6    3  0.3813045E-003  0.1272279E+03  0.7818608E-02  0.1231628E+00
         21   -1    0    0  501  502  0.00000000000E+00  0.00000000000E+00  0.38761844777E+02  0.38761844777E+02  0.00000000000E+00 0.  1.
          4   -1    0    0  502    0 -0.00000000000E+00 -0.00000000000E+00 -0.15714110456E+03  0.15714623649E+03  0.12700000000E+01 0.  1.
         25    2    1    2    0    0 -0.34429648208E+01 -0.23462941213E+02 -0.78509382547E+02  0.14950136162E+03  0.12499828144E+03 0.  0.
    9000005    1    3    3    0    0  0.86101658592E+01 -0.61957773003E+01 -0.11059644647E+03  0.11110849015E+03  0.10000000000E+01 0.  0.
    9000005    1    3    3    0    0 -0.12053130680E+02 -0.17267163913E+02  0.32087063920E+02  0.38392871471E+02  0.10000000000E+01 0.  0.
          4    1    1    2  501    0  0.34429648208E+01  0.23462941213E+02 -0.39869877237E+02  0.46406719643E+02  0.12700000000E+01 0. -1.
<mgrwt>
<rscale>  1 0.12722788E+03</rscale>
<asrwt>0</asrwt>
<pdfrwt beam="1">  1       21 0.59633607E-02 0.12722788E+03</pdfrwt>
<pdfrwt beam="2">  1        4 0.24177550E-01 0.12722788E+03</pdfrwt>
<totfact> 0.12631091E+05</totfact>
</mgrwt>
</event>
<event>
 6    3  0.3813045E-003  0.1278726E+03  0.7818608E-02  0.1230647E+00
         -4   -1    0    0    0  501 -0.00000000000E+00  0.00000000000E+00  0.10036168062E+04  0.10036176097E+04  0.12700000000E+01 0. -1.
         21   -1    0    0  501  502  0.00000000000E+00 -0.00000000000E+00 -0.61774158661E+01  0.61774158661E+01  0.00000000000E+00 0. -1.
         25    2    1    2    0    0 -0.26938189407E+02 -0.71856424868E+00  0.88347547665E+03  0.89268153832E+03  0.12500091452E+03 0.  0.
    9000005    1    3    3    0    0 -0.13511511092E+02 -0.57526295144E+02  0.26777796666E+03  0.27422230944E+03  0.10000000000E+01 0.  0.
    9000005    1    3    3    0    0 -0.13426678315E+02  0.56807730896E+02  0.61569750998E+03  0.61845922888E+03  0.10000000000E+01 0.  0.
         -4    1    1    2    0  502  0.26938189407E+02  0.71856424868E+00  0.11396391367E+03  0.11711348728E+03  0.12700000000E+01 0.  1.
<mgrwt>
<rscale>  1 0.12787264E+03</rscale>
<asrwt>0</asrwt>
<pdfrwt beam="2">  1       21 0.95037247E-03 0.12787264E+03</pdfrwt>
<pdfrwt beam="1">  1       -4 0.15441256E+00 0.12787264E+03</pdfrwt>
<totfact> 0.48156488E+04</totfact>
</mgrwt>
</event>
<event>
 6    3  0.3813045E-003  0.1299518E+03  0.7818608E-02  0.1227527E+00
         21   -1    0    0  501  502  0.00000000000E+00  0.00000000000E+00  0.34115995598E+03  0.34115995598E+03  0.00000000000E+00 0.  1.
          4   -1    0    0  502    0 -0.00000000000E+00 -0.00000000000E+00 -0.20099409841E+02  0.20139492942E+02  0.12700000000E+01 0.  1.
         25    2    1    2    0    0  0.34610411868E+02 -0.80716793513E+01  0.24477752970E+03  0.27713446740E+03  0.12499776541E+03 0.  0.
    9000005    1    3    3    0    0 -0.15162223088E+02 -0.51393421977E+02  0.16562576344E+03  0.17408064323E+03  0.10000000000E+01 0.  0.
    9000005    1    3    3    0    0  0.49772634957E+02  0.43321742626E+02  0.79151766258E+02  0.10305382417E+03  0.10000000000E+01 0.  0.
          4    1    1    2  501    0 -0.34610411868E+02  0.80716793513E+01  0.76283016439E+02  0.84164981520E+02  0.12700000000E+01 0. -1.
<mgrwt>
<rscale>  1 0.12995181E+03</rscale>
<asrwt>0</asrwt>
<pdfrwt beam="1">  1       21 0.52486143E-01 0.12995181E+03</pdfrwt>
<pdfrwt beam="2">  1        4 0.30954823E-02 0.12995181E+03</pdfrwt>
<totfact> 0.71565422E+04</totfact>
</mgrwt>
</event>
<event>
 6    3  0.3813045E-003  0.1296525E+03  0.7818608E-02  0.1227972E+00
         21   -1    0    0  501  502  0.00000000000E+00  0.00000000000E+00  0.38317871387E+02  0.38317871387E+02  0.00000000000E+00 0.  1.
         -4   -1    0    0    0  501 -0.00000000000E+00 -0.00000000000E+00 -0.19009483679E+03  0.19009907910E+03  0.12700000000E+01 0.  1.
         25    2    1    2    0    0 -0.33593838115E+02  0.72535612067E+01 -0.90384428532E+02  0.15804780531E+03  0.12501441410E+03 0.  0.
    9000005    1    3    3    0    0 -0.56201582361E+02 -0.34937257843E+02 -0.88002291258E+02  0.11011191176E+03  0.10000000000E+01 0.  0.
    9000005    1    3    3    0    0  0.22607744246E+02  0.42190819050E+02 -0.23821372732E+01  0.47935893545E+02  0.10000000000E+01 0.  0.
         -4    1    1    2    0  502  0.33593838115E+02 -0.72535612067E+01 -0.61392536869E+02  0.70369145175E+02  0.12700000000E+01 0. -1.
<mgrwt>
<rscale>  1 0.12965247E+03</rscale>
<asrwt>0</asrwt>
<pdfrwt beam="1">  1       21 0.58950571E-02 0.12965247E+03</pdfrwt>
<pdfrwt beam="2">  1       -4 0.29247305E-01 0.12965247E+03</pdfrwt>
<totfact> 0.90674339E+04</totfact>
</mgrwt>
</event>
<event>
 6    3  0.3813045E-003  0.1267189E+03  0.7818608E-02  0.1232407E+00
         -4   -1    0    0    0  501 -0.00000000000E+00  0.00000000000E+00  0.18183192962E+02  0.18227490400E+02  0.12700000000E+01 0.  1.
         21   -1    0    0  501  502  0.00000000000E+00 -0.00000000000E+00 -0.38600822822E+03  0.38600822822E+03  0.00000000000E+00 0.  1.
         25    2    1    2    0    0  0.20347992503E+02  0.43544240655E+01 -0.36052603188E+03  0.38214748288E+03  0.12499870880E+03 0.  0.
    9000005    1    3    3    0    0 -0.45438506449E+02  0.31010943047E+02 -0.17769421557E+03  0.18601766234E+03  0.10000000000E+01 0.  0.
    9000005    1    3    3    0    0  0.65786498952E+02 -0.26656518982E+02 -0.18283181631E+03  0.19612982054E+03  0.10000000000E+01 0.  0.
         -4    1    1    2    0  502 -0.20347992503E+02 -0.43544240655E+01 -0.72990033811E+01  0.22088235742E+02  0.12700000000E+01 0. -1.
<mgrwt>
<rscale>  1 0.12671890E+03</rscale>
<asrwt>0</asrwt>
<pdfrwt beam="2">  1       21 0.59385876E-01 0.12671890E+03</pdfrwt>
<pdfrwt beam="1">  1       -4 0.28009828E-02 0.12671890E+03</pdfrwt>
<totfact> 0.64382453E+04</totfact>
</mgrwt>
</event>
<event>
 6    3  0.3813045E-003  0.1422568E+03  0.7818608E-02  0.1210324E+00
          4   -1    0    0  502    0 -0.00000000000E+00  0.00000000000E+00  0.98281416339E+02  0.98289621516E+02  0.12700000000E+01 0. -1.
         21   -1    0    0  501  502  0.00000000000E+00 -0.00000000000E+00 -0.13107250318E+03  0.13107250318E+03  0.00000000000E+00 0.  1.
         25    2    1    2    0    0  0.30021026491E+02 -0.60880615807E+02  0.19606860418E+02  0.14360159071E+03  0.12501710469E+03 0.  0.
    9000005    1    3    3    0    0  0.63972952878E+01 -0.81542205687E+02 -0.28097815351E+02  0.86490137720E+02  0.10000000000E+01 0.  0.
    9000005    1    3    3    0    0  0.23623731204E+02  0.20661589880E+02  0.47704675769E+02  0.57111452990E+02  0.10000000000E+01 0.  0.
          4    1    1    2  501    0 -0.30021026491E+02  0.60880615807E+02 -0.52397947256E+02  0.85760533984E+02  0.12700000000E+01 0.  1.
<mgrwt>
<rscale>  1 0.14225677E+03</rscale>
<asrwt>0</asrwt>
<pdfrwt beam="2">  1       21 0.20165001E-01 0.14225677E+03</pdfrwt>
<pdfrwt beam="1">  1        4 0.15121322E-01 0.14225677E+03</pdfrwt>
<totfact> 0.34516951E+04</totfact>
</mgrwt>
</event>
<event>
 6    3  0.3813045E-003  0.1283490E+03  0.7818608E-02  0.1229926E+00
         21   -1    0    0  501  502  0.00000000000E+00  0.00000000000E+00  0.26413018119E+03  0.26413018119E+03  0.00000000000E+00 0.  1.
         -4   -1    0    0    0  501 -0.00000000000E+00 -0.00000000000E+00 -0.13807173595E+03  0.13807757663E+03  0.12700000000E+01 0. -1.
         25    2    1    2    0    0  0.20266353690E+02  0.20930736501E+02 -0.10714191494E+03  0.16719107392E+03  0.12499857776E+03 0.  0.
    9000005    1    3    3    0    0  0.73159965522E+02  0.81169435590E+01 -0.55905494609E+02  0.92437490530E+02  0.10000000000E+01 0.  0.
    9000005    1    3    3    0    0 -0.52893611832E+02  0.12813792942E+02 -0.51236420330E+02  0.74753583395E+02  0.10000000000E+01 0.  0.
         -4    1    1    2    0  502 -0.20266353690E+02 -0.20930736501E+02  0.23320036018E+03  0.23501668390E+03  0.12700000000E+01 0.  1.
<mgrwt>
<rscale>  1 0.12834900E+03</rscale>
<asrwt>0</asrwt>
<pdfrwt beam="1">  1       21 0.40635412E-01 0.12834900E+03</pdfrwt>
<pdfrwt beam="2">  1       -4 0.21242490E-01 0.12834900E+03</pdfrwt>
<totfact> 0.48589546E+03</totfact>
</mgrwt>
</event>
<event>
 6    3  0.3813045E-003  0.1278039E+03  0.7818608E-02  0.1230751E+00
          4   -1    0    0  502    0 -0.00000000000E+00  0.00000000000E+00  0.80279921960E+03  0.80280022415E+03  0.12700000000E+01 0. -1.
         21   -1    0    0  501  502  0.00000000000E+00 -0.00000000000E+00 -0.76548117051E+01  0.76548117051E+01  0.00000000000E+00 0. -1.
         25    2    1    2    0    0  0.94585113172E+01  0.24892133414E+02  0.70337972744E+03  0.71489640871E+03  0.12499900988E+03 0.  0.
    9000005    1    3    3    0    0  0.27824686981E+02  0.42464970847E+02  0.67450755906E+03  0.67641624329E+03  0.10000000000E+01 0.  0.
    9000005    1    3    3    0    0 -0.18366175664E+02 -0.17572837433E+02  0.28872168381E+02  0.38480165423E+02  0.10000000000E+01 0.  0.
          4    1    1    2  501    0 -0.94585113172E+01 -0.24892133414E+02  0.91764680455E+02  0.95558627142E+02  0.12700000000E+01 0.  1.
<mgrwt>
<rscale>  1 0.12780389E+03</rscale>
<asrwt>0</asrwt>
<pdfrwt beam="2">  1       21 0.11776640E-02 0.12780389E+03</pdfrwt>
<pdfrwt beam="1">  1        4 0.12351569E+00 0.12780389E+03</pdfrwt>
<totfact> 0.59789735E+04</totfact>
</mgrwt>
</event>
<event>
 6    3  0.3813045E-003  0.1270778E+03  0.7818608E-02  0.1231857E+00
         21   -1    0    0  501  502  0.00000000000E+00  0.00000000000E+00  0.27229472144E+03  0.27229472144E+03  0.00000000000E+00 0.  1.
          4   -1    0    0  502    0 -0.00000000000E+00 -0.00000000000E+00 -0.30295936467E+02  0.30322543864E+02  0.12700000000E+01 0.  1.
         25    2    1    2    0    0 -0.16357857499E+02  0.15757306925E+02  0.10820809419E+03  0.16690641804E+03  0.12503155007E+03 0.  0.
    9000005    1    3    3    0    0 -0.54676008903E+02  0.98294810044E+01  0.39899544386E+01  0.55704617249E+02  0.10000000000E+01 0.  0.
    9000005    1    3    3    0    0  0.38318151404E+02  0.59278259209E+01  0.10421813975E+03  0.11120180079E+03  0.10000000000E+01 0.  0.
          4    1    1    2  501    0  0.16357857499E+02 -0.15757306925E+02  0.13379069078E+03  0.13571084726E+03  0.12700000000E+01 0. -1.
<mgrwt>
<rscale>  1 0.12707777E+03</rscale>
<asrwt>0</asrwt>
<pdfrwt beam="1">  1       21 0.41891494E-01 0.12707777E+03</pdfrwt>
<pdfrwt beam="2">  1        4 0.46631880E-02 0.12707777E+03</pdfrwt>
<totfact> 0.59165413E+04</totfact>
</mgrwt>
</event>
<event>
 6    3  0.3813045E-003  0.1270649E+03  0.7818608E-02  0.1231877E+00
          4   -1    0    0  502    0 -0.00000000000E+00  0.00000000000E+00  0.31306622490E+03  0.31306880086E+03  0.12700000000E+01 0. -1.
         21   -1    0    0  501  502  0.00000000000E+00 -0.00000000000E+00 -0.22643853158E+02  0.22643853158E+02  0.00000000000E+00 0. -1.
         25    2    1    2    0    0  0.22005400326E+02  0.60012131468E+01  0.16515161187E+03  0.20837598066E+03  0.12500096884E+03 0.  0.
    9000005    1    3    3    0    0  0.80312744768E+01  0.56096655139E+02  0.13909101975E+03  0.15019536565E+03  0.10000000000E+01 0.  0.
    9000005    1    3    3    0    0  0.13974125849E+02 -0.50095441992E+02  0.26060592121E+02  0.58180615014E+02  0.10000000000E+01 0.  0.
          4    1    1    2  501    0 -0.22005400326E+02 -0.60012131468E+01  0.12527075986E+03  0.12733667335E+03  0.12700000000E+01 0.  1.
<mgrwt>
<rscale>  1 0.12706492E+03</rscale>
<asrwt>0</asrwt>
<pdfrwt beam="2">  1       21 0.34836699E-02 0.12706492E+03</pdfrwt>
<pdfrwt beam="1">  1        4 0.48166969E-01 0.12706492E+03</pdfrwt>
<totfact> 0.82381482E+04</totfact>
</mgrwt>
</event>
<event>
 6    3  0.3813045E-003  0.1300241E+03  0.7818608E-02  0.1227420E+00
         -4   -1    0    0    0  501 -0.00000000000E+00  0.00000000000E+00  0.30317033312E+03  0.30317299316E+03  0.12700000000E+01 0.  1.
         21   -1    0    0  501  502  0.00000000000E+00 -0.00000000000E+00 -0.13846042478E+03  0.13846042478E+03  0.00000000000E+00 0. -1.
         25    2    1    2    0    0  0.30334451583E+02 -0.19011657861E+02  0.28653206215E+03  0.31465360794E+03  0.12499859304E+03 0.  0.
    9000005    1    3    3    0    0 -0.33875762664E+02 -0.11262384422E+02  0.21607882959E+03  0.21901020341E+03  0.10000000000E+01 0.  0.
    9000005    1    3    3    0    0  0.64210214247E+02 -0.77492734387E+01  0.70453232558E+02  0.95643404531E+02  0.10000000000E+01 0.  0.
         -4    1    1    2    0  502 -0.30334451583E+02  0.19011657861E+02 -0.12182215381E+03  0.12697981000E+03  0.12700000000E+01 0. -1.
<mgrwt>
<rscale>  1 0.13002411E+03</rscale>
<asrwt>0</asrwt>
<pdfrwt beam="2">  1       21 0.21301604E-01 0.13002411E+03</pdfrwt>
<pdfrwt beam="1">  1       -4 0.46642242E-01 0.13002411E+03</pdfrwt>
<totfact> 0.37766084E+03</totfact>
</mgrwt>
</event>
<event>
 6    3  0.3813045E-003  0.1277177E+03  0.7818608E-02  0.1230882E+00
         21   -1    0    0  501  502  0.00000000000E+00  0.00000000000E+00  0.63776244527E+03  0.63776244527E+03  0.00000000000E+00 0.  1.
         -4   -1    0    0    0  501 -0.00000000000E+00 -0.00000000000E+00 -0.18065881802E+02  0.18110466181E+02  0.12700000000E+01 0. -1.
         25    2    1    2    0    0 -0.60906972979E+01 -0.25494006023E+02  0.21318288345E+03  0.24851308785E+03  0.12499908841E+03 0.  0.
    9000005    1    3    3    0    0 -0.11731360046E+02 -0.65470593104E+02  0.58303893576E+02  0.88455454190E+02  0.10000000000E+01 0.  0.
    9000005    1    3    3    0    0  0.56406627481E+01  0.39976587080E+02  0.15487898987E+03  0.16005763366E+03  0.10000000000E+01 0.  0.
         -4    1    1    2    0  502  0.60906972979E+01  0.25494006023E+02  0.40651368002E+03  0.40735982359E+03  0.12700000000E+01 0.  1.
<mgrwt>
<rscale>  1 0.12771771E+03</rscale>
<asrwt>0</asrwt>
<pdfrwt beam="1">  1       21 0.98117282E-01 0.12771771E+03</pdfrwt>
<pdfrwt beam="2">  1       -4 0.27828938E-02 0.12771771E+03</pdfrwt>
<totfact> 0.21382532E+04</totfact>
</mgrwt>
</event>
<event>
 6    3  0.3813045E-003  0.1274903E+03  0.7818608E-02  0.1231228E+00
         21   -1    0    0  501  502  0.00000000000E+00  0.00000000000E+00  0.27339425644E+02  0.27339425644E+02  0.00000000000E+00 0.  1.
         -4   -1    0    0    0  501 -0.00000000000E+00 -0.00000000000E+00 -0.94559724392E+03  0.94559809677E+03  0.12700000000E+01 0. -1.
         25    2    1    2    0    0  0.24304609489E+02 -0.62825895356E+01 -0.93440500562E+03  0.94306228964E+03  0.12499433047E+03 0.  0.
    9000005    1    3    3    0    0  0.39661330177E+02  0.47884846529E+02 -0.66099246459E+03  0.66391115210E+03  0.10000000000E+01 0.  0.
    9000005    1    3    3    0    0 -0.15356720688E+02 -0.54167436065E+02 -0.27341254103E+03  0.27915113755E+03  0.10000000000E+01 0.  0.
         -4    1    1    2    0  502 -0.24304609489E+02  0.62825895356E+01  0.16147187344E+02  0.29875232766E+02  0.12700000000E+01 0.  1.
<mgrwt>
<rscale>  1 0.12749026E+03</rscale>
<asrwt>0</asrwt>
<pdfrwt beam="1">  1       21 0.42060657E-02 0.12749026E+03</pdfrwt>
<pdfrwt beam="2">  1       -4 0.14547882E+00 0.12749026E+03</pdfrwt>
<totfact> 0.50696963E+03</totfact>
</mgrwt>
</event>
<event>
 6    3  0.3813045E-003  0.1299481E+03  0.7818608E-02  0.1227533E+00
         -4   -1    0    0    0  501 -0.00000000000E+00  0.00000000000E+00  0.65470584362E+02  0.65482900949E+02  0.12700000000E+01 0. -1.
         21   -1    0    0  501  502  0.00000000000E+00 -0.00000000000E+00 -0.12716954311E+03  0.12716954311E+03  0.00000000000E+00 0. -1.
         25    2    1    2    0    0  0.59888412108E+01  0.35011288859E+02 -0.10561848606E+02  0.13037665823E+03  0.12499945520E+03 0.  0.
    9000005    1    3    3    0    0 -0.48143956068E+02  0.45962414143E+02  0.16911619770E+02  0.68683235968E+02  0.10000000000E+01 0.  0.
    9000005    1    3    3    0    0  0.54132797279E+02 -0.10951125284E+02 -0.27473468376E+02  0.61693422266E+02  0.10000000000E+01 0.  0.
         -4    1    1    2    0  502 -0.59888412108E+01 -0.35011288859E+02 -0.51137110144E+02  0.62275785828E+02  0.12700000000E+01 0.  1.
<mgrwt>
<rscale>  1 0.12994814E+03</rscale>
<asrwt>0</asrwt>
<pdfrwt beam="2">  1       21 0.19564545E-01 0.12994814E+03</pdfrwt>
<pdfrwt beam="1">  1       -4 0.10073833E-01 0.12994814E+03</pdfrwt>
<totfact> 0.72507676E+04</totfact>
</mgrwt>
</event>
<event>
 6    3  0.3813045E-003  0.1519326E+03  0.7818608E-02  0.1198118E+00
         21   -1    0    0  501  502  0.00000000000E+00  0.00000000000E+00  0.13394139158E+03  0.13394139158E+03  0.00000000000E+00 0. -1.
          4   -1    0    0  502    0 -0.00000000000E+00 -0.00000000000E+00 -0.13904168429E+03  0.13904748423E+03  0.12700000000E+01 0.  1.
         25    2    1    2    0    0  0.67000019996E+02 -0.54496033431E+02 -0.67682232421E+02  0.16632617184E+03  0.12499876205E+03 0.  0.
    9000005    1    3    3    0    0  0.17134482669E+02 -0.13897467720E+02 -0.94206660730E+02  0.96760658489E+02  0.10000000000E+01 0.  0.
    9000005    1    3    3    0    0  0.49865537327E+02 -0.40598565711E+02  0.26524428309E+02  0.69565513352E+02  0.10000000000E+01 0.  0.
          4    1    1    2  501    0 -0.67000019996E+02  0.54496033431E+02  0.62581939710E+02  0.10666270396E+03  0.12700000000E+01 0. -1.
<mgrwt>
<rscale>  1 0.15193259E+03</rscale>
<asrwt>0</asrwt>
<pdfrwt beam="1">  1       21 0.20606368E-01 0.15193259E+03</pdfrwt>
<pdfrwt beam="2">  1        4 0.21391938E-01 0.15193259E+03</pdfrwt>
<totfact> 0.17984688E+04</totfact>
</mgrwt>
</event>
<event>
 6    3  0.3813045E-003  0.1267726E+03  0.7818608E-02  0.1232325E+00
         21   -1    0    0  501  502  0.00000000000E+00  0.00000000000E+00  0.12078605435E+04  0.12078605435E+04  0.00000000000E+00 0. -1.
          4   -1    0    0  502    0 -0.00000000000E+00 -0.00000000000E+00 -0.95735912889E+01  0.96574608550E+01  0.12700000000E+01 0.  1.
         25    2    1    2    0    0  0.17494891640E+02  0.11815667202E+02  0.41466828382E+03  0.43361398499E+03  0.12500248457E+03 0.  0.
    9000005    1    3    3    0    0 -0.16064350447E+02  0.36314058203E+01  0.39186260780E+03  0.39220983396E+03  0.10000000000E+01 0.  0.
    9000005    1    3    3    0    0  0.33559242087E+02  0.81842613819E+01  0.22805676021E+02  0.41404151031E+02  0.10000000000E+01 0.  0.
          4    1    1    2  501    0 -0.17494891640E+02 -0.11815667202E+02  0.78361866837E+03  0.78390401934E+03  0.12700000000E+01 0. -1.
<mgrwt>
<rscale>  1 0.12677264E+03</rscale>
<asrwt>0</asrwt>
<pdfrwt beam="1">  1       21 0.18582458E+00 0.12677264E+03</pdfrwt>
<pdfrwt beam="2">  1        4 0.14793640E-02 0.12677264E+03</pdfrwt>
<totfact> 0.11238260E+04</totfact>
</mgrwt>
</event>
<event>
 6    3  0.3813045E-003  0.1527066E+03  0.7818608E-02  0.1197186E+00
         21   -1    0    0  501  502  0.00000000000E+00  0.00000000000E+00  0.58926025304E+03  0.58926025304E+03  0.00000000000E+00 0. -1.
         -4   -1    0    0    0  501 -0.00000000000E+00 -0.00000000000E+00 -0.25189673826E+02  0.25221668610E+02  0.12700000000E+01 0.  1.
         25    2    1    2    0    0 -0.87546430678E+02 -0.54528549807E+01  0.30753206409E+03  0.34335882453E+03  0.12500080314E+03 0.  0.
    9000005    1    3    3    0    0 -0.10025316635E+03 -0.45138971641E+02  0.24019693921E+03  0.26416622367E+03  0.10000000000E+01 0.  0.
    9000005    1    3    3    0    0  0.12706735677E+02  0.39686116660E+02  0.67335124890E+02  0.79192600860E+02  0.10000000000E+01 0.  0.
         -4    1    1    2    0  502  0.87546430678E+02  0.54528549807E+01  0.25653851512E+03  0.27112309712E+03  0.12700000000E+01 0. -1.
<mgrwt>
<rscale>  1 0.15270662E+03</rscale>
<asrwt>0</asrwt>
<pdfrwt beam="1">  1       21 0.90655413E-01 0.15270662E+03</pdfrwt>
<pdfrwt beam="2">  1       -4 0.38779013E-02 0.15270662E+03</pdfrwt>
<totfact> 0.15431063E+04</totfact>
</mgrwt>
</event>
<event>
 6    3  0.3813045E-003  0.1266479E+03  0.7818608E-02  0.1232516E+00
         21   -1    0    0  501  502  0.00000000000E+00  0.00000000000E+00  0.58236641268E+02  0.58236641268E+02  0.00000000000E+00 0. -1.
         -4   -1    0    0    0  501 -0.00000000000E+00 -0.00000000000E+00 -0.18315898579E+03  0.18316338874E+03  0.12700000000E+01 0. -1.
         25    2    1    2    0    0 -0.12398227805E+01  0.20349367898E+02 -0.15801833053E+03  0.20250798552E+03  0.12499622986E+03 0.  0.
    9000005    1    3    3    0    0 -0.49993919955E+02  0.30317369599E+02 -0.31216095900E+02  0.66287099613E+02  0.10000000000E+01 0.  0.
    9000005    1    3    3    0    0  0.48754097174E+02 -0.99680017012E+01 -0.12680223463E+03  0.13622088591E+03  0.10000000000E+01 0.  0.
         -4    1    1    2    0  502  0.12398227805E+01 -0.20349367898E+02  0.33095986014E+02  0.38892044490E+02  0.12700000000E+01 0.  1.
<mgrwt>
<rscale>  1 0.12664790E+03</rscale>
<asrwt>0</asrwt>
<pdfrwt beam="1">  1       21 0.89594833E-02 0.12664790E+03</pdfrwt>
<pdfrwt beam="2">  1       -4 0.28179709E-01 0.12664790E+03</pdfrwt>
<totfact> 0.47287774E+04</totfact>
</mgrwt>
</event>
<event>
 6    3  0.3813045E-003  0.1276274E+03  0.7818608E-02  0.1231019E+00
         21   -1    0    0  501  502  0.00000000000E+00  0.00000000000E+00  0.82877128692E+03  0.82877128692E+03  0.00000000000E+00 0. -1.
         -4   -1    0    0    0  501 -0.00000000000E+00 -0.00000000000E+00 -0.27179392794E+02  0.27209047992E+02  0.12700000000E+01 0.  1.
         25    2    1    2    0    0  0.23931272743E+02  0.95541165820E+01  0.12416039741E+03  0.17805774891E+03  0.12499908282E+03 0.  0.
    9000005    1    3    3    0    0  0.62218475285E+02  0.28548600656E+02  0.11575808663E+03  0.13448827416E+03  0.10000000000E+01 0.  0.
    9000005    1    3    3    0    0 -0.38287202542E+02 -0.18994484074E+02  0.84023107719E+01  0.43569474751E+02  0.10000000000E+01 0.  0.
         -4    1    1    2    0  502 -0.23931272743E+02 -0.95541165820E+01  0.67743149672E+03  0.67792258600E+03  0.12700000000E+01 0. -1.
<mgrwt>
<rscale>  1 0.12762742E+03</rscale>
<asrwt>0</asrwt>
<pdfrwt beam="1">  1       21 0.12750326E+00 0.12762742E+03</pdfrwt>
<pdfrwt beam="2">  1       -4 0.41838017E-02 0.12762742E+03</pdfrwt>
<totfact> 0.60008194E+03</totfact>
</mgrwt>
</event>
<event>
 6    3  0.3813045E-003  0.1268433E+03  0.7818608E-02  0.1232216E+00
         21   -1    0    0  501  502  0.00000000000E+00  0.00000000000E+00  0.26962712829E+03  0.26962712829E+03  0.00000000000E+00 0.  1.
         -4   -1    0    0    0  501 -0.00000000000E+00 -0.00000000000E+00 -0.23095256161E+02  0.23130148230E+02  0.12700000000E+01 0.  1.
         25    2    1    2    0    0 -0.18250383478E+02  0.11422151424E+02  0.16329471724E+03  0.20677135386E+03  0.12500274422E+03 0.  0.
    9000005    1    3    3    0    0  0.15008183736E+02  0.63079378721E+02  0.93436894193E+02  0.11373524869E+03  0.10000000000E+01 0.  0.
    9000005    1    3    3    0    0 -0.33258567214E+02 -0.51657227298E+02  0.69857823042E+02  0.93036105171E+02  0.10000000000E+01 0.  0.
         -4    1    1    2    0  502  0.18250383478E+02 -0.11422151424E+02  0.83237154896E+02  0.85985922659E+02  0.12700000000E+01 0. -1.
<mgrwt>
<rscale>  1 0.12684332E+03</rscale>
<asrwt>0</asrwt>
<pdfrwt beam="1">  1       21 0.41481095E-01 0.12684332E+03</pdfrwt>
<pdfrwt beam="2">  1       -4 0.35560306E-02 0.12684332E+03</pdfrwt>
<totfact> 0.92781516E+04</totfact>
</mgrwt>
</event>
<event>
 6    3  0.3813045E-003  0.1273524E+03  0.7818608E-02  0.1231438E+00
         -4   -1    0    0    0  501 -0.00000000000E+00  0.00000000000E+00  0.18559293541E+02  0.18602695416E+02  0.12700000000E+01 0.  1.
         21   -1    0    0  501  502  0.00000000000E+00 -0.00000000000E+00 -0.54908397292E+03  0.54908397292E+03  0.00000000000E+00 0.  1.
         25    2    1    2    0    0 -0.24235395073E+02  0.18933464437E+01 -0.20557020634E+03  0.24182172456E+03  0.12501078993E+03 0.  0.
    9000005    1    3    3    0    0  0.10155437374E+02  0.14947720632E+01 -0.20712243788E+03  0.20737905276E+03  0.10000000000E+01 0.  0.
    9000005    1    3    3    0    0 -0.34390832447E+02  0.39857438055E+00  0.15522315351E+01  0.34442671800E+02  0.10000000000E+01 0.  0.
         -4    1    1    2    0  502  0.24235395073E+02 -0.18933464437E+01 -0.32495447304E+03  0.32586494377E+03  0.12700000000E+01 0. -1.
<mgrwt>
<rscale>  1 0.12735241E+03</rscale>
<asrwt>0</asrwt>
<pdfrwt beam="2">  1       21 0.84474450E-01 0.12735241E+03</pdfrwt>
<pdfrwt beam="1">  1       -4 0.28587278E-02 0.12735241E+03</pdfrwt>
<totfact> 0.28888801E+04</totfact>
</mgrwt>
</event>
<event>
 6    3  0.3813045E-003  0.2168481E+03  0.7818608E-02  0.1136255E+00
         21   -1    0    0  501  502  0.00000000000E+00  0.00000000000E+00  0.15472498990E+03  0.15472498990E+03  0.00000000000E+00 0.  1.
         -4   -1    0    0    0  501 -0.00000000000E+00 -0.00000000000E+00 -0.10561083716E+04  0.10561091352E+04  0.12700000000E+01 0. -1.
         25    2    1    2    0    0 -0.17598807811E+03  0.20655226540E+02 -0.98946572661E+03  0.10129489200E+04  0.12499859334E+03 0.  0.
    9000005    1    3    3    0    0  0.17724901455E+02 -0.77258210185E+01 -0.13222962662E+03  0.13363956973E+03  0.10000000000E+01 0.  0.
    9000005    1    3    3    0    0 -0.19371297956E+03  0.28381047558E+02 -0.85723609999E+03  0.87930935025E+03  0.10000000000E+01 0.  0.
         -4    1    1    2    0  502  0.17598807811E+03 -0.20655226540E+02  0.88082344909E+02  0.19788520512E+03  0.12700000000E+01 0.  1.
<mgrwt>
<rscale>  1 0.21684808E+03</rscale>
<asrwt>0</asrwt>
<pdfrwt beam="1">  1       21 0.23803845E-01 0.21684808E+03</pdfrwt>
<pdfrwt beam="2">  1       -4 0.16247867E+00 0.21684808E+03</pdfrwt>
<totfact> 0.17946902E+02</totfact>
</mgrwt>
</event>
<event>
 6    3  0.3813045E-003  0.1374738E+03  0.7818608E-02  0.1216769E+00
         -4   -1    0    0    0  501 -0.00000000000E+00  0.00000000000E+00  0.10955149436E+03  0.10955885549E+03  0.12700000000E+01 0.  1.
         21   -1    0    0  501  502  0.00000000000E+00 -0.00000000000E+00 -0.14533478574E+03  0.14533478574E+03  0.00000000000E+00 0.  1.
         25    2    1    2    0    0 -0.47720318356E+02  0.31576533498E+02  0.54593831079E+02  0.14791727274E+03  0.12499890772E+03 0.  0.
    9000005    1    3    3    0    0 -0.12951325923E+02 -0.48407766561E+02  0.16803685141E+02  0.52862203330E+02  0.10000000000E+01 0.  0.
    9000005    1    3    3    0    0 -0.34768992433E+02  0.79984300060E+02  0.37790145938E+02  0.95055069412E+02  0.10000000000E+01 0.  0.
         -4    1    1    2    0  502  0.47720318356E+02 -0.31576533498E+02 -0.90377122455E+02  0.10697636849E+03  0.12700000000E+01 0. -1.
<mgrwt>
<rscale>  1 0.13747375E+03</rscale>
<asrwt>0</asrwt>
<pdfrwt beam="2">  1       21 0.22359198E-01 0.13747375E+03</pdfrwt>
<pdfrwt beam="1">  1       -4 0.16855069E-01 0.13747375E+03</pdfrwt>
<totfact> 0.23446582E+04</totfact>
</mgrwt>
</event>
<event>
 6    3  0.3813045E-003  0.1307545E+03  0.7818608E-02  0.1226340E+00
         -4   -1    0    0    0  501 -0.00000000000E+00  0.00000000000E+00  0.50697682595E+03  0.50697841666E+03  0.12700000000E+01 0.  1.
         21   -1    0    0  501  502  0.00000000000E+00 -0.00000000000E+00 -0.17660969139E+02  0.17660969139E+02  0.00000000000E+00 0. -1.
         25    2    1    2    0    0 -0.24777793612E+01  0.38278972703E+02  0.45410368677E+03  0.47255360116E+03  0.12500131395E+03 0.  0.
    9000005    1    3    3    0    0  0.87066730968E+01  0.48571889327E+02  0.45464019229E+03  0.45731142456E+03  0.10000000000E+01 0.  0.
    9000005    1    3    3    0    0 -0.11184452458E+02 -0.10292916623E+02 -0.53650551517E+00  0.15242176602E+02  0.10000000000E+01 0.  0.
         -4    1    1    2    0  502  0.24777793612E+01 -0.38278972703E+02  0.35212170045E+02  0.52085784635E+02  0.12700000000E+01 0. -1.
<mgrwt>
<rscale>  1 0.13075453E+03</rscale>
<asrwt>0</asrwt>
<pdfrwt beam="2">  1       21 0.27170726E-02 0.13075453E+03</pdfrwt>
<pdfrwt beam="1">  1       -4 0.78000058E-01 0.13075453E+03</pdfrwt>
<totfact> 0.45049294E+04</totfact>
</mgrwt>
</event>
<event>
 6    3  0.3813045E-003  0.1310713E+03  0.7818608E-02  0.1225875E+00
         21   -1    0    0  501  502  0.00000000000E+00  0.00000000000E+00  0.58577900339E+02  0.58577900339E+02  0.00000000000E+00 0. -1.
         -4   -1    0    0    0  501 -0.00000000000E+00 -0.00000000000E+00 -0.17369316148E+03  0.17369780437E+03  0.12700000000E+01 0. -1.
         25    2    1    2    0    0  0.28848340068E+02  0.26804434925E+02 -0.13498404945E+03  0.18814990608E+03  0.12501595536E+03 0.  0.
    9000005    1    3    3    0    0  0.36457721461E+02  0.72932209947E+02 -0.10356038209E+03  0.13181056650E+03  0.10000000000E+01 0.  0.
    9000005    1    3    3    0    0 -0.76093813929E+01 -0.46127775022E+02 -0.31423667355E+02  0.56339339574E+02  0.10000000000E+01 0.  0.
         -4    1    1    2    0  502 -0.28848340068E+02 -0.26804434925E+02  0.19868788311E+02  0.44125798636E+02  0.12700000000E+01 0.  1.
<mgrwt>
<rscale>  1 0.13107133E+03</rscale>
<asrwt>0</asrwt>
<pdfrwt beam="1">  1       21 0.90119848E-02 0.13107133E+03</pdfrwt>
<pdfrwt beam="2">  1       -4 0.26723441E-01 0.13107133E+03</pdfrwt>
<totfact> 0.51911488E+04</totfact>
</mgrwt>
</event>
<event>
 6    3  0.3813045E-003  0.1271834E+03  0.7818608E-02  0.1231696E+00
         -4   -1    0    0    0  501 -0.00000000000E+00  0.00000000000E+00  0.56469786578E+02  0.56484065860E+02  0.12700000000E+01 0. -1.
         21   -1    0    0  501  502  0.00000000000E+00 -0.00000000000E+00 -0.10199544409E+03  0.10199544409E+03  0.00000000000E+00 0. -1.
         25    2    1    2    0    0  0.67773619309E+01 -0.22518792444E+02 -0.31345369810E+02  0.13098910968E+03  0.12499034362E+03 0.  0.
    9000005    1    3    3    0    0  0.91679963785E+01  0.44371161231E+02  0.17014261696E+02  0.48408028339E+02  0.10000000000E+01 0.  0.
    9000005    1    3    3    0    0 -0.23906344475E+01 -0.66889953675E+02 -0.48359631507E+02  0.82581081339E+02  0.10000000000E+01 0.  0.
         -4    1    1    2    0  502 -0.67773619309E+01  0.22518792444E+02 -0.14180287704E+02  0.27490400274E+02  0.12700000000E+01 0.  1.
<mgrwt>
<rscale>  1 0.12718339E+03</rscale>
<asrwt>0</asrwt>
<pdfrwt beam="2">  1       21 0.15691607E-01 0.12718339E+03</pdfrwt>
<pdfrwt beam="1">  1       -4 0.86893662E-02 0.12718339E+03</pdfrwt>
<totfact> 0.13853641E+05</totfact>
</mgrwt>
</event>
<event>
 6    3  0.3813045E-003  0.1265984E+03  0.7818608E-02  0.1232592E+00
          4   -1    0    0  502    0 -0.00000000000E+00  0.00000000000E+00  0.12559896239E+03  0.12560538306E+03  0.12700000000E+01 0.  1.
         21   -1    0    0  501  502  0.00000000000E+00 -0.00000000000E+00 -0.52188639822E+02  0.52188639822E+02  0.00000000000E+00 0.  1.
         25    2    1    2    0    0 -0.75666969139E+01 -0.18554871613E+02  0.86945267994E+02  0.15357944442E+03  0.12500251181E+03 0.  0.
    9000005    1    3    3    0    0 -0.46756346630E+02  0.32250682011E+02  0.63638841396E+02  0.85306298563E+02  0.10000000000E+01 0.  0.
    9000005    1    3    3    0    0  0.39189649717E+02 -0.50805553624E+02  0.23306426599E+02  0.68273145854E+02  0.10000000000E+01 0.  0.
          4    1    1    2  501    0  0.75666969139E+01  0.18554871613E+02 -0.13534945423E+02  0.24214578468E+02  0.12700000000E+01 0. -1.
<mgrwt>
<rscale>  1 0.12659844E+03</rscale>
<asrwt>0</asrwt>
<pdfrwt beam="2">  1       21 0.80290216E-02 0.12659844E+03</pdfrwt>
<pdfrwt beam="1">  1        4 0.19324600E-01 0.12659844E+03</pdfrwt>
<totfact> 0.11395331E+05</totfact>
</mgrwt>
</event>
<event>
 6    3  0.3813045E-003  0.1278854E+03  0.7818608E-02  0.1230627E+00
         21   -1    0    0  501  502  0.00000000000E+00  0.00000000000E+00  0.27240056728E+03  0.27240056728E+03  0.00000000000E+00 0. -1.
         -4   -1    0    0    0  501 -0.00000000000E+00 -0.00000000000E+00 -0.22078427462E+02  0.22114923902E+02  0.12700000000E+01 0. -1.
         25    2    1    2    0    0  0.26162918589E+02 -0.67707649411E+01  0.21248044318E+03  0.24799723163E+03  0.12499738636E+03 0.  0.
    9000005    1    3    3    0    0 -0.18333743761E+01  0.21448743219E+02  0.20669465843E+03  0.20781504198E+03  0.10000000000E+01 0.  0.
    9000005    1    3    3    0    0  0.27996292965E+02 -0.28219508161E+02  0.57857847473E+01  0.40182189658E+02  0.10000000000E+01 0.  0.
         -4    1    1    2    0  502 -0.26162918589E+02  0.67707649411E+01  0.37841696643E+02  0.46518259552E+02  0.12700000000E+01 0.  1.
<mgrwt>
<rscale>  1 0.12788545E+03</rscale>
<asrwt>0</asrwt>
<pdfrwt beam="1">  1       21 0.41907777E-01 0.12788545E+03</pdfrwt>
<pdfrwt beam="2">  1       -4 0.33997165E-02 0.12788545E+03</pdfrwt>
<totfact> 0.97663846E+04</totfact>
</mgrwt>
</event>
<event>
 6    3  0.3813045E-003  0.1378541E+03  0.7818608E-02  0.1216246E+00
         -4   -1    0    0    0  501 -0.00000000000E+00  0.00000000000E+00  0.58026022190E+03  0.58026161171E+03  0.12700000000E+01 0.  1.
         21   -1    0    0  501  502  0.00000000000E+00 -0.00000000000E+00 -0.29112899126E+02  0.29112899126E+02  0.00000000000E+00 0.  1.
         25    2    1    2    0    0 -0.55108436731E+02  0.18502149750E+02  0.52978901442E+03  0.54743050725E+03  0.12499796448E+03 0.  0.
    9000005    1    3    3    0    0 -0.44075676730E+02  0.43693600384E+02  0.10665198271E+03  0.12339951949E+03  0.10000000000E+01 0.  0.
    9000005    1    3    3    0    0 -0.11032760001E+02 -0.25191450634E+02  0.42313703171E+03  0.42403098776E+03  0.10000000000E+01 0.  0.
         -4    1    1    2    0  502  0.55108436731E+02 -0.18502149750E+02  0.21358308356E+02  0.61944003585E+02  0.12700000000E+01 0. -1.
<mgrwt>
<rscale>  1 0.13785413E+03</rscale>
<asrwt>0</asrwt>
<pdfrwt beam="2">  1       21 0.44789080E-02 0.13785413E+03</pdfrwt>
<pdfrwt beam="1">  1       -4 0.89273032E-01 0.13785413E+03</pdfrwt>
<totfact> 0.14687210E+04</totfact>
</mgrwt>
</event>
<event>
 6    3  0.3813045E-003  0.1279849E+03  0.7818608E-02  0.1230477E+00
         21   -1    0    0  501  502  0.00000000000E+00  0.00000000000E+00  0.31824998027E+03  0.31824998027E+03  0.00000000000E+00 0.  1.
         -4   -1    0    0    0  501 -0.00000000000E+00 -0.00000000000E+00 -0.19017465771E+02  0.19059824353E+02  0.12700000000E+01 0.  1.
         25    2    1    2    0    0 -0.17280093416E+02 -0.21364346044E+02  0.23964851484E+03  0.27168280694E+03  0.12500040003E+03 0.  0.
    9000005    1    3    3    0    0 -0.43699222045E+02 -0.30117620661E+02  0.31594216744E+02  0.61772871175E+02  0.10000000000E+01 0.  0.
    9000005    1    3    3    0    0  0.26419128629E+02  0.87532746175E+01  0.20805429810E+03  0.20990993576E+03  0.10000000000E+01 0.  0.
         -4    1    1    2    0  502  0.17280093416E+02  0.21364346044E+02  0.59583999659E+02  0.65626997689E+02  0.12700000000E+01 0. -1.
<mgrwt>
<rscale>  1 0.12798491E+03</rscale>
<asrwt>0</asrwt>
<pdfrwt beam="1">  1       21 0.48961532E-01 0.12798491E+03</pdfrwt>
<pdfrwt beam="2">  1       -4 0.29292175E-02 0.12798491E+03</pdfrwt>
<totfact> 0.89917023E+04</totfact>
</mgrwt>
</event>
<event>
 6    3  0.3813045E-003  0.1282939E+03  0.7818608E-02  0.1230009E+00
         -4   -1    0    0    0  501 -0.00000000000E+00  0.00000000000E+00  0.22902153372E+03  0.22902505498E+03  0.12700000000E+01 0.  1.
         21   -1    0    0  501  502  0.00000000000E+00 -0.00000000000E+00 -0.31410444314E+02  0.31410444314E+02  0.00000000000E+00 0.  1.
         25    2    1    2    0    0 -0.25542066137E+02 -0.13501885674E+02  0.19209134311E+03  0.23099439608E+03  0.12499851544E+03 0.  0.
    9000005    1    3    3    0    0  0.47295574508E+01  0.34395573503E+01  0.19598287758E+03  0.19607265891E+03  0.10000000000E+01 0.  0.
    9000005    1    3    3    0    0 -0.30271623588E+02 -0.16941443024E+02 -0.38915344639E+01  0.34921737169E+02  0.10000000000E+01 0.  0.
         -4    1    1    2    0  502  0.25542066137E+02  0.13501885674E+02  0.55197462944E+01  0.29441103214E+02  0.12700000000E+01 0. -1.
<mgrwt>
<rscale>  1 0.12829391E+03</rscale>
<asrwt>0</asrwt>
<pdfrwt beam="2">  1       21 0.48323762E-02 0.12829391E+03</pdfrwt>
<pdfrwt beam="1">  1       -4 0.35236327E-01 0.12829391E+03</pdfrwt>
<totfact> 0.88746175E+04</totfact>
</mgrwt>
</event>
<event>
 6    3  0.3813045E-003  0.1287384E+03  0.7818608E-02  0.1229340E+00
         21   -1    0    0  501  502  0.00000000000E+00  0.00000000000E+00  0.16360761862E+02  0.16360761862E+02  0.00000000000E+00 0.  1.
         -4   -1    0    0    0  501 -0.00000000000E+00 -0.00000000000E+00 -0.11777048366E+04  0.11777055214E+04  0.12700000000E+01 0. -1.
         25    2    1    2    0    0  0.24451075290E+02 -0.19063797035E+02 -0.11553022979E+04  0.11624530042E+04  0.12494920604E+03 0.  0.
    9000005    1    3    3    0    0  0.43420577350E+02 -0.63272914757E+02 -0.56423371737E+03  0.56942909663E+03  0.10000000000E+01 0.  0.
    9000005    1    3    3    0    0 -0.18969502060E+02  0.44209117722E+02 -0.59106858054E+03  0.59302390762E+03  0.10000000000E+01 0.  0.
         -4    1    1    2    0  502 -0.24451075290E+02  0.19063797035E+02 -0.60417768234E+01  0.31613278973E+02  0.12700000000E+01 0.  1.
<mgrwt>
<rscale>  1 0.12873845E+03</rscale>
<asrwt>0</asrwt>
<pdfrwt beam="1">  1       21 0.25170405E-02 0.12873845E+03</pdfrwt>
<pdfrwt beam="2">  1       -4 0.18118919E+00 0.12873845E+03</pdfrwt>
<totfact> 0.66527994E+03</totfact>
</mgrwt>
</event>
<event>
 6    3  0.3813045E-003  0.1778016E+03  0.7818608E-02  0.1169948E+00
         21   -1    0    0  501  502  0.00000000000E+00  0.00000000000E+00  0.47294030937E+03  0.47294030937E+03  0.00000000000E+00 0. -1.
         -4   -1    0    0    0  501 -0.00000000000E+00 -0.00000000000E+00 -0.49184323338E+02  0.49200717090E+02  0.12700000000E+01 0.  1.
         25    2    1    2    0    0 -0.12626802990E+03  0.66831670793E+01  0.22872992325E+03  0.28970811536E+03  0.12500053689E+03 0.  0.
    9000005    1    3    3    0    0 -0.11217042296E+03 -0.47358846829E+02  0.16276083445E+03  0.20326621311E+03  0.10000000000E+01 0.  0.
    9000005    1    3    3    0    0 -0.14097606933E+02  0.54042013909E+02  0.65969088799E+02  0.86441902255E+02  0.10000000000E+01 0.  0.
         -4    1    1    2    0  502  0.12626802990E+03 -0.66831670793E+01  0.19502606278E+03  0.23243291110E+03  0.12700000000E+01 0. -1.
<mgrwt>
<rscale>  1 0.17780162E+03</rscale>
<asrwt>0</asrwt>
<pdfrwt beam="1">  1       21 0.72760044E-01 0.17780162E+03</pdfrwt>
<pdfrwt beam="2">  1       -4 0.75682115E-02 0.17780162E+03</pdfrwt>
<totfact> 0.86381104E+03</totfact>
</mgrwt>
</event>
<event>
 6    3  0.3813045E-003  0.1284577E+03  0.7818608E-02  0.1229762E+00
         21   -1    0    0  501  502  0.00000000000E+00  0.00000000000E+00  0.45315627155E+02  0.45315627155E+02  0.00000000000E+00 0. -1.
         -4   -1    0    0    0  501 -0.00000000000E+00 -0.00000000000E+00 -0.84008783646E+03  0.84008879641E+03  0.12700000000E+01 0.  1.
         25    2    1    2    0    0 -0.27940620590E+02 -0.97559563847E+01 -0.82971229088E+03  0.83959744632E+03  0.12500211699E+03 0.  0.
    9000005    1    3    3    0    0  0.38184317023E+02 -0.39537213773E+02 -0.40917589551E+03  0.41285245161E+03  0.10000000000E+01 0.  0.
    9000005    1    3    3    0    0 -0.66124937613E+02  0.29781257389E+02 -0.42053639538E+03  0.42674499470E+03  0.10000000000E+01 0.  0.
         -4    1    1    2    0  502  0.27940620590E+02  0.97559563847E+01  0.34940081584E+02  0.45806977253E+02  0.12700000000E+01 0. -1.
<mgrwt>
<rscale>  1 0.12845772E+03</rscale>
<asrwt>0</asrwt>
<pdfrwt beam="1">  1       21 0.69716350E-02 0.12845772E+03</pdfrwt>
<pdfrwt beam="2">  1       -4 0.12924572E+00 0.12845772E+03</pdfrwt>
<totfact> 0.29005006E+03</totfact>
</mgrwt>
</event>
<event>
 6    3  0.3813045E-003  0.1273423E+03  0.7818608E-02  0.1231453E+00
          4   -1    0    0  502    0 -0.00000000000E+00  0.00000000000E+00  0.28844465919E+03  0.28844745503E+03  0.12700000000E+01 0. -1.
         21   -1    0    0  501  502  0.00000000000E+00 -0.00000000000E+00 -0.20086027591E+02  0.20086027591E+02  0.00000000000E+00 0. -1.
         25    2    1    2    0    0  0.21698769995E+01  0.24208266791E+02  0.21491752564E+03  0.24981114230E+03  0.12500126176E+03 0.  0.
    9000005    1    3    3    0    0 -0.39959754485E+02  0.31229973592E+01  0.19426949507E+03  0.19836373612E+03  0.10000000000E+01 0.  0.
    9000005    1    3    3    0    0  0.42129631485E+02  0.21085269431E+02  0.20648030562E+02  0.51447406175E+02  0.10000000000E+01 0.  0.
          4    1    1    2  501    0 -0.21698769995E+01 -0.24208266791E+02  0.53441105959E+02  0.58722340326E+02  0.12700000000E+01 0.  1.
<mgrwt>
<rscale>  1 0.12734231E+03</rscale>
<asrwt>0</asrwt>
<pdfrwt beam="2">  1       21 0.30901583E-02 0.12734231E+03</pdfrwt>
<pdfrwt beam="1">  1        4 0.44379402E-01 0.12734231E+03</pdfrwt>
<totfact> 0.11833433E+05</totfact>
</mgrwt>
</event>
<event>
 6    3  0.3813045E-003  0.1349856E+03  0.7818608E-02  0.1220240E+00
         21   -1    0    0  501  502  0.00000000000E+00  0.00000000000E+00  0.62194398607E+02  0.62194398607E+02  0.00000000000E+00 0.  1.
         -4   -1    0    0    0  501 -0.00000000000E+00 -0.00000000000E+00 -0.13904870564E+03  0.13905450529E+03  0.12700000000E+01 0.  1.
         25    2    1    2    0    0 -0.47041393617E+02  0.19577786052E+02 -0.57685610061E+02  0.14679493927E+03  0.12499976866E+03 0.  0.
    9000005    1    3    3    0    0 -0.46736186732E+02  0.12081960457E+02  0.31265803603E+02  0.57522129600E+02  0.10000000000E+01 0.  0.
    9000005    1    3    3    0    0 -0.30520688468E+00  0.74958255949E+01 -0.88951413664E+02  0.89272809665E+02  0.10000000000E+01 0.  0.
         -4    1    1    2    0  502  0.47041393617E+02 -0.19577786052E+02 -0.19168696975E+02  0.54453964629E+02  0.12700000000E+01 0. -1.
<mgrwt>
<rscale>  1 0.13498565E+03</rscale>
<asrwt>0</asrwt>
<pdfrwt beam="1">  1       21 0.95683691E-02 0.13498565E+03</pdfrwt>
<pdfrwt beam="2">  1       -4 0.21393552E-01 0.13498565E+03</pdfrwt>
<totfact> 0.70616720E+04</totfact>
</mgrwt>
</event>
<event>
 6    3  0.3813045E-003  0.1315041E+03  0.7818608E-02  0.1225241E+00
         -4   -1    0    0    0  501 -0.00000000000E+00  0.00000000000E+00  0.62360534783E+03  0.62360664104E+03  0.12700000000E+01 0.  1.
         21   -1    0    0  501  502  0.00000000000E+00 -0.00000000000E+00 -0.15061049226E+02  0.15061049226E+02  0.00000000000E+00 0.  1.
         25    2    1    2    0    0  0.23511595340E+02 -0.33404564609E+02  0.55989031058E+03  0.57512649494E+03  0.12499866099E+03 0.  0.
    9000005    1    3    3    0    0 -0.10546859691E+02 -0.75695309739E+02  0.35723771577E+03  0.36532287327E+03  0.10000000000E+01 0.  0.
    9000005    1    3    3    0    0  0.34058455031E+02  0.42290745130E+02  0.20265259480E+03  0.20980362166E+03  0.10000000000E+01 0.  0.
         -4    1    1    2    0  502 -0.23511595340E+02  0.33404564609E+02  0.48653988030E+02  0.63541195325E+02  0.12700000000E+01 0. -1.
<mgrwt>
<rscale>  1 0.13150409E+03</rscale>
<asrwt>0</asrwt>
<pdfrwt beam="2">  1       21 0.23170850E-02 0.13150409E+03</pdfrwt>
<pdfrwt beam="1">  1       -4 0.95943483E-01 0.13150409E+03</pdfrwt>
<totfact> 0.36733697E+04</totfact>
</mgrwt>
</event>
<event>
 6    3  0.3813045E-003  0.1287709E+03  0.7818608E-02  0.1229291E+00
          4   -1    0    0  502    0 -0.00000000000E+00  0.00000000000E+00  0.20848917244E+02  0.20887562095E+02  0.12700000000E+01 0.  1.
         21   -1    0    0  501  502  0.00000000000E+00 -0.00000000000E+00 -0.30600331497E+03  0.30600331497E+03  0.00000000000E+00 0.  1.
         25    2    1    2    0    0  0.30615589535E+02 -0.45864435161E+01 -0.22587240958E+03  0.26000054290E+03  0.12499434831E+03 0.  0.
    9000005    1    3    3    0    0  0.57063991488E+02 -0.45048267431E+02 -0.89507992133E+02  0.11531836878E+03  0.10000000000E+01 0.  0.
    9000005    1    3    3    0    0 -0.26448401953E+02  0.40461823915E+02 -0.13636441745E+03  0.14468217411E+03  0.10000000000E+01 0.  0.
          4    1    1    2  501    0 -0.30615589535E+02  0.45864435161E+01 -0.59281988145E+02  0.66890334168E+02  0.12700000000E+01 0. -1.
<mgrwt>
<rscale>  1 0.12877087E+03</rscale>
<asrwt>0</asrwt>
<pdfrwt beam="2">  1       21 0.47077434E-01 0.12877087E+03</pdfrwt>
<pdfrwt beam="1">  1        4 0.32107011E-02 0.12877087E+03</pdfrwt>
<totfact> 0.84469465E+04</totfact>
</mgrwt>
</event>
<event>
 6    3  0.3813045E-003  0.1322504E+03  0.7818608E-02  0.1224154E+00
         21   -1    0    0  501  502  0.00000000000E+00  0.00000000000E+00  0.21286486188E+02  0.21286486188E+02  0.00000000000E+00 0. -1.
          4   -1    0    0  502    0 -0.00000000000E+00 -0.00000000000E+00 -0.92763502310E+03  0.92763589246E+03  0.12700000000E+01 0.  1.
         25    2    1    2    0    0  0.43133771311E+02 -0.98450887833E+00 -0.89441478640E+03  0.90413935969E+03  0.12501471963E+03 0.  0.
    9000005    1    3    3    0    0 -0.23582090687E+02 -0.44298017882E+02 -0.26439813497E+03  0.26912042502E+03  0.10000000000E+01 0.  0.
    9000005    1    3    3    0    0  0.66715861998E+02  0.43313509004E+02 -0.63001665143E+03  0.63501893467E+03  0.10000000000E+01 0.  0.
          4    1    1    2  501    0 -0.43133771311E+02  0.98450887833E+00 -0.11933750504E+02  0.44783018951E+02  0.12700000000E+01 0. -1.
<mgrwt>
<rscale>  1 0.13225041E+03</rscale>
<asrwt>0</asrwt>
<pdfrwt beam="1">  1       21 0.32748438E-02 0.13225041E+03</pdfrwt>
<pdfrwt beam="2">  1        4 0.14271607E+00 0.13225041E+03</pdfrwt>
<totfact> 0.80762753E+03</totfact>
</mgrwt>
</event>
<event>
 6    3  0.3813045E-003  0.1280150E+03  0.7818608E-02  0.1230431E+00
          4   -1    0    0  502    0 -0.00000000000E+00  0.00000000000E+00  0.55099387616E+03  0.55099533979E+03  0.12700000000E+01 0.  1.
         21   -1    0    0  501  502  0.00000000000E+00 -0.00000000000E+00 -0.65654092561E+02  0.65654092561E+02  0.00000000000E+00 0. -1.
         25    2    1    2    0    0  0.14828212959E+02 -0.23281210376E+02  0.54023341371E+03  0.55519364187E+03  0.12500379204E+03 0.  0.
    9000005    1    3    3    0    0 -0.10031781259E+02 -0.69226191378E+02  0.22390196500E+03  0.23457619688E+03  0.10000000000E+01 0.  0.
    9000005    1    3    3    0    0  0.24859994218E+02  0.45944981002E+02  0.31633144871E+03  0.32061744499E+03  0.10000000000E+01 0.  0.
          4    1    1    2  501    0 -0.14828212959E+02  0.23281210376E+02 -0.54893630114E+02  0.61455790478E+02  0.12700000000E+01 0. -1.
<mgrwt>
<rscale>  1 0.12801499E+03</rscale>
<asrwt>0</asrwt>
<pdfrwt beam="2">  1       21 0.10100630E-01 0.12801499E+03</pdfrwt>
<pdfrwt beam="1">  1        4 0.84769343E-01 0.12801499E+03</pdfrwt>
<totfact> 0.40834235E+03</totfact>
</mgrwt>
</event>
<event>
 6    3  0.3813045E-003  0.1383226E+03  0.7818608E-02  0.1215604E+00
         -4   -1    0    0    0  501 -0.00000000000E+00  0.00000000000E+00  0.64404546558E+03  0.64404671774E+03  0.12700000000E+01 0. -1.
         21   -1    0    0  501  502  0.00000000000E+00 -0.00000000000E+00 -0.73824639015E+02  0.73824639015E+02  0.00000000000E+00 0.  1.
         25    2    1    2    0    0  0.42704649461E+02  0.41030726359E+02  0.62322090415E+03  0.63838658643E+03  0.12500372302E+03 0.  0.
    9000005    1    3    3    0    0  0.98562395034E+01  0.60839687663E+02  0.13215451893E+03  0.14582328321E+03  0.10000000000E+01 0.  0.
    9000005    1    3    3    0    0  0.32848409958E+02 -0.19808961304E+02  0.49106638522E+03  0.49256330321E+03  0.10000000000E+01 0.  0.
         -4    1    1    2    0  502 -0.42704649461E+02 -0.41030726359E+02 -0.53000077582E+02  0.79484770333E+02  0.12700000000E+01 0.  1.
<mgrwt>
<rscale>  1 0.13832259E+03</rscale>
<asrwt>0</asrwt>
<pdfrwt beam="2">  1       21 0.11357637E-01 0.13832259E+03</pdfrwt>
<pdfrwt beam="1">  1       -4 0.99084851E-01 0.13832259E+03</pdfrwt>
<totfact> 0.23435788E+03</totfact>
</mgrwt>
</event>
<event>
 6    3  0.3813045E-003  0.1277868E+03  0.7818608E-02  0.1230777E+00
         21   -1    0    0  501  502  0.00000000000E+00  0.00000000000E+00  0.12097693109E+04  0.12097693109E+04  0.00000000000E+00 0.  1.
          4   -1    0    0  502    0 -0.00000000000E+00 -0.00000000000E+00 -0.57712062550E+01  0.59092911282E+01  0.12700000000E+01 0. -1.
         25    2    1    2    0    0 -0.19194192520E+02  0.18336375669E+02  0.74250543147E+03  0.75342137927E+03  0.12499927711E+03 0.  0.
    9000005    1    3    3    0    0  0.24181330236E+02 -0.37186636420E+02  0.46490534689E+03  0.46701773439E+03  0.10000000000E+01 0.  0.
    9000005    1    3    3    0    0 -0.43375522755E+02  0.55523012089E+02  0.27760008458E+03  0.28640364489E+03  0.10000000000E+01 0.  0.
          4    1    1    2  501    0  0.19194192520E+02 -0.18336375669E+02  0.46149267315E+03  0.46225722273E+03  0.12700000000E+01 0.  1.
<mgrwt>
<rscale>  1 0.12778677E+03</rscale>
<asrwt>0</asrwt>
<pdfrwt beam="1">  1       21 0.18611816E+00 0.12778677E+03</pdfrwt>
<pdfrwt beam="2">  1        4 0.89855204E-03 0.12778677E+03</pdfrwt>
<totfact> 0.23764689E+04</totfact>
</mgrwt>
</event>
<event>
 6    3  0.3813045E-003  0.1266249E+03  0.7818608E-02  0.1232552E+00
          4   -1    0    0  502    0 -0.00000000000E+00  0.00000000000E+00  0.13073113079E+03  0.13073729941E+03  0.12700000000E+01 0.  1.
         21   -1    0    0  501  502  0.00000000000E+00 -0.00000000000E+00 -0.83515176491E+02  0.83515176491E+02  0.00000000000E+00 0. -1.
         25    2    1    2    0    0  0.19070228051E+02 -0.67108845473E+01  0.97648864044E+02  0.15990359501E+03  0.12500059791E+03 0.  0.
    9000005    1    3    3    0    0  0.38338448286E+02 -0.32541007510E+02 -0.66508730836E+01  0.50734484323E+02  0.10000000000E+01 0.  0.
    9000005    1    3    3    0    0 -0.19268220235E+02  0.25830122962E+02  0.10429973713E+03  0.10916911069E+03  0.10000000000E+01 0.  0.
          4    1    1    2  501    0 -0.19070228051E+02  0.67108845473E+01 -0.50432909744E+02  0.54348880895E+02  0.12700000000E+01 0. -1.
<mgrwt>
<rscale>  1 0.12662488E+03</rscale>
<asrwt>0</asrwt>
<pdfrwt beam="2">  1       21 0.12848489E-01 0.12662488E+03</pdfrwt>
<pdfrwt beam="1">  1        4 0.20113699E-01 0.12662488E+03</pdfrwt>
<totfact> 0.46568656E+04</totfact>
</mgrwt>
</event>
<event>
 6    3  0.3813045E-003  0.1266800E+03  0.7818608E-02  0.1232467E+00
         21   -1    0    0  501  502  0.00000000000E+00  0.00000000000E+00  0.11873871536E+04  0.11873871536E+04  0.00000000000E+00 0.  1.
          4   -1    0    0  502    0 -0.00000000000E+00 -0.00000000000E+00 -0.11477550695E+02  0.11547600182E+02  0.12700000000E+01 0. -1.
         25    2    1    2    0    0 -0.18316382350E+02  0.93277474775E+01  0.34098502350E+03  0.36375623219E+03  0.12500125387E+03 0.  0.
    9000005    1    3    3    0    0 -0.22638623364E+02  0.45628469898E+02  0.31450661699E+03  0.31860614662E+03  0.10000000000E+01 0.  0.
    9000005    1    3    3    0    0  0.43222410140E+01 -0.36300722420E+02  0.26478406509E+02  0.45150085569E+02  0.10000000000E+01 0.  0.
          4    1    1    2  501    0  0.18316382350E+02 -0.93277474775E+01  0.83492457944E+03  0.83517852163E+03  0.12700000000E+01 0.  1.
<mgrwt>
<rscale>  1 0.12667995E+03</rscale>
<asrwt>0</asrwt>
<pdfrwt beam="1">  1       21 0.18267485E+00 0.12667995E+03</pdfrwt>
<pdfrwt beam="2">  1        4 0.17712186E-02 0.12667995E+03</pdfrwt>
<totfact> 0.89540040E+03</totfact>
</mgrwt>
</event>
<event>
 6    3  0.3813045E-003  0.1273269E+03  0.7818608E-02  0.1231477E+00
         -4   -1    0    0    0  501 -0.00000000000E+00  0.00000000000E+00  0.24802748332E+02  0.24835241590E+02  0.12700000000E+01 0.  1.
         21   -1    0    0  501  502  0.00000000000E+00 -0.00000000000E+00 -0.23763123648E+03  0.23763123648E+03  0.00000000000E+00 0.  1.
         25    2    1    2    0    0  0.22496466973E+02 -0.90099508451E+01 -0.19255481685E+03  0.23084520535E+03  0.12499952440E+03 0.  0.
    9000005    1    3    3    0    0 -0.45893593132E+02  0.23055543399E+02 -0.87226295501E+02  0.10122848709E+03  0.10000000000E+01 0.  0.
    9000005    1    3    3    0    0  0.68390060106E+02 -0.32065494244E+02 -0.10532852135E+03  0.12961671826E+03  0.10000000000E+01 0.  0.
         -4    1    1    2    0  502 -0.22496466973E+02  0.90099508451E+01 -0.20273671297E+02  0.31621272719E+02  0.12700000000E+01 0. -1.
<mgrwt>
<rscale>  1 0.12732695E+03</rscale>
<asrwt>0</asrwt>
<pdfrwt beam="2">  1       21 0.36558652E-01 0.12732695E+03</pdfrwt>
<pdfrwt beam="1">  1       -4 0.38185679E-02 0.12732695E+03</pdfrwt>
<totfact> 0.10666786E+05</totfact>
</mgrwt>
</event>
<event>
 6    3  0.3813045E-003  0.1626044E+03  0.7818608E-02  0.1185787E+00
         21   -1    0    0  501  502  0.00000000000E+00  0.00000000000E+00  0.23962626884E+03  0.23962626884E+03  0.00000000000E+00 0.  1.
          4   -1    0    0  502    0 -0.00000000000E+00 -0.00000000000E+00 -0.10601903741E+03  0.10602664379E+03  0.12700000000E+01 0. -1.
         25    2    1    2    0    0 -0.10184952008E+03 -0.21040198870E+02 -0.16059469117E+02  0.16339554279E+03  0.12499672854E+03 0.  0.
    9000005    1    3    3    0    0 -0.55078816854E+02 -0.50979684327E+02 -0.57123410224E+02  0.94322257584E+02  0.10000000000E+01 0.  0.
    9000005    1    3    3    0    0 -0.46770703225E+02  0.29939485457E+02  0.41063941107E+02  0.69073285204E+02  0.10000000000E+01 0.  0.
          4    1    1    2  501    0  0.10184952008E+03  0.21040198870E+02  0.14966670055E+03  0.18225736985E+03  0.12700000000E+01 0.  1.
<mgrwt>
<rscale>  1 0.16260442E+03</rscale>
<asrwt>0</asrwt>
<pdfrwt beam="1">  1       21 0.36865580E-01 0.16260442E+03</pdfrwt>
<pdfrwt beam="2">  1        4 0.16311465E-01 0.16260442E+03</pdfrwt>
<totfact> 0.96077127E+03</totfact>
</mgrwt>
</event>
<event>
 6    3  0.3813045E-003  0.1278047E+03  0.7818608E-02  0.1230750E+00
         21   -1    0    0  501  502  0.00000000000E+00  0.00000000000E+00  0.74875253408E+02  0.74875253408E+02  0.00000000000E+00 0. -1.
          4   -1    0    0  502    0 -0.00000000000E+00 -0.00000000000E+00 -0.16383018344E+03  0.16383510584E+03  0.12700000000E+01 0.  1.
         25    2    1    2    0    0 -0.21522630105E+02  0.15677782567E+02 -0.13475149085E+03  0.18572022474E+03  0.12500008448E+03 0.  0.
    9000005    1    3    3    0    0  0.11024377112E+02 -0.20226402438E+02  0.15540349179E+02  0.27805515620E+02  0.10000000000E+01 0.  0.
    9000005    1    3    3    0    0 -0.32547007217E+02  0.35904185005E+02 -0.15029184002E+03  0.15791470912E+03  0.10000000000E+01 0.  0.
          4    1    1    2  501    0  0.21522630105E+02 -0.15677782567E+02  0.45796560812E+02  0.52990134507E+02  0.12700000000E+01 0. -1.
<mgrwt>
<rscale>  1 0.12780469E+03</rscale>
<asrwt>0</asrwt>
<pdfrwt beam="1">  1       21 0.11519270E-01 0.12780469E+03</pdfrwt>
<pdfrwt beam="2">  1        4 0.25205851E-01 0.12780469E+03</pdfrwt>
<totfact> 0.37512700E+04</totfact>
</mgrwt>
</event>
<event>
 6    3  0.3813045E-003  0.1268677E+03  0.7818608E-02  0.1232179E+00
          4   -1    0    0  502    0 -0.00000000000E+00  0.00000000000E+00  0.18820920048E+04  0.18820924333E+04  0.12700000000E+01 0. -1.
         21   -1    0    0  501  502  0.00000000000E+00 -0.00000000000E+00 -0.38420118743E+01  0.38420118743E+01  0.00000000000E+00 0.  1.
         25    2    1    2    0    0 -0.91295549406E+01  0.19751552919E+02  0.18064364897E+04  0.18108860290E+04  0.12498778439E+03 0.  0.
    9000005    1    3    3    0    0  0.54704570303E+01  0.17717670351E+02  0.17835378464E+04  0.17836345173E+04  0.10000000000E+01 0.  0.
    9000005    1    3    3    0    0 -0.14600011971E+02  0.20338825683E+01  0.22898643330E+02  0.27251511779E+02  0.10000000000E+01 0.  0.
          4    1    1    2  501    0  0.91295549406E+01 -0.19751552919E+02  0.71813503217E+02  0.75048416109E+02  0.12700000000E+01 0.  1.
<mgrwt>
<rscale>  1 0.12686772E+03</rscale>
<asrwt>0</asrwt>
<pdfrwt beam="2">  1       21 0.59108026E-03 0.12686772E+03</pdfrwt>
<pdfrwt beam="1">  1        4 0.28956806E+00 0.12686772E+03</pdfrwt>
<totfact> 0.15081145E+04</totfact>
</mgrwt>
</event>
<event>
 6    3  0.3813045E-003  0.1296732E+03  0.7818608E-02  0.1227941E+00
         -4   -1    0    0    0  501 -0.00000000000E+00  0.00000000000E+00  0.13092687749E+04  0.13092693908E+04  0.12700000000E+01 0. -1.
         21   -1    0    0  501  502  0.00000000000E+00 -0.00000000000E+00 -0.93005930199E+01  0.93005930199E+01  0.00000000000E+00 0.  1.
         25    2    1    2    0    0  0.59309310892E+01 -0.33984421775E+02  0.12559650244E+04  0.12626413898E+04  0.12500007938E+03 0.  0.
    9000005    1    3    3    0    0  0.54087855204E+02 -0.10915963572E+02  0.29020543076E+03  0.29540623958E+03  0.10000000000E+01 0.  0.
    9000005    1    3    3    0    0 -0.48156924115E+02 -0.23068458202E+02  0.96575959362E+03  0.96723515019E+03  0.10000000000E+01 0.  0.
         -4    1    1    2    0  502 -0.59309310892E+01  0.33984421775E+02  0.44003157468E+02  0.55928594065E+02  0.12700000000E+01 0.  1.
<mgrwt>
<rscale>  1 0.12967319E+03</rscale>
<asrwt>0</asrwt>
<pdfrwt beam="2">  1       21 0.14308615E-02 0.12967319E+03</pdfrwt>
<pdfrwt beam="1">  1       -4 0.20143254E+00 0.12967319E+03</pdfrwt>
<totfact> 0.12301236E+04</totfact>
</mgrwt>
</event>
<event>
 6    3  0.3813045E-003  0.1324408E+03  0.7818608E-02  0.1223878E+00
          4   -1    0    0  502    0 -0.00000000000E+00  0.00000000000E+00  0.35349601099E+02  0.35372407295E+02  0.12700000000E+01 0.  1.
         21   -1    0    0  501  502  0.00000000000E+00 -0.00000000000E+00 -0.24493158802E+03  0.24493158802E+03  0.00000000000E+00 0. -1.
         25    2    1    2    0    0  0.27565195797E+02 -0.34001859585E+02 -0.11238439876E+03  0.17369747338E+03  0.12499837079E+03 0.  0.
    9000005    1    3    3    0    0 -0.44412900135E+02  0.10083278458E+02 -0.24037958663E+02  0.51507297148E+02  0.10000000000E+01 0.  0.
    9000005    1    3    3    0    0  0.71978095932E+02 -0.44085138043E+02 -0.88346440100E+02  0.12219017624E+03  0.10000000000E+01 0.  0.
          4    1    1    2  501    0 -0.27565195797E+02  0.34001859585E+02 -0.97197588162E+02  0.10660652193E+03  0.12700000000E+01 0. -1.
<mgrwt>
<rscale>  1 0.13244078E+03</rscale>
<asrwt>0</asrwt>
<pdfrwt beam="2">  1       21 0.37681783E-01 0.13244078E+03</pdfrwt>
<pdfrwt beam="1">  1        4 0.54404078E-02 0.13244078E+03</pdfrwt>
<totfact> 0.57341539E+04</totfact>
</mgrwt>
</event>
<event>
 6    3  0.3813045E-003  0.1297297E+03  0.7818608E-02  0.1227857E+00
         21   -1    0    0  501  502  0.00000000000E+00  0.00000000000E+00  0.70526292948E+01  0.70526292948E+01  0.00000000000E+00 0. -1.
         -4   -1    0    0    0  501 -0.00000000000E+00 -0.00000000000E+00 -0.12292736710E+04  0.12292743271E+04  0.12700000000E+01 0. -1.
         25    2    1    2    0    0  0.34695664083E+02 -0.10753917654E+01 -0.11358254077E+04  0.11432100188E+04  0.12499937929E+03 0.  0.
    9000005    1    3    3    0    0  0.45699003910E+02 -0.16419884785E+02 -0.11107158891E+04  0.11117773149E+04  0.10000000000E+01 0.  0.
    9000005    1    3    3    0    0 -0.11003339827E+02  0.15344493020E+02 -0.25109518544E+02  0.31432703907E+02  0.10000000000E+01 0.  0.
         -4    1    1    2    0  502 -0.34695664083E+02  0.10753917654E+01 -0.86395634055E+02  0.93116937542E+02  0.12700000000E+01 0.  1.
<mgrwt>
<rscale>  1 0.12972968E+03</rscale>
<asrwt>0</asrwt>
<pdfrwt beam="1">  1       21 0.10850199E-02 0.12972968E+03</pdfrwt>
<pdfrwt beam="2">  1       -4 0.18912787E+00 0.12972968E+03</pdfrwt>
<totfact> 0.22797771E+04</totfact>
</mgrwt>
</event>
<event>
 6    3  0.3813045E-003  0.1276092E+03  0.7818608E-02  0.1231047E+00
          4   -1    0    0  502    0 -0.00000000000E+00  0.00000000000E+00  0.80100835431E+02  0.80110902733E+02  0.12700000000E+01 0.  1.
         21   -1    0    0  501  502  0.00000000000E+00 -0.00000000000E+00 -0.10557231261E+03  0.10557231261E+03  0.00000000000E+00 0. -1.
         25    2    1    2    0    0 -0.24924069022E+02  0.62241252970E+01  0.24073084146E+02  0.12986005340E+03  0.12499668450E+03 0.  0.
    9000005    1    3    3    0    0 -0.22715789483E+02  0.18034890720E+02  0.73479798371E+02  0.79003450202E+02  0.10000000000E+01 0.  0.
    9000005    1    3    3    0    0 -0.22082795393E+01 -0.11810765423E+02 -0.49406714225E+02  0.50856603199E+02  0.10000000000E+01 0.  0.
          4    1    1    2  501    0  0.24924069022E+02 -0.62241252970E+01 -0.49544561323E+02  0.55823161940E+02  0.12700000000E+01 0. -1.
<mgrwt>
<rscale>  1 0.12760925E+03</rscale>
<asrwt>0</asrwt>
<pdfrwt beam="2">  1       21 0.16241894E-01 0.12760925E+03</pdfrwt>
<pdfrwt beam="1">  1        4 0.12324567E-01 0.12760925E+03</pdfrwt>
<totfact> 0.72194037E+04</totfact>
</mgrwt>
</event>
<event>
 6    3  0.3813045E-003  0.1275636E+03  0.7818608E-02  0.1231116E+00
         21   -1    0    0  501  502  0.00000000000E+00  0.00000000000E+00  0.48114054512E+03  0.48114054512E+03  0.00000000000E+00 0. -1.
         -4   -1    0    0    0  501 -0.00000000000E+00 -0.00000000000E+00 -0.20088945971E+02  0.20129049908E+02  0.12700000000E+01 0.  1.
         25    2    1    2    0    0 -0.71161949964E+01 -0.24442763524E+02  0.18896560545E+03  0.22799228205E+03  0.12499756683E+03 0.  0.
    9000005    1    3    3    0    0 -0.36236272870E+02  0.24366247030E+01  0.18456485413E+03  0.18810685791E+03  0.10000000000E+01 0.  0.
    9000005    1    3    3    0    0  0.29120077874E+02 -0.26879388227E+02  0.44007513162E+01  0.39885424142E+02  0.10000000000E+01 0.  0.
         -4    1    1    2    0  502  0.71161949964E+01  0.24442763524E+02  0.27208599370E+03  0.27327731297E+03  0.12700000000E+01 0. -1.
<mgrwt>
<rscale>  1 0.12756363E+03</rscale>
<asrwt>0</asrwt>
<pdfrwt beam="1">  1       21 0.74021614E-01 0.12756363E+03</pdfrwt>
<pdfrwt beam="2">  1       -4 0.30938213E-02 0.12756363E+03</pdfrwt>
<totfact> 0.34274718E+04</totfact>
</mgrwt>
</event>
<event>
 6    3  0.3813045E-003  0.1270216E+03  0.7818608E-02  0.1231943E+00
         -4   -1    0    0    0  501 -0.00000000000E+00  0.00000000000E+00  0.21659553255E+03  0.21659925581E+03  0.12700000000E+01 0.  1.
         21   -1    0    0  501  502  0.00000000000E+00 -0.00000000000E+00 -0.10219059392E+03  0.10219059392E+03  0.00000000000E+00 0. -1.
         25    2    1    2    0    0  0.22250157872E+02  0.38128556064E+01  0.19631032763E+03  0.23382095519E+03  0.12499954784E+03 0.  0.
    9000005    1    3    3    0    0 -0.14084440058E+01  0.62629547002E+01 -0.17511575031E+02  0.18677890035E+02  0.10000000000E+01 0.  0.
    9000005    1    3    3    0    0  0.23658601877E+02 -0.24500990938E+01  0.21382190266E+03  0.21514306515E+03  0.10000000000E+01 0.  0.
         -4    1    1    2    0  502 -0.22250157872E+02 -0.38128556064E+01 -0.81905388997E+02  0.84968894543E+02  0.12700000000E+01 0. -1.
<mgrwt>
<rscale>  1 0.12702163E+03</rscale>
<asrwt>0</asrwt>
<pdfrwt beam="2">  1       21 0.15721630E-01 0.12702163E+03</pdfrwt>
<pdfrwt beam="1">  1       -4 0.33323283E-01 0.12702163E+03</pdfrwt>
<totfact> 0.12725895E+04</totfact>
</mgrwt>
</event>
<event>
 6    3  0.3813045E-003  0.1304129E+03  0.7818608E-02  0.1226844E+00
          4   -1    0    0  502    0 -0.00000000000E+00  0.00000000000E+00  0.31094082488E+03  0.31094341845E+03  0.12700000000E+01 0. -1.
         21   -1    0    0  501  502  0.00000000000E+00 -0.00000000000E+00 -0.27850408927E+02  0.27850408927E+02  0.00000000000E+00 0. -1.
         25    2    1    2    0    0  0.24611510236E+02 -0.27886663814E+02  0.26909937444E+03  0.29903512270E+03  0.12499655527E+03 0.  0.
    9000005    1    3    3    0    0  0.37298115761E+02  0.39661026716E+02  0.71853702896E+02  0.90155982050E+02  0.10000000000E+01 0.  0.
    9000005    1    3    3    0    0 -0.12686605524E+02 -0.67547690530E+02  0.19724567155E+03  0.20887914065E+03  0.10000000000E+01 0.  0.
          4    1    1    2  501    0 -0.24611510236E+02  0.27886663814E+02  0.13991041509E+02  0.39758704673E+02  0.12700000000E+01 0.  1.
<mgrwt>
<rscale>  1 0.13041293E+03</rscale>
<asrwt>0</asrwt>
<pdfrwt beam="2">  1       21 0.42846785E-02 0.13041293E+03</pdfrwt>
<pdfrwt beam="1">  1        4 0.47839474E-01 0.13041293E+03</pdfrwt>
<totfact> 0.59478357E+04</totfact>
</mgrwt>
</event>
<event>
 6    3  0.3813045E-003  0.1291602E+03  0.7818608E-02  0.1228707E+00
         -4   -1    0    0    0  501 -0.00000000000E+00  0.00000000000E+00  0.56720598138E+02  0.56734814296E+02  0.12700000000E+01 0. -1.
         21   -1    0    0  501  502  0.00000000000E+00 -0.00000000000E+00 -0.18269471041E+03  0.18269471041E+03  0.00000000000E+00 0. -1.
         25    2    1    2    0    0  0.10105879026E+02  0.30901947967E+02 -0.22685473726E+02  0.13113725845E+03  0.12500116262E+03 0.  0.
    9000005    1    3    3    0    0 -0.32456674349E+02  0.49281758174E+02 -0.49972002879E+02  0.77332583497E+02  0.10000000000E+01 0.  0.
    9000005    1    3    3    0    0  0.42562553375E+02 -0.18379810207E+02  0.27286529154E+02  0.53804674949E+02  0.10000000000E+01 0.  0.
         -4    1    1    2    0  502 -0.10105879026E+02 -0.30901947967E+02 -0.10328863854E+03  0.10829226626E+03  0.12700000000E+01 0.  1.
<mgrwt>
<rscale>  1 0.12916017E+03</rscale>
<asrwt>0</asrwt>
<pdfrwt beam="2">  1       21 0.28106878E-01 0.12916017E+03</pdfrwt>
<pdfrwt beam="1">  1       -4 0.87276790E-02 0.12916017E+03</pdfrwt>
<totfact> 0.46648183E+04</totfact>
</mgrwt>
</event>
<event>
 6    3  0.3813045E-003  0.1273341E+03  0.7818608E-02  0.1231466E+00
          4   -1    0    0  502    0 -0.00000000000E+00  0.00000000000E+00  0.15587431818E+03  0.15587949181E+03  0.12700000000E+01 0.  1.
         21   -1    0    0  501  502  0.00000000000E+00 -0.00000000000E+00 -0.57392974753E+02  0.57392974753E+02  0.00000000000E+00 0.  1.
         25    2    1    2    0    0 -0.46957005765E+01 -0.23777260410E+02  0.12422468698E+03  0.17789252375E+03  0.12500627758E+03 0.  0.
    9000005    1    3    3    0    0  0.30316702331E+02 -0.30211152544E+02  0.13423752788E+03  0.14089900663E+03  0.10000000000E+01 0.  0.
    9000005    1    3    3    0    0 -0.35012402907E+02  0.64338921341E+01 -0.10012840906E+02  0.36993517112E+02  0.10000000000E+01 0.  0.
          4    1    1    2  501    0  0.46957005765E+01  0.23777260410E+02 -0.25743343552E+02  0.35379942817E+02  0.12700000000E+01 0. -1.
<mgrwt>
<rscale>  1 0.12733412E+03</rscale>
<asrwt>0</asrwt>
<pdfrwt beam="2">  1       21 0.88296885E-02 0.12733412E+03</pdfrwt>
<pdfrwt beam="1">  1        4 0.23982143E-01 0.12733412E+03</pdfrwt>
<totfact> 0.65437895E+04</totfact>
</mgrwt>
</event>
<event>
 6    3  0.3813045E-003  0.1268278E+03  0.7818608E-02  0.1232240E+00
          4   -1    0    0  502    0 -0.00000000000E+00  0.00000000000E+00  0.63765003257E+02  0.63777649222E+02  0.12700000000E+01 0. -1.
         21   -1    0    0  501  502  0.00000000000E+00 -0.00000000000E+00 -0.10831892966E+03  0.10831892966E+03  0.00000000000E+00 0. -1.
         25    2    1    2    0    0 -0.15390672989E+02 -0.14961793524E+02 -0.64922363202E+02  0.14247877684E+03  0.12499824209E+03 0.  0.
    9000005    1    3    3    0    0 -0.37704987545E+02 -0.56573292174E+02 -0.66659590594E+02  0.95219244333E+02  0.10000000000E+01 0.  0.
    9000005    1    3    3    0    0  0.22314314556E+02  0.41611498651E+02  0.17372273921E+01  0.47259532510E+02  0.10000000000E+01 0.  0.
          4    1    1    2  501    0  0.15390672989E+02  0.14961793524E+02  0.20368436794E+02  0.29617802044E+02  0.12700000000E+01 0.  1.
<mgrwt>
<rscale>  1 0.12682779E+03</rscale>
<asrwt>0</asrwt>
<pdfrwt beam="2">  1       21 0.16664451E-01 0.12682779E+03</pdfrwt>
<pdfrwt beam="1">  1        4 0.98115460E-02 0.12682779E+03</pdfrwt>
<totfact> 0.10134936E+05</totfact>
</mgrwt>
</event>
<event>
 6    3  0.3813045E-003  0.1755262E+03  0.7818608E-02  0.1172204E+00
         21   -1    0    0  501  502  0.00000000000E+00  0.00000000000E+00  0.34946726391E+02  0.34946726391E+02  0.00000000000E+00 0. -1.
          4   -1    0    0  502    0 -0.00000000000E+00 -0.00000000000E+00 -0.80325847095E+03  0.80325947492E+03  0.12700000000E+01 0.  1.
         25    2    1    2    0    0  0.75350353600E+02  0.97481206545E+02 -0.62514011077E+03  0.64931472178E+03  0.12501675254E+03 0.  0.
    9000005    1    3    3    0    0  0.22920557850E+02 -0.10508516136E+02 -0.19498813083E+02  0.31890195910E+02  0.10000000000E+01 0.  0.
    9000005    1    3    3    0    0  0.52429795750E+02  0.10798972268E+03 -0.60564129768E+03  0.61742452587E+03  0.10000000000E+01 0.  0.
          4    1    1    2  501    0 -0.75350353600E+02 -0.97481206545E+02 -0.14317163379E+03  0.18889147953E+03  0.12700000000E+01 0. -1.
<mgrwt>
<rscale>  1 0.17552621E+03</rscale>
<asrwt>0</asrwt>
<pdfrwt beam="1">  1       21 0.53764199E-02 0.17552621E+03</pdfrwt>
<pdfrwt beam="2">  1        4 0.12358007E+00 0.17552621E+03</pdfrwt>
<totfact> 0.51333336E+03</totfact>
</mgrwt>
</event>
<event>
 6    3  0.3813045E-003  0.1311114E+03  0.7818608E-02  0.1225816E+00
          4   -1    0    0  502    0 -0.00000000000E+00  0.00000000000E+00  0.73870072872E+02  0.73880989207E+02  0.12700000000E+01 0.  1.
         21   -1    0    0  501  502  0.00000000000E+00 -0.00000000000E+00 -0.10753449278E+03  0.10753449278E+03  0.00000000000E+00 0.  1.
         25    2    1    2    0    0  0.14480576615E+02 -0.36812863243E+02 -0.47555845700E+02  0.13946958099E+03  0.12500132624E+03 0.  0.
    9000005    1    3    3    0    0 -0.48306121996E+02 -0.44745027666E+02 -0.36260448618E+02  0.75175920727E+02  0.10000000000E+01 0.  0.
    9000005    1    3    3    0    0  0.62786698611E+02  0.79321644231E+01 -0.11295397082E+02  0.64293660264E+02  0.10000000000E+01 0.  0.
          4    1    1    2  501    0 -0.14480576615E+02  0.36812863243E+02  0.13891425797E+02  0.41945900991E+02  0.12700000000E+01 0. -1.
<mgrwt>
<rscale>  1 0.13111142E+03</rscale>
<asrwt>0</asrwt>
<pdfrwt beam="2">  1       21 0.16543768E-01 0.13111142E+03</pdfrwt>
<pdfrwt beam="1">  1        4 0.11366043E-01 0.13111142E+03</pdfrwt>
<totfact> 0.80454843E+04</totfact>
</mgrwt>
</event>
<event>
 6    3  0.3813045E-003  0.1266418E+03  0.7818608E-02  0.1232526E+00
         21   -1    0    0  501  502  0.00000000000E+00  0.00000000000E+00  0.31331410025E+02  0.31331410025E+02  0.00000000000E+00 0.  1.
          4   -1    0    0  502    0 -0.00000000000E+00 -0.00000000000E+00 -0.17392687117E+03  0.17393150783E+03  0.12700000000E+01 0.  1.
         25    2    1    2    0    0 -0.91788198237E+01 -0.18250666113E+02 -0.12845465849E+03  0.18038496081E+03  0.12498318787E+03 0.  0.
    9000005    1    3    3    0    0  0.54784138052E+01  0.39647981873E+02 -0.14833918888E+01  0.40064646959E+02  0.10000000000E+01 0.  0.
    9000005    1    3    3    0    0 -0.14657233629E+02 -0.57898647986E+02 -0.12697126660E+03  0.14032031385E+03  0.10000000000E+01 0.  0.
          4    1    1    2  501    0  0.91788198237E+01  0.18250666113E+02 -0.14140802651E+02  0.24877957041E+02  0.12700000000E+01 0. -1.
<mgrwt>
<rscale>  1 0.12664176E+03</rscale>
<asrwt>0</asrwt>
<pdfrwt beam="1">  1       21 0.48202169E-02 0.12664176E+03</pdfrwt>
<pdfrwt beam="2">  1        4 0.26760317E-01 0.12664176E+03</pdfrwt>
<totfact> 0.14976860E+05</totfact>
</mgrwt>
</event>
<event>
 6    3  0.3813045E-003  0.1634869E+03  0.7818608E-02  0.1184815E+00
         21   -1    0    0  501  502  0.00000000000E+00  0.00000000000E+00  0.53835782169E+03  0.53835782169E+03  0.00000000000E+00 0.  1.
          4   -1    0    0  502    0 -0.00000000000E+00 -0.00000000000E+00 -0.16903527158E+03  0.16904004241E+03  0.12700000000E+01 0. -1.
         25    2    1    2    0    0 -0.52442550756E+02 -0.91378398665E+02 -0.12257985742E+03  0.20433740619E+03  0.12501088454E+03 0.  0.
    9000005    1    3    3    0    0  0.20091622603E+01 -0.82971158465E+02 -0.16251295852E+02  0.84577505798E+02  0.10000000000E+01 0.  0.
    9000005    1    3    3    0    0 -0.54451713016E+02 -0.84072401993E+01 -0.10632856157E+03  0.11975990040E+03  0.10000000000E+01 0.  0.
          4    1    1    2  501    0  0.52442550756E+02  0.91378398665E+02  0.49190240753E+03  0.50306045791E+03  0.12700000000E+01 0.  1.
<mgrwt>
<rscale>  1 0.16348686E+03</rscale>
<asrwt>0</asrwt>
<pdfrwt beam="1">  1       21 0.82824280E-01 0.16348686E+03</pdfrwt>
<pdfrwt beam="2">  1        4 0.26005909E-01 0.16348686E+03</pdfrwt>
<totfact> 0.74471790E+02</totfact>
</mgrwt>
</event>
<event>
 6    3  0.3813045E-003  0.1266069E+03  0.7818608E-02  0.1232579E+00
         21   -1    0    0  501  502  0.00000000000E+00  0.00000000000E+00  0.75027495370E+02  0.75027495370E+02  0.00000000000E+00 0. -1.
         -4   -1    0    0    0  501 -0.00000000000E+00 -0.00000000000E+00 -0.71921770202E+02  0.71932982205E+02  0.12700000000E+01 0. -1.
         25    2    1    2    0    0  0.20079394902E+02  0.10562359064E+01  0.21614815872E+00  0.12660709237E+03  0.12500004554E+03 0.  0.
    9000005    1    3    3    0    0 -0.14876535058E+02 -0.22923416047E+02  0.52557334003E+02  0.59245823955E+02  0.10000000000E+01 0.  0.
    9000005    1    3    3    0    0  0.34955929960E+02  0.23979651953E+02 -0.52341185845E+02  0.67361268417E+02  0.10000000000E+01 0.  0.
         -4    1    1    2    0  502 -0.20079394902E+02 -0.10562359064E+01  0.28895770093E+01  0.20353385203E+02  0.12700000000E+01 0.  1.
<mgrwt>
<rscale>  1 0.12660691E+03</rscale>
<asrwt>0</asrwt>
<pdfrwt beam="1">  1       21 0.11542692E-01 0.12660691E+03</pdfrwt>
<pdfrwt beam="2">  1       -4 0.11066577E-01 0.12660691E+03</pdfrwt>
<totfact> 0.15962274E+05</totfact>
</mgrwt>
</event>
<event>
 6    3  0.3813045E-003  0.1341431E+03  0.7818608E-02  0.1221435E+00
         21   -1    0    0  501  502  0.00000000000E+00  0.00000000000E+00  0.11167009038E+04  0.11167009038E+04  0.00000000000E+00 0.  1.
         -4   -1    0    0    0  501 -0.00000000000E+00 -0.00000000000E+00 -0.89095968804E+01  0.89996564696E+01  0.12700000000E+01 0.  1.
         25    2    1    2    0    0  0.31512429955E+02 -0.37126949180E+02  0.56405833269E+03  0.57978975825E+03  0.12499166971E+03 0.  0.
    9000005    1    3    3    0    0  0.10010406653E+02  0.15986986306E+02  0.75558612827E+01  0.20344114929E+02  0.10000000000E+01 0.  0.
    9000005    1    3    3    0    0  0.21502023302E+02 -0.53113935486E+02  0.55650247140E+03  0.55944564332E+03  0.10000000000E+01 0.  0.
         -4    1    1    2    0  502 -0.31512429955E+02  0.37126949180E+02  0.54373297426E+03  0.54591080205E+03  0.12700000000E+01 0. -1.
<mgrwt>
<rscale>  1 0.13414306E+03</rscale>
<asrwt>0</asrwt>
<pdfrwt beam="1">  1       21 0.17180003E+00 0.13414306E+03</pdfrwt>
<pdfrwt beam="2">  1       -4 0.13776913E-02 0.13414306E+03</pdfrwt>
<totfact> 0.15587435E+04</totfact>
</mgrwt>
</event>
<event>
 6    3  0.3813045E-003  0.1288308E+03  0.7818608E-02  0.1229201E+00
         -4   -1    0    0    0  501 -0.00000000000E+00  0.00000000000E+00  0.53995683041E+02  0.54010616429E+02  0.12700000000E+01 0.  1.
         21   -1    0    0  501  502  0.00000000000E+00 -0.00000000000E+00 -0.12218466629E+03  0.12218466629E+03  0.00000000000E+00 0.  1.
         25    2    1    2    0    0  0.27570274674E+02  0.14630928887E+02 -0.66326761441E+02  0.14490207426E+03  0.12499275065E+03 0.  0.
    9000005    1    3    3    0    0 -0.15242582093E+02 -0.48846579508E+02 -0.35855342132E+02  0.62489440692E+02  0.10000000000E+01 0.  0.
    9000005    1    3    3    0    0  0.42812856767E+02  0.63477508396E+02 -0.30471419308E+02  0.82412633567E+02  0.10000000000E+01 0.  0.
         -4    1    1    2    0  502 -0.27570274674E+02 -0.14630928887E+02 -0.18622218090E+01  0.31293208461E+02  0.12700000000E+01 0. -1.
<mgrwt>
<rscale>  1 0.12883079E+03</rscale>
<asrwt>0</asrwt>
<pdfrwt beam="2">  1       21 0.18797641E-01 0.12883079E+03</pdfrwt>
<pdfrwt beam="1">  1       -4 0.83086846E-02 0.12883079E+03</pdfrwt>
<totfact> 0.10757799E+05</totfact>
</mgrwt>
</event>
<event>
 6    3  0.3813045E-003  0.1466584E+03  0.7818608E-02  0.1204640E+00
         21   -1    0    0  501  502  0.00000000000E+00  0.00000000000E+00  0.11183834871E+03  0.11183834871E+03  0.00000000000E+00 0. -1.
         -4   -1    0    0    0  501 -0.00000000000E+00 -0.00000000000E+00 -0.12760429424E+03  0.12761061401E+03  0.12700000000E+01 0.  1.
         25    2    1    2    0    0  0.62596674047E+02 -0.44333345499E+02 -0.50670950094E+02  0.15516514834E+03  0.12499955580E+03 0.  0.
    9000005    1    3    3    0    0  0.38453502924E+01  0.26824153452E+02  0.24188476170E+02  0.36337367911E+02  0.10000000000E+01 0.  0.
    9000005    1    3    3    0    0  0.58751323754E+02 -0.71157498952E+02 -0.74859426264E+02  0.11882778042E+03  0.10000000000E+01 0.  0.
         -4    1    1    2    0  502 -0.62596674047E+02  0.44333345499E+02  0.34905004567E+02  0.84283814393E+02  0.12700000000E+01 0. -1.
<mgrwt>
<rscale>  1 0.14665837E+03</rscale>
<asrwt>0</asrwt>
<pdfrwt beam="1">  1       21 0.17205900E-01 0.14665837E+03</pdfrwt>
<pdfrwt beam="2">  1       -4 0.19632471E-01 0.14665837E+03</pdfrwt>
<totfact> 0.29196820E+04</totfact>
</mgrwt>
</event>
<event>
 6    3  0.3813045E-003  0.1650331E+03  0.7818608E-02  0.1183129E+00
          4   -1    0    0  502    0 -0.00000000000E+00  0.00000000000E+00  0.51479376271E+02  0.51495039385E+02  0.12700000000E+01 0. -1.
         21   -1    0    0  501  502  0.00000000000E+00 -0.00000000000E+00 -0.40818002549E+03  0.40818002549E+03  0.00000000000E+00 0.  1.
         25    2    1    2    0    0 -0.14229791634E+02  0.10680877944E+03 -0.13516155203E+03  0.21331803368E+03  0.12500134404E+03 0.  0.
    9000005    1    3    3    0    0  0.10624609867E+02 -0.16351519769E+02 -0.68203092983E+02  0.70943050583E+02  0.10000000000E+01 0.  0.
    9000005    1    3    3    0    0 -0.24854401501E+02  0.12316029921E+03 -0.66958459047E+02  0.14237498310E+03  0.10000000000E+01 0.  0.
          4    1    1    2  501    0  0.14229791634E+02 -0.10680877944E+03 -0.22153909719E+03  0.24635703119E+03  0.12700000000E+01 0.  1.
<mgrwt>
<rscale>  1 0.16503314E+03</rscale>
<asrwt>0</asrwt>
<pdfrwt beam="2">  1       21 0.62796925E-01 0.16503314E+03</pdfrwt>
<pdfrwt beam="1">  1        4 0.79212611E-02 0.16503314E+03</pdfrwt>
<totfact> 0.11005154E+04</totfact>
</mgrwt>
</event>
<event>
 6    3  0.3813045E-003  0.1306794E+03  0.7818608E-02  0.1226451E+00
          4   -1    0    0  502    0 -0.00000000000E+00  0.00000000000E+00  0.20210490665E+02  0.20250353896E+02  0.12700000000E+01 0.  1.
         21   -1    0    0  501  502  0.00000000000E+00 -0.00000000000E+00 -0.78166062645E+03  0.78166062645E+03  0.00000000000E+00 0. -1.
         25    2    1    2    0    0  0.62545797611E+01  0.37583546362E+02 -0.19839115096E+03  0.23756297068E+03  0.12500189412E+03 0.  0.
    9000005    1    3    3    0    0  0.32782877255E+02  0.75350739353E+02 -0.14753853545E+03  0.16888182378E+03  0.10000000000E+01 0.  0.
    9000005    1    3    3    0    0 -0.26528297493E+02 -0.37767192991E+02 -0.50852615512E+02  0.68681146895E+02  0.10000000000E+01 0.  0.
          4    1    1    2  501    0 -0.62545797611E+01 -0.37583546362E+02 -0.56305898482E+03  0.56434800966E+03  0.12700000000E+01 0. -1.
<mgrwt>
<rscale>  1 0.13067944E+03</rscale>
<asrwt>0</asrwt>
<pdfrwt beam="2">  1       21 0.12025546E+00 0.13067944E+03</pdfrwt>
<pdfrwt beam="1">  1        4 0.31124525E-02 0.13067944E+03</pdfrwt>
<totfact> 0.11069367E+04</totfact>
</mgrwt>
</event>
<event>
 6    3  0.3813045E-003  0.1296049E+03  0.7818608E-02  0.1228043E+00
         21   -1    0    0  501  502  0.00000000000E+00  0.00000000000E+00  0.99299924916E+02  0.99299924916E+02  0.00000000000E+00 0. -1.
          4   -1    0    0  502    0 -0.00000000000E+00 -0.00000000000E+00 -0.10009184171E+03  0.10009989849E+03  0.12700000000E+01 0.  1.
         25    2    1    2    0    0  0.10890000011E+02  0.32470089664E+02 -0.50438151307E+02  0.13907354120E+03  0.12499817571E+03 0.  0.
    9000005    1    3    3    0    0 -0.20964642463E+02 -0.42840351616E+02 -0.15672615048E+02  0.50213970392E+02  0.10000000000E+01 0.  0.
    9000005    1    3    3    0    0  0.31854642474E+02  0.75310441280E+02 -0.34765536259E+02  0.88859570809E+02  0.10000000000E+01 0.  0.
          4    1    1    2  501    0 -0.10890000011E+02 -0.32470089664E+02  0.49646234513E+02  0.60326282202E+02  0.12700000000E+01 0. -1.
<mgrwt>
<rscale>  1 0.12960495E+03</rscale>
<asrwt>0</asrwt>
<pdfrwt beam="1">  1       21 0.15276911E-01 0.12960495E+03</pdfrwt>
<pdfrwt beam="2">  1        4 0.15399989E-01 0.12960495E+03</pdfrwt>
<totfact> 0.54969051E+04</totfact>
</mgrwt>
</event>
<event>
 6    3  0.3813045E-003  0.1273249E+03  0.7818608E-02  0.1231480E+00
         21   -1    0    0  501  502  0.00000000000E+00  0.00000000000E+00  0.27888494420E+03  0.27888494420E+03  0.00000000000E+00 0. -1.
         -4   -1    0    0    0  501 -0.00000000000E+00 -0.00000000000E+00 -0.63286338206E+02  0.63299079800E+02  0.12700000000E+01 0.  1.
         25    2    1    2    0    0 -0.18958195379E+02 -0.15046692268E+02  0.21287798897E+01  0.12734269726E+03  0.12500325884E+03 0.  0.
    9000005    1    3    3    0    0 -0.12078040660E+02  0.54754914967E+02 -0.73441420819E+01  0.56558962173E+02  0.10000000000E+01 0.  0.
    9000005    1    3    3    0    0 -0.68801547193E+01 -0.69801607235E+02  0.94729219716E+01  0.70783735083E+02  0.10000000000E+01 0.  0.
         -4    1    1    2    0  502  0.18958195379E+02  0.15046692268E+02  0.21346982610E+03  0.21484132674E+03  0.12700000000E+01 0. -1.
<mgrwt>
<rscale>  1 0.12732490E+03</rscale>
<asrwt>0</asrwt>
<pdfrwt beam="1">  1       21 0.42905375E-01 0.12732490E+03</pdfrwt>
<pdfrwt beam="2">  1       -4 0.97375624E-02 0.12732490E+03</pdfrwt>
<totfact> 0.16902687E+04</totfact>
</mgrwt>
</event>
<event>
 6    3  0.3813045E-003  0.1322796E+03  0.7818608E-02  0.1224112E+00
         -4   -1    0    0    0  501 -0.00000000000E+00  0.00000000000E+00  0.31174957651E+03  0.31175216335E+03  0.12700000000E+01 0.  1.
         21   -1    0    0  501  502  0.00000000000E+00 -0.00000000000E+00 -0.34867234929E+02  0.34867234929E+02  0.00000000000E+00 0.  1.
         25    2    1    2    0    0 -0.42912477237E+02 -0.56485724150E+01  0.27273387684E+03  0.30311986112E+03  0.12499798221E+03 0.  0.
    9000005    1    3    3    0    0 -0.34408055486E+02  0.36783183675E+02  0.24840981987E+03  0.25346667531E+03  0.10000000000E+01 0.  0.
    9000005    1    3    3    0    0 -0.85044217502E+01 -0.42431756090E+02  0.24324056972E+02  0.49653185817E+02  0.10000000000E+01 0.  0.
         -4    1    1    2    0  502  0.42912477237E+02  0.56485724150E+01  0.41484647366E+01  0.43499537154E+02  0.12700000000E+01 0. -1.
<mgrwt>
<rscale>  1 0.13227956E+03</rscale>
<asrwt>0</asrwt>
<pdfrwt beam="2">  1       21 0.53641902E-02 0.13227956E+03</pdfrwt>
<pdfrwt beam="1">  1       -4 0.47963449E-01 0.13227956E+03</pdfrwt>
<totfact> 0.40669315E+04</totfact>
</mgrwt>
</event>
<event>
 6    3  0.3813045E-003  0.1396344E+03  0.7818608E-02  0.1213822E+00
         21   -1    0    0  501  502  0.00000000000E+00  0.00000000000E+00  0.81926861129E+02  0.81926861129E+02  0.00000000000E+00 0. -1.
         -4   -1    0    0    0  501 -0.00000000000E+00 -0.00000000000E+00 -0.30014875833E+03  0.30015144515E+03  0.12700000000E+01 0.  1.
         25    2    1    2    0    0 -0.52220536577E+02 -0.33849452312E+02 -0.26812066505E+03  0.30230193261E+03  0.12499999029E+03 0.  0.
    9000005    1    3    3    0    0 -0.35555745843E+02 -0.76418735420E+02 -0.22151628954E+03  0.23701160461E+03  0.10000000000E+01 0.  0.
    9000005    1    3    3    0    0 -0.16664790734E+02  0.42569283108E+02 -0.46604375505E+02  0.65290328003E+02  0.10000000000E+01 0.  0.
         -4    1    1    2    0  502  0.52220536577E+02  0.33849452312E+02  0.49898767852E+02  0.79776373666E+02  0.12700000000E+01 0. -1.
<mgrwt>
<rscale>  1 0.13963441E+03</rscale>
<asrwt>0</asrwt>
<pdfrwt beam="1">  1       21 0.12604132E-01 0.13963441E+03</pdfrwt>
<pdfrwt beam="2">  1       -4 0.46177696E-01 0.13963441E+03</pdfrwt>
<totfact> 0.10062104E+04</totfact>
</mgrwt>
</event>
<event>
 6    3  0.3813045E-003  0.1376313E+03  0.7818608E-02  0.1216552E+00
          4   -1    0    0  502    0 -0.00000000000E+00  0.00000000000E+00  0.39794660490E+02  0.39814920614E+02  0.12700000000E+01 0.  1.
         21   -1    0    0  501  502  0.00000000000E+00 -0.00000000000E+00 -0.33165054021E+03  0.33165054021E+03  0.00000000000E+00 0. -1.
         25    2    1    2    0    0  0.42289308688E+02  0.39107209246E+02 -0.97282939196E+02  0.16854182610E+03  0.12499846976E+03 0.  0.
    9000005    1    3    3    0    0  0.43229880696E+02 -0.26299704548E+02  0.82960773609E+00  0.50618033282E+02  0.10000000000E+01 0.  0.
    9000005    1    3    3    0    0 -0.94057200890E+00  0.65406913794E+02 -0.98112546932E+02  0.11792379282E+03  0.10000000000E+01 0.  0.
          4    1    1    2  501    0 -0.42289308688E+02 -0.39107209246E+02 -0.19457294053E+03  0.20292363472E+03  0.12700000000E+01 0. -1.
<mgrwt>
<rscale>  1 0.13763131E+03</rscale>
<asrwt>0</asrwt>
<pdfrwt beam="2">  1       21 0.51023161E-01 0.13763131E+03</pdfrwt>
<pdfrwt beam="1">  1        4 0.61240009E-02 0.13763131E+03</pdfrwt>
<totfact> 0.25699332E+04</totfact>
</mgrwt>
</event>
<event>
 6    3  0.3813045E-003  0.1268276E+03  0.7818608E-02  0.1232240E+00
         -4   -1    0    0    0  501 -0.00000000000E+00  0.00000000000E+00  0.24165358877E+03  0.24165692596E+03  0.12700000000E+01 0. -1.
         21   -1    0    0  501  502  0.00000000000E+00 -0.00000000000E+00 -0.23958618894E+02  0.23958618894E+02  0.00000000000E+00 0. -1.
         25    2    1    2    0    0  0.79132737532E+01  0.19942987188E+02  0.20373806986E+03  0.23998839914E+03  0.12499955188E+03 0.  0.
    9000005    1    3    3    0    0 -0.29367641490E+02 -0.34813417780E+02  0.14310069244E+03  0.15017736381E+03  0.10000000000E+01 0.  0.
    9000005    1    3    3    0    0  0.37280915243E+02  0.54756404968E+02  0.60637377423E+02  0.89811035330E+02  0.10000000000E+01 0.  0.
         -4    1    1    2    0  502 -0.79132737532E+01 -0.19942987188E+02  0.13956900009E+02  0.25627145712E+02  0.12700000000E+01 0.  1.
<mgrwt>
<rscale>  1 0.12682756E+03</rscale>
<asrwt>0</asrwt>
<pdfrwt beam="2">  1       21 0.36859415E-02 0.12682756E+03</pdfrwt>
<pdfrwt beam="1">  1       -4 0.37180319E-01 0.12682756E+03</pdfrwt>
<totfact> 0.12533494E+05</totfact>
</mgrwt>
</event>
<event>
 6    3  0.3813045E-003  0.1879515E+03  0.7818608E-02  0.1160322E+00
         -4   -1    0    0    0  501 -0.00000000000E+00  0.00000000000E+00  0.20018643076E+03  0.20019045922E+03  0.12700000000E+01 0. -1.
         21   -1    0    0  501  502  0.00000000000E+00 -0.00000000000E+00 -0.15342909196E+03  0.15342909196E+03  0.00000000000E+00 0.  1.
         25    2    1    2    0    0  0.14035237182E+03  0.93809500817E+00  0.87704703177E+02  0.20740748654E+03  0.12500432880E+03 0.  0.
    9000005    1    3    3    0    0  0.13128952773E+03  0.38929534987E+02  0.96287164530E+02  0.16740569536E+03  0.10000000000E+01 0.  0.
    9000005    1    3    3    0    0  0.90628440818E+01 -0.37991439979E+02 -0.85824613537E+01  0.40001791178E+02  0.10000000000E+01 0.  0.
         -4    1    1    2    0  502 -0.14035237182E+03 -0.93809500817E+00 -0.40947364376E+02  0.14621206464E+03  0.12700000000E+01 0.  1.
<mgrwt>
<rscale>  1 0.18795146E+03</rscale>
<asrwt>0</asrwt>
<pdfrwt beam="2">  1       21 0.23604476E-01 0.18795146E+03</pdfrwt>
<pdfrwt beam="1">  1       -4 0.30798627E-01 0.18795146E+03</pdfrwt>
<totfact> 0.71754590E+03</totfact>
</mgrwt>
</event>
<event>
 6    3  0.3813045E-003  0.1319561E+03  0.7818608E-02  0.1224582E+00
         21   -1    0    0  501  502  0.00000000000E+00  0.00000000000E+00  0.31121297503E+02  0.31121297503E+02  0.00000000000E+00 0.  1.
          4   -1    0    0  502    0 -0.00000000000E+00 -0.00000000000E+00 -0.25208920139E+03  0.25209240043E+03  0.12700000000E+01 0. -1.
         25    2    1    2    0    0 -0.16059230368E+02 -0.39102533810E+02 -0.14345740469E+03  0.19491648724E+03  0.12500201202E+03 0.  0.
    9000005    1    3    3    0    0 -0.61250059346E+02 -0.56473956691E+02 -0.85324567362E+02  0.11925669520E+03  0.10000000000E+01 0.  0.
    9000005    1    3    3    0    0  0.45190828978E+02  0.17371422882E+02 -0.58132837326E+02  0.75659792044E+02  0.10000000000E+01 0.  0.
          4    1    1    2  501    0  0.16059230368E+02  0.39102533810E+02 -0.77510499196E+02  0.88297210692E+02  0.12700000000E+01 0.  1.
<mgrwt>
<rscale>  1 0.13195609E+03</rscale>
<asrwt>0</asrwt>
<pdfrwt beam="1">  1       21 0.47878919E-02 0.13195609E+03</pdfrwt>
<pdfrwt beam="2">  1        4 0.38785194E-01 0.13195609E+03</pdfrwt>
<totfact> 0.75101205E+04</totfact>
</mgrwt>
</event>
<event>
 6    3  0.3813045E-003  0.1269001E+03  0.7818608E-02  0.1232129E+00
         -4   -1    0    0    0  501 -0.00000000000E+00  0.00000000000E+00  0.22400520237E+02  0.22436492750E+02  0.12700000000E+01 0. -1.
         21   -1    0    0  501  502  0.00000000000E+00 -0.00000000000E+00 -0.26355229946E+03  0.26355229946E+03  0.00000000000E+00 0. -1.
         25    2    1    2    0    0  0.19822564530E+02 -0.92577181906E+01 -0.22650282230E+03  0.25962889370E+03  0.12499997809E+03 0.  0.
    9000005    1    3    3    0    0  0.54059016289E+02  0.80114726425E+01 -0.36341381656E+02  0.65637313753E+02  0.10000000000E+01 0.  0.
    9000005    1    3    3    0    0 -0.34236451760E+02 -0.17269190833E+02 -0.19016144065E+03  0.19399157995E+03  0.10000000000E+01 0.  0.
         -4    1    1    2    0  502 -0.19822564530E+02  0.92577181906E+01 -0.14648956919E+02  0.26359898510E+02  0.12700000000E+01 0.  1.
<mgrwt>
<rscale>  1 0.12690009E+03</rscale>
<asrwt>0</asrwt>
<pdfrwt beam="2">  1       21 0.40546506E-01 0.12690009E+03</pdfrwt>
<pdfrwt beam="1">  1       -4 0.34492365E-02 0.12690009E+03</pdfrwt>
<totfact> 0.10190545E+05</totfact>
</mgrwt>
</event>
<event>
 6    3  0.3813045E-003  0.1381013E+03  0.7818608E-02  0.1215907E+00
         21   -1    0    0  501  502  0.00000000000E+00  0.00000000000E+00  0.56519974869E+02  0.56519974869E+02  0.00000000000E+00 0. -1.
          4   -1    0    0  502    0 -0.00000000000E+00 -0.00000000000E+00 -0.27726555024E+03  0.27726845881E+03  0.12700000000E+01 0.  1.
         25    2    1    2    0    0 -0.56875799342E+02 -0.14567865420E+02 -0.23570923063E+03  0.27318642766E+03  0.12499961440E+03 0.  0.
    9000005    1    3    3    0    0 -0.48886196170E+02 -0.67123231033E+02 -0.12102440465E+03  0.14677634292E+03  0.10000000000E+01 0.  0.
    9000005    1    3    3    0    0 -0.79896031725E+01  0.52555365613E+02 -0.11468482598E+03  0.12641008474E+03  0.10000000000E+01 0.  0.
          4    1    1    2  501    0  0.56875799342E+02  0.14567865420E+02  0.14963655266E+02  0.60602006011E+02  0.12700000000E+01 0. -1.
<mgrwt>
<rscale>  1 0.13810135E+03</rscale>
<asrwt>0</asrwt>
<pdfrwt beam="1">  1       21 0.86953807E-02 0.13810135E+03</pdfrwt>
<pdfrwt beam="2">  1        4 0.42657560E-01 0.13810135E+03</pdfrwt>
<totfact> 0.22625408E+04</totfact>
</mgrwt>
</event>
<event>
 6    3  0.3813045E-003  0.1404861E+03  0.7818608E-02  0.1212676E+00
         21   -1    0    0  501  502  0.00000000000E+00  0.00000000000E+00  0.79423865544E+02  0.79423865544E+02  0.00000000000E+00 0. -1.
          4   -1    0    0  502    0 -0.00000000000E+00 -0.00000000000E+00 -0.14330599059E+03  0.14331161795E+03  0.12700000000E+01 0.  1.
         25    2    1    2    0    0 -0.17896919703E+02 -0.61568601010E+02 -0.72396726833E+02  0.15804310598E+03  0.12500137970E+03 0.  0.
    9000005    1    3    3    0    0 -0.22509467111E+02  0.21243157315E+02  0.17627257040E+02  0.35632401450E+02  0.10000000000E+01 0.  0.
    9000005    1    3    3    0    0  0.46125474081E+01 -0.82811758325E+02 -0.90023983873E+02  0.12241070453E+03  0.10000000000E+01 0.  0.
          4    1    1    2  501    0  0.17896919703E+02  0.61568601010E+02  0.85146017849E+01  0.64692377517E+02  0.12700000000E+01 0. -1.
<mgrwt>
<rscale>  1 0.14048608E+03</rscale>
<asrwt>0</asrwt>
<pdfrwt beam="1">  1       21 0.12219056E-01 0.14048608E+03</pdfrwt>
<pdfrwt beam="2">  1        4 0.22048289E-01 0.14048608E+03</pdfrwt>
<totfact> 0.43664569E+04</totfact>
</mgrwt>
</event>
<event>
 6    3  0.3813045E-003  0.1268395E+03  0.7818608E-02  0.1232222E+00
          4   -1    0    0  502    0 -0.00000000000E+00  0.00000000000E+00  0.42763198481E+03  0.42763387066E+03  0.12700000000E+01 0. -1.
         21   -1    0    0  501  502  0.00000000000E+00 -0.00000000000E+00 -0.51184667188E+02  0.51184667188E+02  0.00000000000E+00 0.  1.
         25    2    1    2    0    0  0.18040603638E+02  0.11811375911E+02  0.41536957200E+03  0.43430419446E+03  0.12499311982E+03 0.  0.
    9000005    1    3    3    0    0  0.44508329018E+02 -0.25520734132E+02  0.35423361972E+03  0.35793121764E+03  0.10000000000E+01 0.  0.
    9000005    1    3    3    0    0 -0.26467725380E+02  0.37332110043E+02  0.61135952280E+02  0.76372976819E+02  0.10000000000E+01 0.  0.
          4    1    1    2  501    0 -0.18040603638E+02 -0.11811375911E+02 -0.38922254381E+02  0.44514343381E+02  0.12700000000E+01 0.  1.
<mgrwt>
<rscale>  1 0.12683947E+03</rscale>
<asrwt>0</asrwt>
<pdfrwt beam="2">  1       21 0.78745644E-02 0.12683947E+03</pdfrwt>
<pdfrwt beam="1">  1        4 0.65790891E-01 0.12683947E+03</pdfrwt>
<totfact> 0.10922912E+04</totfact>
</mgrwt>
</event>
<event>
 6    3  0.3813045E-003  0.1383702E+03  0.7818608E-02  0.1215539E+00
          4   -1    0    0  502    0 -0.00000000000E+00  0.00000000000E+00  0.13365378219E+04  0.13365384253E+04  0.12700000000E+01 0.  1.
         21   -1    0    0  501  502  0.00000000000E+00 -0.00000000000E+00 -0.93943335621E+01  0.93943335621E+01  0.00000000000E+00 0. -1.
         25    2    1    2    0    0  0.79874153152E+01  0.58789586636E+02  0.11665112718E+04  0.11746892592E+04  0.12500517593E+03 0.  0.
    9000005    1    3    3    0    0 -0.25740479960E+02 -0.75869964869E+01  0.60712086693E+02  0.66385934466E+02  0.10000000000E+01 0.  0.
    9000005    1    3    3    0    0  0.33727895275E+02  0.66376583123E+02  0.11057991852E+04  0.11083033247E+04  0.10000000000E+01 0.  0.
          4    1    1    2  501    0 -0.79874153152E+01 -0.58789586636E+02  0.16063221646E+03  0.17124349963E+03  0.12700000000E+01 0. -1.
<mgrwt>
<rscale>  1 0.13837019E+03</rscale>
<asrwt>0</asrwt>
<pdfrwt beam="2">  1       21 0.14452832E-02 0.13837019E+03</pdfrwt>
<pdfrwt beam="1">  1        4 0.20562770E+00 0.13837019E+03</pdfrwt>
<totfact> 0.11467393E+04</totfact>
</mgrwt>
</event>
<event>
 6    3  0.3813045E-003  0.1339980E+03  0.7818608E-02  0.1221641E+00
         21   -1    0    0  501  502  0.00000000000E+00  0.00000000000E+00  0.34704917136E+02  0.34704917136E+02  0.00000000000E+00 0. -1.
         -4   -1    0    0    0  501 -0.00000000000E+00 -0.00000000000E+00 -0.24796669416E+03  0.24796994639E+03  0.12700000000E+01 0. -1.
         25    2    1    2    0    0 -0.48201166708E+02 -0.26368625503E+01 -0.17838647784E+03  0.22310805306E+03  0.12500064939E+03 0.  0.
    9000005    1    3    3    0    0 -0.18631210678E+01  0.31606326068E+02 -0.15927602423E+03  0.16239545241E+03  0.10000000000E+01 0.  0.
    9000005    1    3    3    0    0 -0.46338045640E+02 -0.34243188619E+02 -0.19110453607E+02  0.60712600649E+02  0.10000000000E+01 0.  0.
         -4    1    1    2    0  502  0.48201166708E+02  0.26368625503E+01 -0.34875299181E+02  0.59566810466E+02  0.12700000000E+01 0.  1.
<mgrwt>
<rscale>  1 0.13399801E+03</rscale>
<asrwt>0</asrwt>
<pdfrwt beam="1">  1       21 0.53392181E-02 0.13399801E+03</pdfrwt>
<pdfrwt beam="2">  1       -4 0.38150759E-01 0.13399801E+03</pdfrwt>
<totfact> 0.64705031E+04</totfact>
</mgrwt>
</event>
<event>
 6    3  0.3813045E-003  0.1266413E+03  0.7818608E-02  0.1232526E+00
         -4   -1    0    0    0  501 -0.00000000000E+00  0.00000000000E+00  0.13290855228E+02  0.13351394410E+02  0.12700000000E+01 0.  1.
         21   -1    0    0  501  502  0.00000000000E+00 -0.00000000000E+00 -0.64873789278E+03  0.64873789278E+03  0.00000000000E+00 0.  1.
         25    2    1    2    0    0  0.18197097093E+02 -0.90506864348E+01 -0.29500635547E+03  0.32104014091E+03  0.12499989214E+03 0.  0.
    9000005    1    3    3    0    0  0.10393181501E+02  0.35457262115E+02 -0.26317545762E+03  0.26575845641E+03  0.10000000000E+01 0.  0.
    9000005    1    3    3    0    0  0.78039155924E+01 -0.44507948549E+02 -0.31830897851E+02  0.55281684496E+02  0.10000000000E+01 0.  0.
         -4    1    1    2    0  502 -0.18197097093E+02  0.90506864348E+01 -0.34044068208E+03  0.34104914629E+03  0.12700000000E+01 0. -1.
<mgrwt>
<rscale>  1 0.12664131E+03</rscale>
<asrwt>0</asrwt>
<pdfrwt beam="2">  1       21 0.99805823E-01 0.12664131E+03</pdfrwt>
<pdfrwt beam="1">  1       -4 0.20494996E-02 0.12664131E+03</pdfrwt>
<totfact> 0.32982647E+04</totfact>
</mgrwt>
</event>
<event>
 6    3  0.3813045E-003  0.1379731E+03  0.7818608E-02  0.1216083E+00
         21   -1    0    0  501  502  0.00000000000E+00  0.00000000000E+00  0.14651743224E+04  0.14651743224E+04  0.00000000000E+00 0.  1.
          4   -1    0    0  502    0 -0.00000000000E+00 -0.00000000000E+00 -0.28765406787E+02  0.28793428549E+02  0.12700000000E+01 0. -1.
         25    2    1    2    0    0  0.45358089545E+02  0.36789541050E+02  0.14111622406E+03  0.19735848201E+03  0.12500302040E+03 0.  0.
    9000005    1    3    3    0    0 -0.96747101317E+01  0.13171626878E+02 -0.19778820612E+02  0.25676711541E+02  0.10000000000E+01 0.  0.
    9000005    1    3    3    0    0  0.55032799677E+02  0.23617914172E+02  0.16089504467E+03  0.17168177047E+03  0.10000000000E+01 0.  0.
          4    1    1    2  501    0 -0.45358089545E+02 -0.36789541050E+02  0.12952926915E+04  0.12966092689E+04  0.12700000000E+01 0.  1.
<mgrwt>
<rscale>  1 0.13797312E+03</rscale>
<asrwt>0</asrwt>
<pdfrwt beam="1">  1       21 0.22541138E+00 0.13797312E+03</pdfrwt>
<pdfrwt beam="2">  1        4 0.44276462E-02 0.13797312E+03</pdfrwt>
<totfact> 0.11573347E+03</totfact>
</mgrwt>
</event>
<event>
 6    3  0.3813045E-003  0.1468600E+03  0.7818608E-02  0.1204385E+00
         21   -1    0    0  501  502  0.00000000000E+00  0.00000000000E+00  0.29768416835E+02  0.29768416835E+02  0.00000000000E+00 0.  1.
          4   -1    0    0  502    0 -0.00000000000E+00 -0.00000000000E+00 -0.12654337372E+04  0.12654343745E+04  0.12700000000E+01 0. -1.
         25    2    1    2    0    0 -0.64738119367E+02 -0.41856719411E+02 -0.12022251832E+04  0.12111619398E+04  0.12499937649E+03 0.  0.
    9000005    1    3    3    0    0 -0.36928400680E+01 -0.67028658876E+02 -0.34994538124E+03  0.35632744496E+03  0.10000000000E+01 0.  0.
    9000005    1    3    3    0    0 -0.61045279299E+02  0.25171939465E+02 -0.85227980199E+03  0.85483449482E+03  0.10000000000E+01 0.  0.
          4    1    1    2  501    0  0.64738119367E+02  0.41856719411E+02 -0.33440137158E+02  0.84040851567E+02  0.12700000000E+01 0.  1.
<mgrwt>
<rscale>  1 0.14685998E+03</rscale>
<asrwt>0</asrwt>
<pdfrwt beam="1">  1       21 0.45797564E-02 0.14685998E+03</pdfrwt>
<pdfrwt beam="2">  1        4 0.19468425E+00 0.14685998E+03</pdfrwt>
<totfact> 0.20429977E+03</totfact>
</mgrwt>
</event>
<event>
 6    3  0.3813045E-003  0.1347655E+03  0.7818608E-02  0.1220551E+00
         21   -1    0    0  501  502  0.00000000000E+00  0.00000000000E+00  0.45755915063E+03  0.45755915063E+03  0.00000000000E+00 0. -1.
          4   -1    0    0  502    0 -0.00000000000E+00 -0.00000000000E+00 -0.29754880633E+02  0.29781971417E+02  0.12700000000E+01 0.  1.
         25    2    1    2    0    0 -0.50186661828E+02  0.41889720368E+01  0.13688304322E+03  0.19209034456E+03  0.12500193776E+03 0.  0.
    9000005    1    3    3    0    0  0.37168034922E+01  0.40027905451E+01  0.13805295066E+03  0.13816459079E+03  0.10000000000E+01 0.  0.
    9000005    1    3    3    0    0 -0.53903465320E+02  0.18618149178E+00 -0.11699074482E+01  0.53925753778E+02  0.10000000000E+01 0.  0.
          4    1    1    2  501    0  0.50186661828E+02 -0.41889720368E+01  0.29092122679E+03  0.29525077749E+03  0.12700000000E+01 0. -1.
<mgrwt>
<rscale>  1 0.13476547E+03</rscale>
<asrwt>0</asrwt>
<pdfrwt beam="1">  1       21 0.70393710E-01 0.13476547E+03</pdfrwt>
<pdfrwt beam="2">  1        4 0.45798938E-02 0.13476547E+03</pdfrwt>
<totfact> 0.20672030E+04</totfact>
</mgrwt>
</event>
<event>
 6    3  0.3813045E-003  0.1305063E+03  0.7818608E-02  0.1226706E+00
         -4   -1    0    0    0  501 -0.00000000000E+00  0.00000000000E+00  0.31803730956E+02  0.31829077944E+02  0.12700000000E+01 0.  1.
         21   -1    0    0  501  502  0.00000000000E+00 -0.00000000000E+00 -0.66115440270E+03  0.66115440270E+03  0.00000000000E+00 0. -1.
         25    2    1    2    0    0  0.10186796783E+02 -0.36134775304E+02 -0.10557627922E+03  0.16786376098E+03  0.12498959437E+03 0.  0.
    9000005    1    3    3    0    0  0.62577540682E+02 -0.19726529000E+02 -0.88865698197E+02  0.11046808073E+03  0.10000000000E+01 0.  0.
    9000005    1    3    3    0    0 -0.52390743900E+02 -0.16408246304E+02 -0.16710581021E+02  0.57395680248E+02  0.10000000000E+01 0.  0.
         -4    1    1    2    0  502 -0.10186796783E+02  0.36134775304E+02 -0.52377439253E+03  0.52511971967E+03  0.12700000000E+01 0. -1.
<mgrwt>
<rscale>  1 0.13050629E+03</rscale>
<asrwt>0</asrwt>
<pdfrwt beam="2">  1       21 0.10171606E+00 0.13050629E+03</pdfrwt>
<pdfrwt beam="1">  1       -4 0.48949256E-02 0.13050629E+03</pdfrwt>
<totfact> 0.80607973E+03</totfact>
</mgrwt>
</event>
<event>
 6    3  0.3813045E-003  0.1271520E+03  0.7818608E-02  0.1231744E+00
          4   -1    0    0  502    0 -0.00000000000E+00  0.00000000000E+00  0.20411138620E+01  0.24039645999E+01  0.12700000000E+01 0. -1.
         21   -1    0    0  501  502  0.00000000000E+00 -0.00000000000E+00 -0.26491470947E+04  0.26491470947E+04  0.00000000000E+00 0. -1.
         25    2    1    2    0    0 -0.19921114173E+02 -0.12148865088E+02 -0.23919699487E+04  0.23953471297E+04  0.12499276334E+03 0.  0.
    9000005    1    3    3    0    0 -0.56450660256E+02  0.24786017073E+02 -0.18136527004E+04  0.18147005652E+04  0.10000000000E+01 0.  0.
    9000005    1    3    3    0    0  0.36529546083E+02 -0.36934882161E+02 -0.57831724827E+03  0.58064656454E+03  0.10000000000E+01 0.  0.
          4    1    1    2  501    0  0.19921114173E+02  0.12148865088E+02 -0.25513603219E+03  0.25620392959E+03  0.12700000000E+01 0.  1.
<mgrwt>
<rscale>  1 0.12715202E+03</rscale>
<asrwt>0</asrwt>
<pdfrwt beam="2">  1       21 0.40755962E+00 0.12715202E+03</pdfrwt>
<pdfrwt beam="1">  1        4 0.34195377E-03 0.12715202E+03</pdfrwt>
<totfact> 0.50324816E+03</totfact>
</mgrwt>
</event>
<event>
 6    3  0.3813045E-003  0.1275691E+03  0.7818608E-02  0.1231108E+00
          4   -1    0    0  502    0 -0.00000000000E+00  0.00000000000E+00  0.46964339280E+02  0.46981507681E+02  0.12700000000E+01 0. -1.
         21   -1    0    0  501  502  0.00000000000E+00 -0.00000000000E+00 -0.19064797910E+03  0.19064797910E+03  0.00000000000E+00 0.  1.
         25    2    1    2    0    0  0.25421230724E+02  0.17377088633E+01 -0.44328901531E+02  0.13505153825E+03  0.12499843147E+03 0.  0.
    9000005    1    3    3    0    0 -0.87199636366E+01  0.44753736680E+02 -0.62344872796E+02  0.77245180281E+02  0.10000000000E+01 0.  0.
    9000005    1    3    3    0    0  0.34141194360E+02 -0.43016027817E+02  0.18015971265E+02  0.57806357973E+02  0.10000000000E+01 0.  0.
          4    1    1    2  501    0 -0.25421230724E+02 -0.17377088633E+01 -0.99354738288E+02  0.10257794853E+03  0.12700000000E+01 0.  1.
<mgrwt>
<rscale>  1 0.12756907E+03</rscale>
<asrwt>0</asrwt>
<pdfrwt beam="2">  1       21 0.29330458E-01 0.12756907E+03</pdfrwt>
<pdfrwt beam="1">  1        4 0.72269292E-02 0.12756907E+03</pdfrwt>
<totfact> 0.58641637E+04</totfact>
</mgrwt>
</event>
<event>
 6    3  0.3813045E-003  0.1274406E+03  0.7818608E-02  0.1231304E+00
         21   -1    0    0  501  502  0.00000000000E+00  0.00000000000E+00  0.65593491988E+01  0.65593491988E+01  0.00000000000E+00 0. -1.
         -4   -1    0    0    0  501 -0.00000000000E+00 -0.00000000000E+00 -0.10857376429E+04  0.10857383857E+04  0.12700000000E+01 0. -1.
         25    2    1    2    0    0  0.21179019255E+02 -0.12947032027E+02 -0.64853691535E+03  0.66093966303E+03  0.12499972436E+03 0.  0.
    9000005    1    3    3    0    0  0.13700076362E+02  0.38654958676E+02 -0.78964842060E+02  0.88985078548E+02  0.10000000000E+01 0.  0.
    9000005    1    3    3    0    0  0.74789428930E+01 -0.51601990703E+02 -0.56957207329E+03  0.57195458448E+03  0.10000000000E+01 0.  0.
         -4    1    1    2    0  502 -0.21179019255E+02  0.12947032027E+02 -0.43064137836E+03  0.43135807185E+03  0.12700000000E+01 0.  1.
<mgrwt>
<rscale>  1 0.12744060E+03</rscale>
<asrwt>0</asrwt>
<pdfrwt beam="1">  1       21 0.10091306E-02 0.12744060E+03</pdfrwt>
<pdfrwt beam="2">  1       -4 0.16704609E+00 0.12744060E+03</pdfrwt>
<totfact> 0.35689153E+04</totfact>
</mgrwt>
</event>
<event>
 6    3  0.3813045E-003  0.1279614E+03  0.7818608E-02  0.1230512E+00
          4   -1    0    0  502    0 -0.00000000000E+00  0.00000000000E+00  0.39926517492E+03  0.39926719475E+03  0.12700000000E+01 0. -1.
         21   -1    0    0  501  502  0.00000000000E+00 -0.00000000000E+00 -0.26025996633E+02  0.26025996633E+02  0.00000000000E+00 0.  1.
         25    2    1    2    0    0 -0.53645169824E+01 -0.26838213351E+02  0.37654711426E+03  0.39769567195E+03  0.12500020197E+03 0.  0.
    9000005    1    3    3    0    0  0.33045850803E+01  0.30091949670E+01  0.36421324681E+03  0.36424204135E+03  0.10000000000E+01 0.  0.
    9000005    1    3    3    0    0 -0.86691020627E+01 -0.29847408318E+02  0.12333867450E+02  0.33453630597E+02  0.10000000000E+01 0.  0.
          4    1    1    2  501    0  0.53645169824E+01  0.26838213351E+02 -0.33079359762E+01  0.27597519431E+02  0.12700000000E+01 0.  1.
<mgrwt>
<rscale>  1 0.12796139E+03</rscale>
<asrwt>0</asrwt>
<pdfrwt beam="2">  1       21 0.40039998E-02 0.12796139E+03</pdfrwt>
<pdfrwt beam="1">  1        4 0.61427946E-01 0.12796139E+03</pdfrwt>
<totfact> 0.39653495E+04</totfact>
</mgrwt>
</event>
<event>
 6    3  0.3813045E-003  0.1319194E+03  0.7818608E-02  0.1224635E+00
         21   -1    0    0  501  502  0.00000000000E+00  0.00000000000E+00  0.13711840827E+02  0.13711840827E+02  0.00000000000E+00 0. -1.
         -4   -1    0    0    0  501 -0.00000000000E+00 -0.00000000000E+00 -0.13236467574E+04  0.13236473667E+04  0.12700000000E+01 0.  1.
         25    2    1    2    0    0  0.32790616366E+02 -0.26507959428E+02 -0.12771184058E+04  0.12839136023E+04  0.12499927742E+03 0.  0.
    9000005    1    3    3    0    0  0.42204464278E+01 -0.28498952639E+02 -0.12167219311E+04  0.12170633755E+04  0.10000000000E+01 0.  0.
    9000005    1    3    3    0    0  0.28570169938E+02  0.19909932113E+01 -0.60396474725E+02  0.66850226802E+02  0.10000000000E+01 0.  0.
         -4    1    1    2    0  502 -0.32790616366E+02  0.26507959428E+02 -0.32816510822E+02  0.53445605219E+02  0.12700000000E+01 0. -1.
<mgrwt>
<rscale>  1 0.13191935E+03</rscale>
<asrwt>0</asrwt>
<pdfrwt beam="1">  1       21 0.21095138E-02 0.13191935E+03</pdfrwt>
<pdfrwt beam="2">  1       -4 0.20364255E+00 0.13191935E+03</pdfrwt>
<totfact> 0.64003586E+03</totfact>
</mgrwt>
</event>
<event>
 6    3  0.3813045E-003  0.1285683E+03  0.7818608E-02  0.1229596E+00
          4   -1    0    0  502    0 -0.00000000000E+00  0.00000000000E+00  0.24944937960E+02  0.24977246242E+02  0.12700000000E+01 0.  1.
         21   -1    0    0  501  502  0.00000000000E+00 -0.00000000000E+00 -0.37108016312E+03  0.37108016312E+03  0.00000000000E+00 0. -1.
         25    2    1    2    0    0 -0.29666414474E+02  0.49926760794E+01 -0.14971792057E+03  0.19734557428E+03  0.12499918793E+03 0.  0.
    9000005    1    3    3    0    0  0.47603486931E+02  0.16589768897E+02 -0.57847274678E+02  0.76737341547E+02  0.10000000000E+01 0.  0.
    9000005    1    3    3    0    0 -0.77269901405E+02 -0.11597092818E+02 -0.91870645895E+02  0.12060823273E+03  0.10000000000E+01 0.  0.
          4    1    1    2  501    0  0.29666414474E+02 -0.49926760794E+01 -0.19641730459E+03  0.19871183509E+03  0.12700000000E+01 0. -1.
<mgrwt>
<rscale>  1 0.12856835E+03</rscale>
<asrwt>0</asrwt>
<pdfrwt beam="2">  1       21 0.57089252E-01 0.12856835E+03</pdfrwt>
<pdfrwt beam="1">  1        4 0.38403354E-02 0.12856835E+03</pdfrwt>
<totfact> 0.42689630E+04</totfact>
</mgrwt>
</event>
<event>
 6    3  0.3813045E-003  0.1303628E+03  0.7818608E-02  0.1226918E+00
          4   -1    0    0  502    0 -0.00000000000E+00  0.00000000000E+00  0.31570584754E+04  0.31570587309E+04  0.12700000000E+01 0. -1.
         21   -1    0    0  501  502  0.00000000000E+00 -0.00000000000E+00 -0.38969160000E+01  0.38969160000E+01  0.00000000000E+00 0.  1.
         25    2    1    2    0    0 -0.20873925737E+02 -0.30572402860E+02  0.30178938962E+04  0.30207082005E+04  0.12499628552E+03 0.  0.
    9000005    1    3    3    0    0 -0.66969830883E+02 -0.17514821377E+02  0.23842553659E+04  0.23852602326E+04  0.10000000000E+01 0.  0.
    9000005    1    3    3    0    0  0.46095905146E+02 -0.13057581483E+02  0.63363853026E+03  0.63544796792E+03  0.10000000000E+01 0.  0.
          4    1    1    2  501    0  0.20873925737E+02  0.30572402860E+02  0.13526766325E+03  0.14024744637E+03  0.12700000000E+01 0.  1.
<mgrwt>
<rscale>  1 0.13036282E+03</rscale>
<asrwt>0</asrwt>
<pdfrwt beam="2">  1       21 0.59952806E-03 0.13036282E+03</pdfrwt>
<pdfrwt beam="1">  1        4 0.48571520E+00 0.13036282E+03</pdfrwt>
<totfact> 0.78295115E+02</totfact>
</mgrwt>
</event>
<event>
 6    3  0.3813045E-003  0.1268691E+03  0.7818608E-02  0.1232177E+00
          4   -1    0    0  502    0 -0.00000000000E+00  0.00000000000E+00  0.19411598649E+03  0.19412014092E+03  0.12700000000E+01 0. -1.
         21   -1    0    0  501  502  0.00000000000E+00 -0.00000000000E+00 -0.99623350336E+02  0.99623350336E+02  0.00000000000E+00 0.  1.
         25    2    1    2    0    0  0.11665142696E+02 -0.18323515948E+02  0.17172365213E+03  0.21350590954E+03  0.12499573559E+03 0.  0.
    9000005    1    3    3    0    0  0.15256900064E+02 -0.22772678350E+02 -0.11821988945E+02  0.29868500154E+02  0.10000000000E+01 0.  0.
    9000005    1    3    3    0    0 -0.35917573683E+01  0.44491624024E+01  0.18354564107E+03  0.18363740938E+03  0.10000000000E+01 0.  0.
          4    1    1    2  501    0 -0.11665142696E+02  0.18323515948E+02 -0.77231015979E+02  0.80237581718E+02  0.12700000000E+01 0.  1.
<mgrwt>
<rscale>  1 0.12686907E+03</rscale>
<asrwt>0</asrwt>
<pdfrwt beam="2">  1       21 0.15326669E-01 0.12686907E+03</pdfrwt>
<pdfrwt beam="1">  1        4 0.29864940E-01 0.12686907E+03</pdfrwt>
<totfact> 0.16406544E+04</totfact>
</mgrwt>
</event>
<event>
 6    3  0.3813045E-003  0.1653714E+03  0.7818608E-02  0.1182763E+00
         21   -1    0    0  501  502  0.00000000000E+00  0.00000000000E+00  0.17881920279E+03  0.17881920279E+03  0.00000000000E+00 0.  1.
          4   -1    0    0  502    0 -0.00000000000E+00 -0.00000000000E+00 -0.10508395444E+03  0.10509162850E+03  0.12700000000E+01 0. -1.
         25    2    1    2    0    0  0.10796526884E+03 -0.81477858716E+01  0.36002953223E+02  0.16924512288E+03  0.12499925315E+03 0.  0.
    9000005    1    3    3    0    0 -0.19505271731E+02 -0.77019283487E+01  0.36110161979E+02  0.41769835094E+02  0.10000000000E+01 0.  0.
    9000005    1    3    3    0    0  0.12747054057E+03 -0.44585752287E+00 -0.10720875583E+00  0.12747528778E+03  0.10000000000E+01 0.  0.
          4    1    1    2  501    0 -0.10796526884E+03  0.81477858716E+01  0.37732295130E+02  0.11466570841E+03  0.12700000000E+01 0.  1.
<mgrwt>
<rscale>  1 0.16537140E+03</rscale>
<asrwt>0</asrwt>
<pdfrwt beam="1">  1       21 0.27510647E-01 0.16537140E+03</pdfrwt>
<pdfrwt beam="2">  1        4 0.16167699E-01 0.16537140E+03</pdfrwt>
<totfact> 0.17314842E+04</totfact>
</mgrwt>
</event>
<event>
 6    3  0.3813045E-003  0.1290643E+03  0.7818608E-02  0.1228851E+00
         21   -1    0    0  501  502  0.00000000000E+00  0.00000000000E+00  0.96217427598E+02  0.96217427598E+02  0.00000000000E+00 0. -1.
         -4   -1    0    0    0  501 -0.00000000000E+00 -0.00000000000E+00 -0.71684770614E+02  0.71696019681E+02  0.12700000000E+01 0. -1.
         25    2    1    2    0    0  0.11519497421E+02  0.30000437862E+02  0.27939674126E+01  0.12909452642E+03  0.12499946161E+03 0.  0.
    9000005    1    3    3    0    0 -0.16295548093E+02  0.16860230008E+02  0.59838356214E+02  0.64276287369E+02  0.10000000000E+01 0.  0.
    9000005    1    3    3    0    0  0.27815045514E+02  0.13140207854E+02 -0.57044388801E+02  0.64818239046E+02  0.10000000000E+01 0.  0.
         -4    1    1    2    0  502 -0.11519497421E+02 -0.30000437862E+02  0.21738689571E+02  0.38818920864E+02  0.12700000000E+01 0.  1.
<mgrwt>
<rscale>  1 0.12906429E+03</rscale>
<asrwt>0</asrwt>
<pdfrwt beam="1">  1       21 0.14802681E-01 0.12906429E+03</pdfrwt>
<pdfrwt beam="2">  1       -4 0.11029936E-01 0.12906429E+03</pdfrwt>
<totfact> 0.10331023E+05</totfact>
</mgrwt>
</event>
<event>
 6    3  0.3813045E-003  0.1990174E+03  0.7818608E-02  0.1150571E+00
         -4   -1    0    0    0  501 -0.00000000000E+00  0.00000000000E+00  0.25082349864E+02  0.25114481374E+02  0.12700000000E+01 0.  1.
         21   -1    0    0  501  502  0.00000000000E+00 -0.00000000000E+00 -0.17894699540E+04  0.17894699540E+04  0.00000000000E+00 0. -1.
         25    2    1    2    0    0  0.11395729139E+03 -0.10485883971E+03 -0.46228098135E+03  0.50330074733E+03  0.12500518397E+03 0.  0.
    9000005    1    3    3    0    0  0.13651939642E+03 -0.11033275114E+03 -0.39974296208E+03  0.43658481113E+03  0.10000000000E+01 0.  0.
    9000005    1    3    3    0    0 -0.22562105024E+02  0.54739114361E+01 -0.62538019267E+02  0.66715936202E+02  0.10000000000E+01 0.  0.
         -4    1    1    2    0  502 -0.11395729139E+03  0.10485883971E+03 -0.13021066228E+04  0.13112836881E+04  0.12700000000E+01 0. -1.
<mgrwt>
<rscale>  1 0.19901743E+03</rscale>
<asrwt>0</asrwt>
<pdfrwt beam="2">  1       21 0.27530312E+00 0.19901743E+03</pdfrwt>
<pdfrwt beam="1">  1       -4 0.38613286E-02 0.19901743E+03</pdfrwt>
<totfact> 0.71976773E+02</totfact>
</mgrwt>
</event>
<event>
 6    3  0.3813045E-003  0.1379854E+03  0.7818608E-02  0.1216066E+00
          4   -1    0    0  502    0 -0.00000000000E+00  0.00000000000E+00  0.30295200109E+02  0.30321808152E+02  0.12700000000E+01 0.  1.
         21   -1    0    0  501  502  0.00000000000E+00 -0.00000000000E+00 -0.46545424979E+03  0.46545424979E+03  0.00000000000E+00 0.  1.
         25    2    1    2    0    0 -0.57572190318E+02  0.99619197392E+01 -0.14646520936E+03  0.20122632821E+03  0.12500472259E+03 0.  0.
    9000005    1    3    3    0    0 -0.61595497806E+02 -0.43777056445E+02 -0.11838704646E+03  0.14045258556E+03  0.10000000000E+01 0.  0.
    9000005    1    3    3    0    0  0.40233074878E+01  0.53738976185E+02 -0.28078162902E+02  0.60773742656E+02  0.10000000000E+01 0.  0.
          4    1    1    2  501    0  0.57572190318E+02 -0.99619197392E+01 -0.28869384033E+03  0.29454972973E+03  0.12700000000E+01 0. -1.
<mgrwt>
<rscale>  1 0.13798543E+03</rscale>
<asrwt>0</asrwt>
<pdfrwt beam="2">  1       21 0.71608343E-01 0.13798543E+03</pdfrwt>
<pdfrwt beam="1">  1        4 0.46629802E-02 0.13798543E+03</pdfrwt>
<totfact> 0.19384077E+04</totfact>
</mgrwt>
</event>
<event>
 6    3  0.3813045E-003  0.1294961E+03  0.7818608E-02  0.1228205E+00
         -4   -1    0    0    0  501 -0.00000000000E+00  0.00000000000E+00  0.37339659539E+02  0.37361250976E+02  0.12700000000E+01 0. -1.
         21   -1    0    0  501  502  0.00000000000E+00 -0.00000000000E+00 -0.18140756759E+03  0.18140756759E+03  0.00000000000E+00 0. -1.
         25    2    1    2    0    0 -0.58932259433E+01 -0.33307974079E+02 -0.12467258497E+03  0.17975673445E+03  0.12500031556E+03 0.  0.
    9000005    1    3    3    0    0  0.36220953993E+02  0.79564289767E+01  0.48773069632E+01  0.37417247273E+02  0.10000000000E+01 0.  0.
    9000005    1    3    3    0    0 -0.42114179937E+02 -0.41264403056E+02 -0.12954989193E+03  0.14233948718E+03  0.10000000000E+01 0.  0.
         -4    1    1    2    0  502  0.58932259433E+01  0.33307974079E+02 -0.19395323082E+02  0.39012084112E+02  0.12700000000E+01 0.  1.
<mgrwt>
<rscale>  1 0.12949606E+03</rscale>
<asrwt>0</asrwt>
<pdfrwt beam="2">  1       21 0.27908857E-01 0.12949606E+03</pdfrwt>
<pdfrwt beam="1">  1       -4 0.57465658E-02 0.12949606E+03</pdfrwt>
<totfact> 0.93923221E+04</totfact>
</mgrwt>
</event>
<event>
 6    3  0.3813045E-003  0.1267314E+03  0.7818608E-02  0.1232388E+00
         21   -1    0    0  501  502  0.00000000000E+00  0.00000000000E+00  0.17640456710E+03  0.17640456710E+03  0.00000000000E+00 0.  1.
          4   -1    0    0  502    0 -0.00000000000E+00 -0.00000000000E+00 -0.12832077901E+03  0.12832706349E+03  0.12700000000E+01 0. -1.
         25    2    1    2    0    0  0.15640902620E+02  0.13826444583E+02 -0.96094669469E+02  0.15904412623E+03  0.12500016073E+03 0.  0.
    9000005    1    3    3    0    0 -0.24616729229E+02 -0.22583774137E+02  0.14043602686E+02  0.36252351491E+02  0.10000000000E+01 0.  0.
    9000005    1    3    3    0    0  0.40257631849E+02  0.36410218720E+02 -0.11013827215E+03  0.12279177473E+03  0.10000000000E+01 0.  0.
          4    1    1    2  501    0 -0.15640902620E+02 -0.13826444583E+02  0.14417845756E+03  0.14568750437E+03  0.12700000000E+01 0.  1.
<mgrwt>
<rscale>  1 0.12673140E+03</rscale>
<asrwt>0</asrwt>
<pdfrwt beam="1">  1       21 0.27139164E-01 0.12673140E+03</pdfrwt>
<pdfrwt beam="2">  1        4 0.19742493E-01 0.12673140E+03</pdfrwt>
<totfact> 0.12180893E+04</totfact>
</mgrwt>
</event>
<event>
 6    3  0.3813045E-003  0.1933684E+03  0.7818608E-02  0.1155458E+00
         -4   -1    0    0    0  501 -0.00000000000E+00  0.00000000000E+00  0.27370468346E+02  0.27399916742E+02  0.12700000000E+01 0. -1.
         21   -1    0    0  501  502  0.00000000000E+00 -0.00000000000E+00 -0.16070496316E+04  0.16070496316E+04  0.00000000000E+00 0.  1.
         25    2    1    2    0    0 -0.58886283219E+02 -0.13527164565E+03 -0.38639605245E+03  0.43208013427E+03  0.12500128245E+03 0.  0.
    9000005    1    3    3    0    0 -0.63438018907E+02 -0.84119873364E+02 -0.35843230667E+03  0.37359771654E+03  0.10000000000E+01 0.  0.
    9000005    1    3    3    0    0  0.45517356871E+01 -0.51151772282E+02 -0.27963745775E+02  0.58482417727E+02  0.10000000000E+01 0.  0.
         -4    1    1    2    0  502  0.58886283219E+02  0.13527164565E+03 -0.11932831108E+04  0.12023694141E+04  0.12700000000E+01 0.  1.
<mgrwt>
<rscale>  1 0.19336839E+03</rscale>
<asrwt>0</asrwt>
<pdfrwt beam="2">  1       21 0.24723840E+00 0.19336839E+03</pdfrwt>
<pdfrwt beam="1">  1       -4 0.42131452E-02 0.19336839E+03</pdfrwt>
<totfact> 0.91468156E+02</totfact>
</mgrwt>
</event>
<event>
 6    3  0.3813045E-003  0.1552866E+03  0.7818608E-02  0.1194123E+00
         21   -1    0    0  501  502  0.00000000000E+00  0.00000000000E+00  0.54443608524E+02  0.54443608524E+02  0.00000000000E+00 0.  1.
         -4   -1    0    0    0  501 -0.00000000000E+00 -0.00000000000E+00 -0.60597535100E+03  0.60597668182E+03  0.12700000000E+01 0. -1.
         25    2    1    2    0    0  0.75418687236E+02 -0.52922751484E+02 -0.54650622704E+03  0.56813993104E+03  0.12500051614E+03 0.  0.
    9000005    1    3    3    0    0  0.46990962930E+02 -0.56274473872E+02 -0.53006990243E+03  0.53511687366E+03  0.10000000000E+01 0.  0.
    9000005    1    3    3    0    0  0.28427724306E+02  0.33517223883E+01 -0.16436324610E+02  0.33023057382E+02  0.10000000000E+01 0.  0.
         -4    1    1    2    0  502 -0.75418687236E+02  0.52922751484E+02 -0.50255154297E+01  0.92280359310E+02  0.12700000000E+01 0.  1.
<mgrwt>
<rscale>  1 0.15528659E+03</rscale>
<asrwt>0</asrwt>
<pdfrwt beam="1">  1       21 0.83759398E-02 0.15528659E+03</pdfrwt>
<pdfrwt beam="2">  1       -4 0.93228219E-01 0.15528659E+03</pdfrwt>
<totfact> 0.46273516E+03</totfact>
</mgrwt>
</event>
<event>
 6    3  0.3813045E-003  0.1321086E+03  0.7818608E-02  0.1224360E+00
         -4   -1    0    0    0  501 -0.00000000000E+00  0.00000000000E+00  0.80329369964E+03  0.80329470357E+03  0.12700000000E+01 0.  1.
         21   -1    0    0  501  502  0.00000000000E+00 -0.00000000000E+00 -0.11614501886E+02  0.11614501886E+02  0.00000000000E+00 0.  1.
         25    2    1    2    0    0 -0.20305940258E+02  0.37615250463E+02  0.71507808375E+03  0.72717904050E+03  0.12500181118E+03 0.  0.
    9000005    1    3    3    0    0 -0.41401847802E+02  0.41153502544E+01  0.64761960571E+03  0.64895547059E+03  0.10000000000E+01 0.  0.
    9000005    1    3    3    0    0  0.21095907544E+02  0.33499900209E+02  0.67458478041E+02  0.78223569905E+02  0.10000000000E+01 0.  0.
         -4    1    1    2    0  502  0.20305940258E+02 -0.37615250463E+02  0.76601113999E+02  0.87730164956E+02  0.12700000000E+01 0. -1.
<mgrwt>
<rscale>  1 0.13210863E+03</rscale>
<asrwt>0</asrwt>
<pdfrwt beam="2">  1       21 0.17868471E-02 0.13210863E+03</pdfrwt>
<pdfrwt beam="1">  1       -4 0.12358902E+00 0.13210863E+03</pdfrwt>
<totfact> 0.30831166E+04</totfact>
</mgrwt>
</event>
<event>
 6    3  0.3813045E-003  0.1266337E+03  0.7818608E-02  0.1232538E+00
         21   -1    0    0  501  502  0.00000000000E+00  0.00000000000E+00  0.11487845795E+04  0.11487845795E+04  0.00000000000E+00 0. -1.
         -4   -1    0    0    0  501 -0.00000000000E+00 -0.00000000000E+00 -0.67188628249E+01  0.68378372063E+01  0.12700000000E+01 0. -1.
         25    2    1    2    0    0  0.11817673123E+02  0.16503792972E+02  0.60204707371E+03  0.61522091760E+03  0.12499626361E+03 0.  0.
    9000005    1    3    3    0    0 -0.31065459782E+02 -0.39759305928E+02  0.16700731119E+03  0.17446577656E+03  0.10000000000E+01 0.  0.
    9000005    1    3    3    0    0  0.42883132905E+02  0.56263098900E+02  0.43503976251E+03  0.44075514104E+03  0.10000000000E+01 0.  0.
         -4    1    1    2    0  502 -0.11817673123E+02 -0.16503792972E+02  0.54001864294E+03  0.54040149908E+03  0.12700000000E+01 0.  1.
<mgrwt>
<rscale>  1 0.12663372E+03</rscale>
<asrwt>0</asrwt>
<pdfrwt beam="1">  1       21 0.17673593E+00 0.12663372E+03</pdfrwt>
<pdfrwt beam="2">  1       -4 0.10428780E-02 0.12663372E+03</pdfrwt>
<totfact> 0.21920410E+04</totfact>
</mgrwt>
</event>
<event>
 6    3  0.3813045E-003  0.1307798E+03  0.7818608E-02  0.1226303E+00
          4   -1    0    0  502    0 -0.00000000000E+00  0.00000000000E+00  0.56539173547E+02  0.56553435310E+02  0.12700000000E+01 0. -1.
         21   -1    0    0  501  502  0.00000000000E+00 -0.00000000000E+00 -0.46694899002E+03  0.46694899002E+03  0.00000000000E+00 0.  1.
         25    2    1    2    0    0  0.66588259727E+01  0.37878063588E+02 -0.21310144033E+02  0.13250465595E+03  0.12499709575E+03 0.  0.
    9000005    1    3    3    0    0  0.10330853222E+02  0.37156389288E+02 -0.71990800240E+02  0.81676184488E+02  0.10000000000E+01 0.  0.
    9000005    1    3    3    0    0 -0.36720272489E+01  0.72167429960E+00  0.50680656207E+02  0.50828471465E+02  0.10000000000E+01 0.  0.
          4    1    1    2  501    0 -0.66588259727E+01 -0.37878063588E+02 -0.38909967244E+03  0.39099776938E+03  0.12700000000E+01 0.  1.
<mgrwt>
<rscale>  1 0.13077982E+03</rscale>
<asrwt>0</asrwt>
<pdfrwt beam="2">  1       21 0.71838306E-01 0.13077982E+03</pdfrwt>
<pdfrwt beam="1">  1        4 0.86995643E-02 0.13077982E+03</pdfrwt>
<totfact> 0.69306680E+03</totfact>
</mgrwt>
</event>
<event>
 6    3  0.3813045E-003  0.1323611E+03  0.7818608E-02  0.1223994E+00
          4   -1    0    0  502    0 -0.00000000000E+00  0.00000000000E+00  0.13365636974E+03  0.13366240336E+03  0.12700000000E+01 0.  1.
         21   -1    0    0  501  502  0.00000000000E+00 -0.00000000000E+00 -0.63818010117E+02  0.63818010117E+02  0.00000000000E+00 0.  1.
         25    2    1    2    0    0  0.12369356974E+02  0.41744008436E+02  0.77313934691E+02  0.15328697103E+03  0.12499555095E+03 0.  0.
    9000005    1    3    3    0    0 -0.80327625677E+01  0.79813244885E+02  0.22161093418E+02  0.83227359655E+02  0.10000000000E+01 0.  0.
    9000005    1    3    3    0    0  0.20402119542E+02 -0.38069236450E+02  0.55152841273E+02  0.70059611376E+02  0.10000000000E+01 0.  0.
          4    1    1    2  501    0 -0.12369356974E+02 -0.41744008436E+02 -0.74755750720E+01  0.44193442442E+02  0.12700000000E+01 0. -1.
<mgrwt>
<rscale>  1 0.13236106E+03</rscale>
<asrwt>0</asrwt>
<pdfrwt beam="2">  1       21 0.98181555E-02 0.13236106E+03</pdfrwt>
<pdfrwt beam="1">  1        4 0.20563954E-01 0.13236106E+03</pdfrwt>
<totfact> 0.72329850E+04</totfact>
</mgrwt>
</event>
<event>
 6    3  0.3813045E-003  0.1340623E+03  0.7818608E-02  0.1221550E+00
         21   -1    0    0  501  502  0.00000000000E+00  0.00000000000E+00  0.24018434375E+02  0.24018434375E+02  0.00000000000E+00 0.  1.
          4   -1    0    0  502    0 -0.00000000000E+00 -0.00000000000E+00 -0.52140028432E+03  0.52140183102E+03  0.12700000000E+01 0. -1.
         25    2    1    2    0    0  0.12436449297E+02 -0.46787801019E+02 -0.47214684521E+03  0.49081090759E+03  0.12501575892E+03 0.  0.
    9000005    1    3    3    0    0  0.11237782157E+02 -0.85096085755E+02 -0.40002461400E+03  0.40913118112E+03  0.10000000000E+01 0.  0.
    9000005    1    3    3    0    0  0.11986671403E+01  0.38308284736E+02 -0.72122231203E+02  0.81679726469E+02  0.10000000000E+01 0.  0.
          4    1    1    2  501    0 -0.12436449297E+02  0.46787801019E+02 -0.25235004740E+02  0.54609357802E+02  0.12700000000E+01 0.  1.
<mgrwt>
<rscale>  1 0.13406231E+03</rscale>
<asrwt>0</asrwt>
<pdfrwt beam="1">  1       21 0.36951437E-02 0.13406231E+03</pdfrwt>
<pdfrwt beam="2">  1        4 0.80218130E-01 0.13406231E+03</pdfrwt>
<totfact> 0.25615441E+04</totfact>
</mgrwt>
</event>
<event>
 6    3  0.3813045E-003  0.1273656E+03  0.7818608E-02  0.1231418E+00
         -4   -1    0    0    0  501 -0.00000000000E+00  0.00000000000E+00  0.57199340819E+03  0.57199481808E+03  0.12700000000E+01 0.  1.
         21   -1    0    0  501  502  0.00000000000E+00 -0.00000000000E+00 -0.51556580500E+02  0.51556580500E+02  0.00000000000E+00 0. -1.
         25    2    1    2    0    0 -0.22963612658E+02  0.83668508538E+01  0.56149144989E+03  0.57575572300E+03  0.12499869026E+03 0.  0.
    9000005    1    3    3    0    0 -0.30035938642E+02 -0.23751957395E+02  0.48936532073E+02  0.62145774286E+02  0.10000000000E+01 0.  0.
    9000005    1    3    3    0    0  0.70723259842E+01  0.32118808249E+02  0.51255491782E+03  0.51360994871E+03  0.10000000000E+01 0.  0.
         -4    1    1    2    0  502  0.22963612658E+02 -0.83668508538E+01 -0.41054622206E+02  0.47795675578E+02  0.12700000000E+01 0. -1.
<mgrwt>
<rscale>  1 0.12736563E+03</rscale>
<asrwt>0</asrwt>
<pdfrwt beam="2">  1       21 0.79317820E-02 0.12736563E+03</pdfrwt>
<pdfrwt beam="1">  1       -4 0.88000293E-01 0.12736563E+03</pdfrwt>
<totfact> 0.57113810E+03</totfact>
</mgrwt>
</event>
<event>
 6    3  0.3813045E-003  0.1297023E+03  0.7818608E-02  0.1227898E+00
          4   -1    0    0  502    0 -0.00000000000E+00  0.00000000000E+00  0.22857653747E+03  0.22858006558E+03  0.12700000000E+01 0. -1.
         21   -1    0    0  501  502  0.00000000000E+00 -0.00000000000E+00 -0.30414794837E+02  0.30414794837E+02  0.00000000000E+00 0. -1.
         25    2    1    2    0    0 -0.31079800942E+02  0.15220631318E+02  0.17284611398E+03  0.21609829181E+03  0.12500028385E+03 0.  0.
    9000005    1    3    3    0    0 -0.64751299648E+02  0.22291817740E+02  0.40976722932E+02  0.79810699574E+02  0.10000000000E+01 0.  0.
    9000005    1    3    3    0    0  0.33671498707E+02 -0.70711864222E+01  0.13186939105E+03  0.13628759224E+03  0.10000000000E+01 0.  0.
          4    1    1    2  501    0  0.31079800942E+02 -0.15220631318E+02  0.25315628655E+02  0.42896568610E+02  0.12700000000E+01 0.  1.
<mgrwt>
<rscale>  1 0.12970232E+03</rscale>
<asrwt>0</asrwt>
<pdfrwt beam="2">  1       21 0.46791994E-02 0.12970232E+03</pdfrwt>
<pdfrwt beam="1">  1        4 0.35167931E-01 0.12970232E+03</pdfrwt>
<totfact> 0.94168990E+04</totfact>
</mgrwt>
</event>
<event>
 6    3  0.3813045E-003  0.1271094E+03  0.7818608E-02  0.1231809E+00
         -4   -1    0    0    0  501 -0.00000000000E+00  0.00000000000E+00  0.19227216231E+04  0.19227220426E+04  0.12700000000E+01 0. -1.
         21   -1    0    0  501  502  0.00000000000E+00 -0.00000000000E+00 -0.37340641152E+01  0.37340641152E+01  0.00000000000E+00 0.  1.
         25    2    1    2    0    0 -0.22581119603E+02 -0.45973741623E+01  0.18337238220E+04  0.18381240029E+04  0.12500300704E+03 0.  0.
    9000005    1    3    3    0    0 -0.45756913657E+02  0.49468905560E+02  0.87026440037E+03  0.87286997560E+03  0.10000000000E+01 0.  0.
    9000005    1    3    3    0    0  0.23175794054E+02 -0.54066279722E+02  0.96345942167E+03  0.96525402731E+03  0.10000000000E+01 0.  0.
         -4    1    1    2    0  502  0.22581119603E+02  0.45973741623E+01  0.85263736971E+02  0.88332103756E+02  0.12700000000E+01 0.  1.
<mgrwt>
<rscale>  1 0.12710938E+03</rscale>
<asrwt>0</asrwt>
<pdfrwt beam="2">  1       21 0.57447294E-03 0.12710938E+03</pdfrwt>
<pdfrwt beam="1">  1       -4 0.29581918E+00 0.12710938E+03</pdfrwt>
<totfact> 0.14512753E+04</totfact>
</mgrwt>
</event>
<event>
 6    3  0.3813045E-003  0.1275672E+03  0.7818608E-02  0.1231111E+00
         -4   -1    0    0    0  501 -0.00000000000E+00  0.00000000000E+00  0.43634621989E+01  0.45445244373E+01  0.12700000000E+01 0.  1.
         21   -1    0    0  501  502  0.00000000000E+00 -0.00000000000E+00 -0.21298729773E+04  0.21298729773E+04  0.00000000000E+00 0. -1.
         25    2    1    2    0    0  0.25248529926E+02  0.35525736931E+01 -0.93813064951E+03  0.94676423062E+03  0.12499313496E+03 0.  0.
    9000005    1    3    3    0    0  0.13437626506E+02  0.35987931616E+02 -0.86538689071E+03  0.86623967333E+03  0.10000000000E+01 0.  0.
    9000005    1    3    3    0    0  0.11810903419E+02 -0.32435357923E+02 -0.72743758791E+02  0.80524557287E+02  0.10000000000E+01 0.  0.
         -4    1    1    2    0  502 -0.25248529926E+02 -0.35525736931E+01 -0.11873788656E+04  0.11876532711E+04  0.12700000000E+01 0. -1.
<mgrwt>
<rscale>  1 0.12756721E+03</rscale>
<asrwt>0</asrwt>
<pdfrwt beam="2">  1       21 0.32767261E+00 0.12756721E+03</pdfrwt>
<pdfrwt beam="1">  1       -4 0.68525919E-03 0.12756721E+03</pdfrwt>
<totfact> 0.53258490E+03</totfact>
</mgrwt>
</event>
<event>
 6    3  0.3813045E-003  0.1275536E+03  0.7818608E-02  0.1231132E+00
          4   -1    0    0  502    0 -0.00000000000E+00  0.00000000000E+00  0.39306003463E+03  0.39306208635E+03  0.12700000000E+01 0.  1.
         21   -1    0    0  501  502  0.00000000000E+00 -0.00000000000E+00 -0.25356396795E+02  0.25356396795E+02  0.00000000000E+00 0.  1.
         25    2    1    2    0    0  0.38445898649E+01  0.25097597421E+02  0.37143297242E+03  0.39272429890E+03  0.12500100670E+03 0.  0.
    9000005    1    3    3    0    0 -0.56394945644E+02  0.16425921370E+02  0.25099944783E+03  0.25778270617E+03  0.10000000000E+01 0.  0.
    9000005    1    3    3    0    0  0.60239535509E+02  0.86716760510E+01  0.12043352459E+03  0.13494159273E+03  0.10000000000E+01 0.  0.
          4    1    1    2  501    0 -0.38445898649E+01 -0.25097597421E+02 -0.37293345841E+01  0.25694184244E+02  0.12700000000E+01 0. -1.
<mgrwt>
<rscale>  1 0.12755360E+03</rscale>
<asrwt>0</asrwt>
<pdfrwt beam="2">  1       21 0.39009844E-02 0.12755360E+03</pdfrwt>
<pdfrwt beam="1">  1        4 0.60473374E-01 0.12755360E+03</pdfrwt>
<totfact> 0.42775162E+04</totfact>
</mgrwt>
</event>
<event>
 6    3  0.3813045E-003  0.1411750E+03  0.7818608E-02  0.1211757E+00
         21   -1    0    0  501  502  0.00000000000E+00  0.00000000000E+00  0.32534579390E+03  0.32534579390E+03  0.00000000000E+00 0. -1.
         -4   -1    0    0    0  501 -0.00000000000E+00 -0.00000000000E+00 -0.91905789654E+02  0.91914563981E+02  0.12700000000E+01 0.  1.
         25    2    1    2    0    0 -0.10616872065E+02  0.64757153250E+02 -0.31217915375E+02  0.14458539719E+03  0.12499668784E+03 0.  0.
    9000005    1    3    3    0    0  0.46117136011E+01  0.26317685359E+01  0.44860777142E+02  0.45184991244E+02  0.10000000000E+01 0.  0.
    9000005    1    3    3    0    0 -0.15228585666E+02  0.62125384714E+02 -0.76078692516E+02  0.99400405946E+02  0.10000000000E+01 0.  0.
         -4    1    1    2    0  502  0.10616872065E+02 -0.64757153250E+02  0.26465791962E+03  0.27267496069E+03  0.12700000000E+01 0. -1.
<mgrwt>
<rscale>  1 0.14117499E+03</rscale>
<asrwt>0</asrwt>
<pdfrwt beam="1">  1       21 0.50053199E-01 0.14117499E+03</pdfrwt>
<pdfrwt beam="2">  1       -4 0.14140218E-01 0.14117499E+03</pdfrwt>
<totfact> 0.65769850E+03</totfact>
</mgrwt>
</event>
<event>
 6    3  0.3813045E-003  0.1275925E+03  0.7818608E-02  0.1231072E+00
         21   -1    0    0  501  502  0.00000000000E+00  0.00000000000E+00  0.11356882823E+03  0.11356882823E+03  0.00000000000E+00 0. -1.
         -4   -1    0    0    0  501 -0.00000000000E+00 -0.00000000000E+00 -0.52821623149E+02  0.52836888365E+02  0.12700000000E+01 0. -1.
         25    2    1    2    0    0 -0.24846555229E+02 -0.60946037053E+01  0.59437955936E+02  0.14075766531E+03  0.12500141694E+03 0.  0.
    9000005    1    3    3    0    0 -0.26911139493E+02  0.65531171037E+01  0.97091848502E+02  0.10097019272E+03  0.10000000000E+01 0.  0.
    9000005    1    3    3    0    0  0.20645842639E+01 -0.12647720809E+02 -0.37653892566E+02  0.39787472592E+02  0.10000000000E+01 0.  0.
         -4    1    1    2    0  502  0.24846555229E+02  0.60946037053E+01  0.13092491403E+01  0.25648051278E+02  0.12700000000E+01 0.  1.
<mgrwt>
<rscale>  1 0.12759251E+03</rscale>
<asrwt>0</asrwt>
<pdfrwt beam="1">  1       21 0.17472127E-01 0.12759251E+03</pdfrwt>
<pdfrwt beam="2">  1       -4 0.81281241E-02 0.12759251E+03</pdfrwt>
<totfact> 0.12738097E+05</totfact>
</mgrwt>
</event>
<event>
 6    3  0.3813045E-003  0.1545126E+03  0.7818608E-02  0.1195035E+00
         -4   -1    0    0    0  501 -0.00000000000E+00  0.00000000000E+00  0.50964957933E+03  0.50965116169E+03  0.12700000000E+01 0.  1.
         21   -1    0    0  501  502  0.00000000000E+00 -0.00000000000E+00 -0.43843320161E+02  0.43843320161E+02  0.00000000000E+00 0.  1.
         25    2    1    2    0    0 -0.88535075505E+02  0.20229097449E+02  0.42814039267E+03  0.45516846099E+03  0.12500582414E+03 0.  0.
    9000005    1    3    3    0    0  0.15199945237E+02 -0.26344360719E+02  0.17545806583E+03  0.17807750150E+03  0.10000000000E+01 0.  0.
    9000005    1    3    3    0    0 -0.10373502074E+03  0.46573458169E+02  0.25268232684E+03  0.27709095949E+03  0.10000000000E+01 0.  0.
         -4    1    1    2    0  502  0.88535075505E+02 -0.20229097449E+02  0.37665866500E+02  0.98326020857E+02  0.12700000000E+01 0. -1.
<mgrwt>
<rscale>  1 0.15451256E+03</rscale>
<asrwt>0</asrwt>
<pdfrwt beam="2">  1       21 0.67451265E-02 0.15451256E+03</pdfrwt>
<pdfrwt beam="1">  1       -4 0.78409160E-01 0.15451256E+03</pdfrwt>
<totfact> 0.99133632E+03</totfact>
</mgrwt>
</event>
<event>
 6    3  0.3813045E-003  0.1285080E+03  0.7818608E-02  0.1229686E+00
         21   -1    0    0  501  502  0.00000000000E+00  0.00000000000E+00  0.70486252504E+01  0.70486252504E+01  0.00000000000E+00 0. -1.
         -4   -1    0    0    0  501 -0.00000000000E+00 -0.00000000000E+00 -0.11257933876E+04  0.11257941039E+04  0.12700000000E+01 0. -1.
         25    2    1    2    0    0 -0.21182384339E+02  0.20955618279E+02 -0.61847344750E+03  0.63168324089E+03  0.12500592076E+03 0.  0.
    9000005    1    3    3    0    0 -0.25451318221E+02 -0.49917579499E+02 -0.22649379474E+03  0.23332375232E+03  0.10000000000E+01 0.  0.
    9000005    1    3    3    0    0  0.42689338813E+01  0.70873197777E+02 -0.39197965276E+03  0.39835948857E+03  0.10000000000E+01 0.  0.
         -4    1    1    2    0  502  0.21182384339E+02 -0.20955618279E+02 -0.50027131486E+03  0.50115948831E+03  0.12700000000E+01 0.  1.
<mgrwt>
<rscale>  1 0.12850802E+03</rscale>
<asrwt>0</asrwt>
<pdfrwt beam="1">  1       21 0.10844035E-02 0.12850802E+03</pdfrwt>
<pdfrwt beam="2">  1       -4 0.17320791E+00 0.12850802E+03</pdfrwt>
<totfact> 0.28968267E+04</totfact>
</mgrwt>
</event>
<event>
 6    3  0.3813045E-003  0.1268258E+03  0.7818608E-02  0.1232243E+00
         21   -1    0    0  501  502  0.00000000000E+00  0.00000000000E+00  0.11458566487E+02  0.11458566487E+02  0.00000000000E+00 0.  1.
          4   -1    0    0  502    0 -0.00000000000E+00 -0.00000000000E+00 -0.51000210629E+03  0.51000368756E+03  0.12700000000E+01 0. -1.
         25    2    1    2    0    0  0.19506056423E+02  0.88808786866E+01 -0.46186902232E+03  0.47896532032E+03  0.12500171217E+03 0.  0.
    9000005    1    3    3    0    0  0.16801369038E+02  0.72557086306E+01 -0.12893178270E+01  0.18373721717E+02  0.10000000000E+01 0.  0.
    9000005    1    3    3    0    0  0.27046873846E+01  0.16251700560E+01 -0.46057970449E+03  0.46059159860E+03  0.10000000000E+01 0.  0.
          4    1    1    2  501    0 -0.19506056423E+02 -0.88808786866E+01 -0.36674517489E+02  0.42496933730E+02  0.12700000000E+01 0.  1.
<mgrwt>
<rscale>  1 0.12682580E+03</rscale>
<asrwt>0</asrwt>
<pdfrwt beam="1">  1       21 0.17628563E-02 0.12682580E+03</pdfrwt>
<pdfrwt beam="2">  1        4 0.78467400E-01 0.12682580E+03</pdfrwt>
<totfact> 0.89194012E+04</totfact>
</mgrwt>
</event>
<event>
 6    3  0.3813045E-003  0.1301608E+03  0.7818608E-02  0.1227217E+00
          4   -1    0    0  502    0 -0.00000000000E+00  0.00000000000E+00  0.44151214193E+03  0.44151396849E+03  0.12700000000E+01 0.  1.
         21   -1    0    0  501  502  0.00000000000E+00 -0.00000000000E+00 -0.16007425491E+02  0.16007425491E+02  0.00000000000E+00 0. -1.
         25    2    1    2    0    0  0.28694452727E+02 -0.22223879352E+02  0.35696012255E+03  0.37995048009E+03  0.12499826318E+03 0.  0.
    9000005    1    3    3    0    0  0.30177970682E+02 -0.21283248328E+02  0.18195165135E+02  0.41179492568E+02  0.10000000000E+01 0.  0.
    9000005    1    3    3    0    0 -0.14835179550E+01 -0.94063102450E+00  0.33876495742E+03  0.33877098752E+03  0.10000000000E+01 0.  0.
          4    1    1    2  501    0 -0.28694452727E+02  0.22223879352E+02  0.68544593885E+02  0.77570913890E+02  0.12700000000E+01 0. -1.
<mgrwt>
<rscale>  1 0.13016082E+03</rscale>
<asrwt>0</asrwt>
<pdfrwt beam="2">  1       21 0.24626812E-02 0.13016082E+03</pdfrwt>
<pdfrwt beam="1">  1        4 0.67928951E-01 0.13016082E+03</pdfrwt>
<totfact> 0.71345892E+04</totfact>
</mgrwt>
</event>
<event>
 6    3  0.3813045E-003  0.1267602E+03  0.7818608E-02  0.1232344E+00
         -4   -1    0    0    0  501 -0.00000000000E+00  0.00000000000E+00  0.29265644108E+02  0.29293187349E+02  0.12700000000E+01 0.  1.
         21   -1    0    0  501  502  0.00000000000E+00 -0.00000000000E+00 -0.34771836087E+03  0.34771836087E+03  0.00000000000E+00 0. -1.
         25    2    1    2    0    0  0.20506470351E+02  0.48896727450E+01 -0.11101260210E+03  0.16849910663E+03  0.12499490743E+03 0.  0.
    9000005    1    3    3    0    0  0.24068491114E+02  0.45991929675E+02 -0.11584638081E+03  0.12694854787E+03  0.10000000000E+01 0.  0.
    9000005    1    3    3    0    0 -0.35620207628E+01 -0.41102256930E+02  0.48337787113E+01  0.41550558760E+02  0.10000000000E+01 0.  0.
         -4    1    1    2    0  502 -0.20506470351E+02 -0.48896727450E+01 -0.20744011466E+03  0.20851244159E+03  0.12700000000E+01 0. -1.
<mgrwt>
<rscale>  1 0.12676021E+03</rscale>
<asrwt>0</asrwt>
<pdfrwt beam="2">  1       21 0.53495133E-01 0.12676021E+03</pdfrwt>
<pdfrwt beam="1">  1       -4 0.45047038E-02 0.12676021E+03</pdfrwt>
<totfact> 0.37901792E+04</totfact>
</mgrwt>
</event>
<event>
 6    3  0.3813045E-003  0.1266727E+03  0.7818608E-02  0.1232478E+00
         21   -1    0    0  501  502  0.00000000000E+00  0.00000000000E+00  0.29987509210E+03  0.29987509210E+03  0.00000000000E+00 0.  1.
          4   -1    0    0  502    0 -0.00000000000E+00 -0.00000000000E+00 -0.19933317618E+02  0.19973734034E+02  0.12700000000E+01 0.  1.
         25    2    1    2    0    0  0.12353358617E+02  0.16383608448E+02  0.19558019055E+03  0.23301842916E+03  0.12499979719E+03 0.  0.
    9000005    1    3    3    0    0 -0.18997150431E+02 -0.17591868921E+02  0.18337186314E+03  0.18519342798E+03  0.10000000000E+01 0.  0.
    9000005    1    3    3    0    0  0.31350509048E+02  0.33975477369E+02  0.12208327418E+02  0.47825001185E+02  0.10000000000E+01 0.  0.
          4    1    1    2  501    0 -0.12353358617E+02 -0.16383608448E+02  0.84361583926E+02  0.86830396966E+02  0.12700000000E+01 0. -1.
<mgrwt>
<rscale>  1 0.12667272E+03</rscale>
<asrwt>0</asrwt>
<pdfrwt beam="1">  1       21 0.46134626E-01 0.12667272E+03</pdfrwt>
<pdfrwt beam="2">  1        4 0.30699803E-02 0.12667272E+03</pdfrwt>
<totfact> 0.94246328E+04</totfact>
</mgrwt>
</event>
<event>
 6    3  0.3813045E-003  0.1304870E+03  0.7818608E-02  0.1226735E+00
         -4   -1    0    0    0  501 -0.00000000000E+00  0.00000000000E+00  0.14328175166E+03  0.14328737997E+03  0.12700000000E+01 0. -1.
         21   -1    0    0  501  502  0.00000000000E+00 -0.00000000000E+00 -0.49244320620E+02  0.49244320620E+02  0.00000000000E+00 0. -1.
         25    2    1    2    0    0  0.33781333496E+02  0.16181806706E+02  0.74761632830E+02  0.15038672868E+03  0.12499534814E+03 0.  0.
    9000005    1    3    3    0    0 -0.18998666470E+02 -0.31876227266E+01  0.90067474359E+02  0.92110043989E+02  0.10000000000E+01 0.  0.
    9000005    1    3    3    0    0  0.52779999967E+02  0.19369429433E+02 -0.15305841529E+02  0.58276684686E+02  0.10000000000E+01 0.  0.
         -4    1    1    2    0  502 -0.33781333496E+02 -0.16181806706E+02  0.19275798209E+02  0.42144971914E+02  0.12700000000E+01 0.  1.
<mgrwt>
<rscale>  1 0.13048704E+03</rscale>
<asrwt>0</asrwt>
<pdfrwt beam="2">  1       21 0.75760494E-02 0.13048704E+03</pdfrwt>
<pdfrwt beam="1">  1       -4 0.22045039E-01 0.13048704E+03</pdfrwt>
<totfact> 0.99749016E+04</totfact>
</mgrwt>
</event>
<event>
 6    3  0.3813045E-003  0.1270303E+03  0.7818608E-02  0.1231930E+00
         -4   -1    0    0    0  501 -0.00000000000E+00  0.00000000000E+00  0.38453684725E+03  0.38453894444E+03  0.12700000000E+01 0. -1.
         21   -1    0    0  501  502  0.00000000000E+00 -0.00000000000E+00 -0.25294201574E+02  0.25294201574E+02  0.00000000000E+00 0.  1.
         25    2    1    2    0    0  0.52541819276E+00 -0.22619829668E+02  0.36498174827E+03  0.38645617108E+03  0.12499905133E+03 0.  0.
    9000005    1    3    3    0    0  0.18399570075E+02  0.19422562110E+02  0.32391333068E+03  0.32501788550E+03  0.10000000000E+01 0.  0.
    9000005    1    3    3    0    0 -0.17874151883E+02 -0.42042391778E+02  0.41068417588E+02  0.61438285581E+02  0.10000000000E+01 0.  0.
         -4    1    1    2    0  502 -0.52541819276E+00  0.22619829668E+02 -0.57391025997E+01  0.23376974935E+02  0.12700000000E+01 0.  1.
<mgrwt>
<rscale>  1 0.12703029E+03</rscale>
<asrwt>0</asrwt>
<pdfrwt beam="2">  1       21 0.38914159E-02 0.12703029E+03</pdfrwt>
<pdfrwt beam="1">  1       -4 0.59162125E-01 0.12703029E+03</pdfrwt>
<totfact> 0.44944779E+04</totfact>
</mgrwt>
</event>
<event>
 6    3  0.3813045E-003  0.1267314E+03  0.7818608E-02  0.1232388E+00
         21   -1    0    0  501  502  0.00000000000E+00  0.00000000000E+00  0.13594742757E+03  0.13594742757E+03  0.00000000000E+00 0.  1.
         -4   -1    0    0    0  501 -0.00000000000E+00 -0.00000000000E+00 -0.40875049111E+02  0.40894773992E+02  0.12700000000E+01 0.  1.
         25    2    1    2    0    0  0.53628921038E+01  0.20161367833E+02  0.72186216595E+02  0.14584815908E+03  0.12500237708E+03 0.  0.
    9000005    1    3    3    0    0  0.14671192903E+02  0.43112128465E+02  0.99216714208E+02  0.10917351281E+03  0.10000000000E+01 0.  0.
    9000005    1    3    3    0    0 -0.93083007989E+01 -0.22950760632E+02 -0.27030497614E+02  0.36674646264E+02  0.10000000000E+01 0.  0.
         -4    1    1    2    0  502 -0.53628921038E+01 -0.20161367833E+02  0.22886161868E+02  0.30994042487E+02  0.12700000000E+01 0. -1.
<mgrwt>
<rscale>  1 0.12673135E+03</rscale>
<asrwt>0</asrwt>
<pdfrwt beam="1">  1       21 0.20914989E-01 0.12673135E+03</pdfrwt>
<pdfrwt beam="2">  1       -4 0.62904428E-02 0.12673135E+03</pdfrwt>
<totfact> 0.13921140E+05</totfact>
</mgrwt>
</event>
<event>
 6    3  0.3813045E-003  0.1310985E+03  0.7818608E-02  0.1225835E+00
         -4   -1    0    0    0  501 -0.00000000000E+00  0.00000000000E+00  0.79980585348E+01  0.80982615620E+01  0.12700000000E+01 0.  1.
         21   -1    0    0  501  502  0.00000000000E+00 -0.00000000000E+00 -0.19107182479E+04  0.19107182479E+04  0.00000000000E+00 0. -1.
         25    2    1    2    0    0  0.38922536791E+02  0.68785392247E+01 -0.54593458469E+03  0.56145470503E+03  0.12499814746E+03 0.  0.
    9000005    1    3    3    0    0 -0.45198928566E+02  0.43098291876E+01 -0.23389289888E+03  0.23826121362E+03  0.10000000000E+01 0.  0.
    9000005    1    3    3    0    0  0.84121465357E+02  0.25687100371E+01 -0.31204168581E+03  0.32319349140E+03  0.10000000000E+01 0.  0.
         -4    1    1    2    0  502 -0.38922536791E+02 -0.68785392247E+01 -0.13567856047E+04  0.13573618044E+04  0.12700000000E+01 0. -1.
<mgrwt>
<rscale>  1 0.13109849E+03</rscale>
<asrwt>0</asrwt>
<pdfrwt beam="2">  1       21 0.29395678E+00 0.13109849E+03</pdfrwt>
<pdfrwt beam="1">  1       -4 0.12382104E-02 0.13109849E+03</pdfrwt>
<totfact> 0.33886158E+03</totfact>
</mgrwt>
</event>
<event>
 6    3  0.3813045E-003  0.1374039E+03  0.7818608E-02  0.1216865E+00
          4   -1    0    0  502    0 -0.00000000000E+00  0.00000000000E+00  0.18369743511E+03  0.18370182516E+03  0.12700000000E+01 0. -1.
         21   -1    0    0  501  502  0.00000000000E+00 -0.00000000000E+00 -0.51481700095E+02  0.51481700095E+02  0.00000000000E+00 0.  1.
         25    2    1    2    0    0  0.26072037026E+02  0.50752044631E+02  0.95120935495E+02  0.16711621885E+03  0.12499726831E+03 0.  0.
    9000005    1    3    3    0    0  0.12298830888E+02 -0.41131829106E+02  0.42098064394E+02  0.60135976192E+02  0.10000000000E+01 0.  0.
    9000005    1    3    3    0    0  0.13773206138E+02  0.91883873737E+02  0.53022871101E+02  0.10698024266E+03  0.10000000000E+01 0.  0.
          4    1    1    2  501    0 -0.26072037026E+02 -0.50752044631E+02  0.37094799524E+02  0.68067306401E+02  0.12700000000E+01 0.  1.
<mgrwt>
<rscale>  1 0.13740392E+03</rscale>
<asrwt>0</asrwt>
<pdfrwt beam="2">  1       21 0.79202617E-02 0.13740392E+03</pdfrwt>
<pdfrwt beam="1">  1        4 0.28262686E-01 0.13740392E+03</pdfrwt>
<totfact> 0.58815894E+04</totfact>
</mgrwt>
</event>
<event>
 6    3  0.3813045E-003  0.1281158E+03  0.7818608E-02  0.1230279E+00
         21   -1    0    0  501  502  0.00000000000E+00  0.00000000000E+00  0.33848466897E+02  0.33848466897E+02  0.00000000000E+00 0. -1.
         -4   -1    0    0    0  501 -0.00000000000E+00 -0.00000000000E+00 -0.20004963379E+03  0.20005366500E+03  0.12700000000E+01 0.  1.
         25    2    1    2    0    0 -0.20812915427E+01  0.28011226325E+02 -0.16024052365E+03  0.20516012879E+03  0.12499876979E+03 0.  0.
    9000005    1    3    3    0    0 -0.11232503933E+01  0.71803429889E+02 -0.13902490303E+03  0.15647976833E+03  0.10000000000E+01 0.  0.
    9000005    1    3    3    0    0 -0.95804114946E+00 -0.43792203563E+02 -0.21215620621E+02  0.48680360456E+02  0.10000000000E+01 0.  0.
         -4    1    1    2    0  502  0.20812915427E+01 -0.28011226325E+02 -0.59606432436E+01  0.28742003107E+02  0.12700000000E+01 0. -1.
<mgrwt>
<rscale>  1 0.12811578E+03</rscale>
<asrwt>0</asrwt>
<pdfrwt beam="1">  1       21 0.52074563E-02 0.12811578E+03</pdfrwt>
<pdfrwt beam="2">  1       -4 0.30779010E-01 0.12811578E+03</pdfrwt>
<totfact> 0.10134717E+05</totfact>
</mgrwt>
</event>
<event>
 6    3  0.3813045E-003  0.1290298E+03  0.7818608E-02  0.1228903E+00
         21   -1    0    0  501  502  0.00000000000E+00  0.00000000000E+00  0.81699507159E+03  0.81699507159E+03  0.00000000000E+00 0.  1.
         -4   -1    0    0    0  501 -0.00000000000E+00 -0.00000000000E+00 -0.81728362191E+01  0.82709220685E+01  0.12700000000E+01 0.  1.
         25    2    1    2    0    0  0.77973858420E+01 -0.31023251288E+02  0.57748983023E+03  0.59172898178E+03  0.12500177006E+03 0.  0.
    9000005    1    3    3    0    0 -0.14561726062E+01 -0.40570978287E+02  0.51568571738E+02  0.65638725680E+02  0.10000000000E+01 0.  0.
    9000005    1    3    3    0    0  0.92535584482E+01  0.95477269989E+01  0.52592125849E+03  0.52609025610E+03  0.10000000000E+01 0.  0.
         -4    1    1    2    0  502 -0.77973858420E+01  0.31023251288E+02  0.23133240514E+03  0.23353701188E+03  0.12700000000E+01 0. -1.
<mgrwt>
<rscale>  1 0.12902978E+03</rscale>
<asrwt>0</asrwt>
<pdfrwt beam="1">  1       21 0.12569148E+00 0.12902978E+03</pdfrwt>
<pdfrwt beam="2">  1       -4 0.12649811E-02 0.12902978E+03</pdfrwt>
<totfact> 0.39671409E+04</totfact>
</mgrwt>
</event>
<event>
 6    3  0.3813045E-003  0.1313773E+03  0.7818608E-02  0.1225426E+00
         -4   -1    0    0    0  501 -0.00000000000E+00  0.00000000000E+00  0.26237626000E+03  0.26237933363E+03  0.12700000000E+01 0.  1.
         21   -1    0    0  501  502  0.00000000000E+00 -0.00000000000E+00 -0.48369272857E+02  0.48369272857E+02  0.00000000000E+00 0. -1.
         25    2    1    2    0    0  0.40400191749E+02 -0.19113998384E+01  0.23188039638E+03  0.26651173724E+03  0.12499663564E+03 0.  0.
    9000005    1    3    3    0    0  0.80970173163E+02 -0.24641153681E+02  0.15691901416E+03  0.17829170592E+03  0.10000000000E+01 0.  0.
    9000005    1    3    3    0    0 -0.40569981415E+02  0.22729753843E+02  0.74961382222E+02  0.88220031321E+02  0.10000000000E+01 0.  0.
         -4    1    1    2    0  502 -0.40400191749E+02  0.19113998384E+01 -0.17873409230E+02  0.44236869240E+02  0.12700000000E+01 0. -1.
<mgrwt>
<rscale>  1 0.13137727E+03</rscale>
<asrwt>0</asrwt>
<pdfrwt beam="2">  1       21 0.74414268E-02 0.13137727E+03</pdfrwt>
<pdfrwt beam="1">  1       -4 0.40367097E-01 0.13137727E+03</pdfrwt>
<totfact> 0.32840831E+04</totfact>
</mgrwt>
</event>
<event>
 6    3  0.3813045E-003  0.1292024E+03  0.7818608E-02  0.1228644E+00
         21   -1    0    0  501  502  0.00000000000E+00  0.00000000000E+00  0.21930023500E+02  0.21930023500E+02  0.00000000000E+00 0. -1.
         -4   -1    0    0    0  501 -0.00000000000E+00 -0.00000000000E+00 -0.30261433145E+03  0.30261699639E+03  0.12700000000E+01 0. -1.
         25    2    1    2    0    0  0.46704553317E+01 -0.32349546751E+02 -0.23754890724E+03  0.27041216953E+03  0.12499980709E+03 0.  0.
    9000005    1    3    3    0    0  0.56143501011E+02 -0.33558016275E+01 -0.55531809177E+02  0.79045151279E+02  0.10000000000E+01 0.  0.
    9000005    1    3    3    0    0 -0.51473045679E+02 -0.28993745124E+02 -0.18201709806E+03  0.19136701825E+03  0.10000000000E+01 0.  0.
         -4    1    1    2    0  502 -0.46704553317E+01  0.32349546751E+02 -0.43135400713E+02  0.54134850353E+02  0.12700000000E+01 0.  1.
<mgrwt>
<rscale>  1 0.12920239E+03</rscale>
<asrwt>0</asrwt>
<pdfrwt beam="1">  1       21 0.33738502E-02 0.12920239E+03</pdfrwt>
<pdfrwt beam="2">  1       -4 0.46559079E-01 0.12920239E+03</pdfrwt>
<totfact> 0.93234756E+04</totfact>
</mgrwt>
</event>
<event>
 6    3  0.3813045E-003  0.1320979E+03  0.7818608E-02  0.1224376E+00
          4   -1    0    0  502    0 -0.00000000000E+00  0.00000000000E+00  0.56862000953E+02  0.56876181767E+02  0.12700000000E+01 0.  1.
         21   -1    0    0  501  502  0.00000000000E+00 -0.00000000000E+00 -0.15691959214E+03  0.15691959214E+03  0.00000000000E+00 0. -1.
         25    2    1    2    0    0 -0.40276692433E+02  0.14244161447E+02 -0.36223405913E+02  0.13697439538E+03  0.12499896706E+03 0.  0.
    9000005    1    3    3    0    0 -0.23213644605E+02  0.34741936147E+02 -0.77365699337E+02  0.87933650311E+02  0.10000000000E+01 0.  0.
    9000005    1    3    3    0    0 -0.17063047828E+02 -0.20497774700E+02  0.41142293425E+02  0.49040745071E+02  0.10000000000E+01 0.  0.
          4    1    1    2  501    0  0.40276692433E+02 -0.14244161447E+02 -0.63834185274E+02  0.76821378523E+02  0.12700000000E+01 0. -1.
<mgrwt>
<rscale>  1 0.13209788E+03</rscale>
<asrwt>0</asrwt>
<pdfrwt beam="2">  1       21 0.24141476E-01 0.13209788E+03</pdfrwt>
<pdfrwt beam="1">  1        4 0.87494863E-02 0.13209788E+03</pdfrwt>
<totfact> 0.62176678E+04</totfact>
</mgrwt>
</event>
<event>
 6    3  0.3813045E-003  0.1312598E+03  0.7818608E-02  0.1225598E+00
          4   -1    0    0  502    0 -0.00000000000E+00  0.00000000000E+00  0.53300144298E+02  0.53315272504E+02  0.12700000000E+01 0. -1.
         21   -1    0    0  501  502  0.00000000000E+00 -0.00000000000E+00 -0.14545126175E+03  0.14545126175E+03  0.00000000000E+00 0.  1.
         25    2    1    2    0    0 -0.14080405293E+02  0.37490087716E+02 -0.49595531811E+02  0.14031693837E+03  0.12500144770E+03 0.  0.
    9000005    1    3    3    0    0  0.17484788794E+02 -0.46642567479E-01 -0.80470744332E+02  0.82354482016E+02  0.10000000000E+01 0.  0.
    9000005    1    3    3    0    0 -0.31565194087E+02  0.37536730283E+02  0.30875212521E+02  0.57962456352E+02  0.10000000000E+01 0.  0.
          4    1    1    2  501    0  0.14080405293E+02 -0.37490087716E+02 -0.42555585646E+02  0.58449595891E+02  0.12700000000E+01 0.  1.
<mgrwt>
<rscale>  1 0.13125977E+03</rscale>
<asrwt>0</asrwt>
<pdfrwt beam="2">  1       21 0.22377117E-01 0.13125977E+03</pdfrwt>
<pdfrwt beam="1">  1        4 0.82016126E-02 0.13125977E+03</pdfrwt>
<totfact> 0.79766792E+04</totfact>
</mgrwt>
</event>
<event>
 6    3  0.3813045E-003  0.1271392E+03  0.7818608E-02  0.1231764E+00
         -4   -1    0    0    0  501 -0.00000000000E+00  0.00000000000E+00  0.11712411376E+03  0.11713099899E+03  0.12700000000E+01 0. -1.
         21   -1    0    0  501  502  0.00000000000E+00 -0.00000000000E+00 -0.79345472771E+02  0.79345472771E+02  0.00000000000E+00 0.  1.
         25    2    1    2    0    0  0.12693163695E+02  0.19416966384E+02  0.78624014637E+02  0.14948612768E+03  0.12500492672E+03 0.  0.
    9000005    1    3    3    0    0  0.23212837587E+02  0.40146893260E+02  0.10471399787E+03  0.11452785782E+03  0.10000000000E+01 0.  0.
    9000005    1    3    3    0    0 -0.10519673891E+02 -0.20729926876E+02 -0.26089983230E+02  0.34958269865E+02  0.10000000000E+01 0.  0.
         -4    1    1    2    0  502 -0.12693163695E+02 -0.19416966384E+02 -0.40845373646E+02  0.46990344077E+02  0.12700000000E+01 0.  1.
<mgrwt>
<rscale>  1 0.12713916E+03</rscale>
<asrwt>0</asrwt>
<pdfrwt beam="2">  1       21 0.12206996E-01 0.12713916E+03</pdfrwt>
<pdfrwt beam="1">  1       -4 0.18020406E-01 0.12713916E+03</pdfrwt>
<totfact> 0.62101623E+04</totfact>
</mgrwt>
</event>
<event>
 6    3  0.3813045E-003  0.1273494E+03  0.7818608E-02  0.1231443E+00
         21   -1    0    0  501  502  0.00000000000E+00  0.00000000000E+00  0.12823361900E+03  0.12823361900E+03  0.00000000000E+00 0. -1.
         -4   -1    0    0    0  501 -0.00000000000E+00 -0.00000000000E+00 -0.88580758703E+02  0.88589862356E+02  0.12700000000E+01 0. -1.
         25    2    1    2    0    0 -0.27592323603E+01  0.24185064942E+02 -0.40032566591E+02  0.13349334942E+03  0.12500134889E+03 0.  0.
    9000005    1    3    3    0    0 -0.42456117762E+02  0.56668868218E+02 -0.41665716464E+02  0.82163948840E+02  0.10000000000E+01 0.  0.
    9000005    1    3    3    0    0  0.39696885402E+02 -0.32483803276E+02  0.16331498724E+01  0.51329400585E+02  0.10000000000E+01 0.  0.
         -4    1    1    2    0  502  0.27592323603E+01 -0.24185064942E+02  0.79685426893E+02  0.83330131937E+02  0.12700000000E+01 0.  1.
<mgrwt>
<rscale>  1 0.12734939E+03</rscale>
<asrwt>0</asrwt>
<pdfrwt beam="1">  1       21 0.19728249E-01 0.12734939E+03</pdfrwt>
<pdfrwt beam="2">  1       -4 0.13628993E-01 0.12734939E+03</pdfrwt>
<totfact> 0.42534783E+04</totfact>
</mgrwt>
</event>
<event>
 6    3  0.3813045E-003  0.1333634E+03  0.7818608E-02  0.1222549E+00
         21   -1    0    0  501  502  0.00000000000E+00  0.00000000000E+00  0.36622156305E+02  0.36622156305E+02  0.00000000000E+00 0. -1.
          4   -1    0    0  502    0 -0.00000000000E+00 -0.00000000000E+00 -0.22082641220E+03  0.22083006413E+03  0.12700000000E+01 0. -1.
         25    2    1    2    0    0  0.29612785223E+02  0.35804087537E+02 -0.13818735041E+03  0.19204565943E+03  0.12500776679E+03 0.  0.
    9000005    1    3    3    0    0  0.17621568656E+02 -0.17723885686E+02  0.15112517443E+02  0.29224031022E+02  0.10000000000E+01 0.  0.
    9000005    1    3    3    0    0  0.11991216567E+02  0.53527973223E+02 -0.15329986786E+03  0.16282162841E+03  0.10000000000E+01 0.  0.
          4    1    1    2  501    0 -0.29612785223E+02 -0.35804087537E+02 -0.46016905479E+02  0.65406561008E+02  0.12700000000E+01 0.  1.
<mgrwt>
<rscale>  1 0.13336338E+03</rscale>
<asrwt>0</asrwt>
<pdfrwt beam="1">  1       21 0.56341778E-02 0.13336338E+03</pdfrwt>
<pdfrwt beam="2">  1        4 0.33975270E-01 0.13336338E+03</pdfrwt>
<totfact> 0.73917605E+04</totfact>
</mgrwt>
</event>
<event>
 6    3  0.3813045E-003  0.1398337E+03  0.7818608E-02  0.1213553E+00
         21   -1    0    0  501  502  0.00000000000E+00  0.00000000000E+00  0.38525749655E+03  0.38525749655E+03  0.00000000000E+00 0.  1.
          4   -1    0    0  502    0 -0.00000000000E+00 -0.00000000000E+00 -0.31572260152E+02  0.31597792820E+02  0.12700000000E+01 0. -1.
         25    2    1    2    0    0 -0.49789719170E+02  0.38067301806E+02  0.15614115478E+03  0.20960323827E+03  0.12500128670E+03 0.  0.
    9000005    1    3    3    0    0 -0.67866718815E+02 -0.10868933188E+02  0.33798941316E+02  0.76598914257E+02  0.10000000000E+01 0.  0.
    9000005    1    3    3    0    0  0.18076999645E+02  0.48936234993E+02  0.12234221347E+03  0.13300432402E+03  0.10000000000E+01 0.  0.
          4    1    1    2  501    0  0.49789719170E+02 -0.38067301806E+02  0.19754408162E+03  0.20725205110E+03  0.12700000000E+01 0.  1.
<mgrwt>
<rscale>  1 0.13983368E+03</rscale>
<asrwt>0</asrwt>
<pdfrwt beam="1">  1       21 0.59270381E-01 0.13983368E+03</pdfrwt>
<pdfrwt beam="2">  1        4 0.48593961E-02 0.13983368E+03</pdfrwt>
<totfact> 0.27317058E+04</totfact>
</mgrwt>
</event>
<event>
 6    3  0.3813045E-003  0.1414680E+03  0.7818608E-02  0.1211367E+00
         21   -1    0    0  501  502  0.00000000000E+00  0.00000000000E+00  0.11551140380E+03  0.11551140380E+03  0.00000000000E+00 0. -1.
          4   -1    0    0  502    0 -0.00000000000E+00 -0.00000000000E+00 -0.18259216681E+03  0.18259658344E+03  0.12700000000E+01 0.  1.
         25    2    1    2    0    0 -0.11922175527E+02  0.65161775720E+02 -0.14038282061E+03  0.19930009366E+03  0.12499998291E+03 0.  0.
    9000005    1    3    3    0    0 -0.24003910582E+02 -0.86383572280E+01 -0.11872369915E+03  0.12143774405E+03  0.10000000000E+01 0.  0.
    9000005    1    3    3    0    0  0.12081735055E+02  0.73800132948E+02 -0.21659121459E+02  0.77862349614E+02  0.10000000000E+01 0.  0.
          4    1    1    2  501    0  0.11922175527E+02 -0.65161775720E+02  0.73302057597E+02  0.98807893573E+02  0.12700000000E+01 0. -1.
<mgrwt>
<rscale>  1 0.14146799E+03</rscale>
<asrwt>0</asrwt>
<pdfrwt beam="1">  1       21 0.17770985E-01 0.14146799E+03</pdfrwt>
<pdfrwt beam="2">  1        4 0.28091979E-01 0.14146799E+03</pdfrwt>
<totfact> 0.14208828E+04</totfact>
</mgrwt>
</event>
<event>
 6    3  0.3813045E-003  0.1341547E+03  0.7818608E-02  0.1221418E+00
          4   -1    0    0  502    0 -0.00000000000E+00  0.00000000000E+00  0.21433378910E+03  0.21433755166E+03  0.12700000000E+01 0.  1.
         21   -1    0    0  501  502  0.00000000000E+00 -0.00000000000E+00 -0.45136004797E+02  0.45136004797E+02  0.00000000000E+00 0. -1.
         25    2    1    2    0    0 -0.40496937571E+02  0.27076690852E+02  0.16180184236E+03  0.21018398355E+03  0.12499728641E+03 0.  0.
    9000005    1    3    3    0    0  0.17216148724E+02  0.38361262324E+02  0.14204315770E+03  0.14813926175E+03  0.10000000000E+01 0.  0.
    9000005    1    3    3    0    0 -0.57713086295E+02 -0.11284571472E+02  0.19758684661E+02  0.62044721794E+02  0.10000000000E+01 0.  0.
          4    1    1    2  501    0  0.40496937571E+02 -0.27076690852E+02  0.73959419466E+01  0.49289572907E+02  0.12700000000E+01 0. -1.
<mgrwt>
<rscale>  1 0.13415465E+03</rscale>
<asrwt>0</asrwt>
<pdfrwt beam="2">  1       21 0.69440009E-02 0.13415465E+03</pdfrwt>
<pdfrwt beam="1">  1        4 0.32976092E-01 0.13415465E+03</pdfrwt>
<totfact> 0.54889835E+04</totfact>
</mgrwt>
</event>
<event>
 6    3  0.3813045E-003  0.1276569E+03  0.7818608E-02  0.1230974E+00
         21   -1    0    0  501  502  0.00000000000E+00  0.00000000000E+00  0.29689493795E+03  0.29689493795E+03  0.00000000000E+00 0.  1.
         -4   -1    0    0    0  501 -0.00000000000E+00 -0.00000000000E+00 -0.21325935965E+02  0.21363717953E+02  0.12700000000E+01 0.  1.
         25    2    1    2    0    0  0.19378100475E+02 -0.17159454322E+02  0.25501542521E+03  0.28518268171E+03  0.12500534869E+03 0.  0.
    9000005    1    3    3    0    0 -0.36726080081E+02  0.21552678660E+02  0.17478839440E+03  0.17990360122E+03  0.10000000000E+01 0.  0.
    9000005    1    3    3    0    0  0.56104180555E+02 -0.38712132983E+02  0.80227030813E+02  0.10527908049E+03  0.10000000000E+01 0.  0.
         -4    1    1    2    0  502 -0.19378100475E+02  0.17159454322E+02  0.20553576773E+02  0.33075974193E+02  0.12700000000E+01 0. -1.
<mgrwt>
<rscale>  1 0.12765694E+03</rscale>
<asrwt>0</asrwt>
<pdfrwt beam="1">  1       21 0.45676141E-01 0.12765694E+03</pdfrwt>
<pdfrwt beam="2">  1       -4 0.32840287E-02 0.12765694E+03</pdfrwt>
<totfact> 0.86617962E+04</totfact>
</mgrwt>
</event>
<event>
 6    3  0.3813045E-003  0.1270807E+03  0.7818608E-02  0.1231853E+00
         21   -1    0    0  501  502  0.00000000000E+00  0.00000000000E+00  0.64330714981E+01  0.64330714981E+01  0.00000000000E+00 0. -1.
         -4   -1    0    0    0  501 -0.00000000000E+00 -0.00000000000E+00 -0.92064757049E+03  0.92064844644E+03  0.12700000000E+01 0.  1.
         25    2    1    2    0    0  0.19248887999E+02  0.12396016763E+02 -0.83499901746E+03  0.84461403141E+03  0.12500128792E+03 0.  0.
    9000005    1    3    3    0    0 -0.26731326973E+01  0.65025916307E+02 -0.32624770116E+03  0.33267713769E+03  0.10000000000E+01 0.  0.
    9000005    1    3    3    0    0  0.21922020697E+02 -0.52629899544E+02 -0.50875131630E+03  0.51193689373E+03  0.10000000000E+01 0.  0.
         -4    1    1    2    0  502 -0.19248887999E+02 -0.12396016763E+02 -0.79215481528E+02  0.82467486530E+02  0.12700000000E+01 0. -1.
<mgrwt>
<rscale>  1 0.12708069E+03</rscale>
<asrwt>0</asrwt>
<pdfrwt beam="1">  1       21 0.98970308E-03 0.12708069E+03</pdfrwt>
<pdfrwt beam="2">  1       -4 0.14164783E+00 0.12708069E+03</pdfrwt>
<totfact> 0.56162650E+04</totfact>
</mgrwt>
</event>
<event>
 6    3  0.3813045E-003  0.1266038E+03  0.7818608E-02  0.1232584E+00
          4   -1    0    0  502    0 -0.00000000000E+00  0.00000000000E+00  0.10718436281E+03  0.10719188650E+03  0.12700000000E+01 0.  1.
         21   -1    0    0  501  502  0.00000000000E+00 -0.00000000000E+00 -0.18243723885E+03  0.18243723885E+03  0.00000000000E+00 0. -1.
         25    2    1    2    0    0 -0.16812265533E+02  0.10884996755E+02  0.68864683370E+02  0.14412098380E+03  0.12500951136E+03 0.  0.
    9000005    1    3    3    0    0 -0.43668711839E+02  0.56781811174E+02  0.51288060032E+02  0.88105593329E+02  0.10000000000E+01 0.  0.
    9000005    1    3    3    0    0  0.26856446306E+02 -0.45896814419E+02  0.17576623338E+02  0.56015390474E+02  0.10000000000E+01 0.  0.
          4    1    1    2  501    0  0.16812265533E+02 -0.10884996755E+02 -0.14411755941E+03  0.14550814155E+03  0.12700000000E+01 0. -1.
<mgrwt>
<rscale>  1 0.12660377E+03</rscale>
<asrwt>0</asrwt>
<pdfrwt beam="2">  1       21 0.28067267E-01 0.12660377E+03</pdfrwt>
<pdfrwt beam="1">  1        4 0.16490821E-01 0.12660377E+03</pdfrwt>
<totfact> 0.15724849E+04</totfact>
</mgrwt>
</event>
<event>
 6    3  0.3813045E-003  0.1497814E+03  0.7818608E-02  0.1200742E+00
          4   -1    0    0  502    0 -0.00000000000E+00  0.00000000000E+00  0.23763623722E+02  0.23797535847E+02  0.12700000000E+01 0.  1.
         21   -1    0    0  501  502  0.00000000000E+00 -0.00000000000E+00 -0.57233729361E+03  0.57233729361E+03  0.00000000000E+00 0. -1.
         25    2    1    2    0    0  0.34061323474E+02 -0.75158780375E+02 -0.37970608662E+03  0.40818034134E+03  0.12500185125E+03 0.  0.
    9000005    1    3    3    0    0  0.59062993114E+02 -0.58660826227E+02 -0.36577609310E+03  0.37513021736E+03  0.10000000000E+01 0.  0.
    9000005    1    3    3    0    0 -0.25001669640E+02 -0.16497954148E+02 -0.13929993517E+02  0.33050123983E+02  0.10000000000E+01 0.  0.
          4    1    1    2  501    0 -0.34061323474E+02  0.75158780375E+02 -0.16886758327E+03  0.18795448811E+03  0.12700000000E+01 0. -1.
<mgrwt>
<rscale>  1 0.14978144E+03</rscale>
<asrwt>0</asrwt>
<pdfrwt beam="2">  1       21 0.88051896E-01 0.14978144E+03</pdfrwt>
<pdfrwt beam="1">  1        4 0.36586589E-02 0.14978144E+03</pdfrwt>
<totfact> 0.18070085E+04</totfact>
</mgrwt>
</event>
<event>
 6    3  0.3813045E-003  0.1266939E+03  0.7818608E-02  0.1232445E+00
         21   -1    0    0  501  502  0.00000000000E+00  0.00000000000E+00  0.20666969284E+03  0.20666969284E+03  0.00000000000E+00 0.  1.
          4   -1    0    0  502    0 -0.00000000000E+00 -0.00000000000E+00 -0.10181825499E+03  0.10182617517E+03  0.12700000000E+01 0. -1.
         25    2    1    2    0    0 -0.66448979534E+01  0.19619318232E+02 -0.61516166272E+02  0.14083888211E+03  0.12498911827E+03 0.  0.
    9000005    1    3    3    0    0  0.50197118731E+02  0.20566213293E+02 -0.64028410157E+02  0.83924711291E+02  0.10000000000E+01 0.  0.
    9000005    1    3    3    0    0 -0.56842016685E+02 -0.94689506114E+00  0.25122438848E+01  0.56914170822E+02  0.10000000000E+01 0.  0.
          4    1    1    2  501    0  0.66448979534E+01 -0.19619318232E+02  0.16636760413E+03  0.16765698590E+03  0.12700000000E+01 0.  1.
<mgrwt>
<rscale>  1 0.12669393E+03</rscale>
<asrwt>0</asrwt>
<pdfrwt beam="1">  1       21 0.31795337E-01 0.12669393E+03</pdfrwt>
<pdfrwt beam="2">  1        4 0.15665256E-01 0.12669393E+03</pdfrwt>
<totfact> 0.13532784E+04</totfact>
</mgrwt>
</event>
<event>
 6    3  0.3813045E-003  0.1421669E+03  0.7818608E-02  0.1210443E+00
          4   -1    0    0  502    0 -0.00000000000E+00  0.00000000000E+00  0.16771980036E+03  0.16772460861E+03  0.12700000000E+01 0.  1.
         21   -1    0    0  501  502  0.00000000000E+00 -0.00000000000E+00 -0.13751899789E+03  0.13751899789E+03  0.00000000000E+00 0. -1.
         25    2    1    2    0    0  0.49138473618E+02 -0.46608922711E+02  0.12460930611E+03  0.18904739432E+03  0.12499782743E+03 0.  0.
    9000005    1    3    3    0    0  0.79077681119E+02  0.96476132055E+00  0.43218800004E+02  0.90128103771E+02  0.10000000000E+01 0.  0.
    9000005    1    3    3    0    0 -0.29939207500E+02 -0.47573684032E+02  0.81390506110E+02  0.98919290550E+02  0.10000000000E+01 0.  0.
          4    1    1    2  501    0 -0.49138473618E+02  0.46608922711E+02 -0.94408503637E+02  0.11619621218E+03  0.12700000000E+01 0. -1.
<mgrwt>
<rscale>  1 0.14216694E+03</rscale>
<asrwt>0</asrwt>
<pdfrwt beam="2">  1       21 0.21156769E-01 0.14216694E+03</pdfrwt>
<pdfrwt beam="1">  1        4 0.25803867E-01 0.14216694E+03</pdfrwt>
<totfact> 0.12066737E+04</totfact>
</mgrwt>
</event>
<event>
 6    3  0.3813045E-003  0.1311470E+03  0.7818608E-02  0.1225764E+00
          4   -1    0    0  502    0 -0.00000000000E+00  0.00000000000E+00  0.21000433833E+02  0.21038800374E+02  0.12700000000E+01 0.  1.
         21   -1    0    0  501  502  0.00000000000E+00 -0.00000000000E+00 -0.86176432959E+03  0.86176432959E+03  0.00000000000E+00 0. -1.
         25    2    1    2    0    0  0.13239669093E+02  0.37350346217E+02 -0.19019606842E+03  0.23102828535E+03  0.12501674684E+03 0.  0.
    9000005    1    3    3    0    0  0.31307466006E+02 -0.19815187171E+01 -0.18474449033E+03  0.18739159680E+03  0.10000000000E+01 0.  0.
    9000005    1    3    3    0    0 -0.18067796913E+02  0.39331864934E+02 -0.54515780927E+01  0.43636688556E+02  0.10000000000E+01 0.  0.
          4    1    1    2  501    0 -0.13239669093E+02 -0.37350346217E+02 -0.65056782733E+03  0.65177484461E+03  0.12700000000E+01 0. -1.
<mgrwt>
<rscale>  1 0.13114696E+03</rscale>
<asrwt>0</asrwt>
<pdfrwt beam="2">  1       21 0.13257914E+00 0.13114696E+03</pdfrwt>
<pdfrwt beam="1">  1        4 0.32338588E-02 0.13114696E+03</pdfrwt>
<totfact> 0.81908499E+03</totfact>
</mgrwt>
</event>
<event>
 6    3  0.3813045E-003  0.1301360E+03  0.7818608E-02  0.1227254E+00
          4   -1    0    0  502    0 -0.00000000000E+00  0.00000000000E+00  0.53983274514E+03  0.53983423903E+03  0.12700000000E+01 0. -1.
         21   -1    0    0  501  502  0.00000000000E+00 -0.00000000000E+00 -0.32360594068E+02  0.32360594068E+02  0.00000000000E+00 0.  1.
         25    2    1    2    0    0 -0.10630450299E+02 -0.34603315275E+02  0.51830131143E+03  0.53438901985E+03  0.12499991680E+03 0.  0.
    9000005    1    3    3    0    0  0.21377761734E+02  0.33052245508E+02  0.32030658102E+03  0.32271777991E+03  0.10000000000E+01 0.  0.
    9000005    1    3    3    0    0 -0.32008212033E+02 -0.67655560783E+02  0.19799473041E+03  0.21167123993E+03  0.10000000000E+01 0.  0.
          4    1    1    2  501    0  0.10630450299E+02  0.34603315275E+02 -0.10829160356E+02  0.37805813251E+02  0.12700000000E+01 0.  1.
<mgrwt>
<rscale>  1 0.13013599E+03</rscale>
<asrwt>0</asrwt>
<pdfrwt beam="2">  1       21 0.49785533E-02 0.13013599E+03</pdfrwt>
<pdfrwt beam="1">  1        4 0.83053217E-01 0.13013599E+03</pdfrwt>
<totfact> 0.14378086E+04</totfact>
</mgrwt>
</event>
<event>
 6    3  0.3813045E-003  0.1269240E+03  0.7818608E-02  0.1232093E+00
         21   -1    0    0  501  502  0.00000000000E+00  0.00000000000E+00  0.51034775487E+03  0.51034775487E+03  0.00000000000E+00 0. -1.
         -4   -1    0    0    0  501 -0.00000000000E+00 -0.00000000000E+00 -0.28227499571E+02  0.28256054785E+02  0.12700000000E+01 0.  1.
         25    2    1    2    0    0  0.97758493803E+01 -0.19706256348E+02  0.11638925849E+03  0.17220965210E+03  0.12500320401E+03 0.  0.
    9000005    1    3    3    0    0  0.43765654482E+02  0.17396059497E+02  0.11222393439E+03  0.12170976480E+03  0.10000000000E+01 0.  0.
    9000005    1    3    3    0    0 -0.33989805101E+02 -0.37102315845E+02  0.41653241060E+01  0.50499887295E+02  0.10000000000E+01 0.  0.
         -4    1    1    2    0  502 -0.97758493803E+01  0.19706256348E+02  0.36573099680E+03  0.36639415756E+03  0.12700000000E+01 0. -1.
<mgrwt>
<rscale>  1 0.12692401E+03</rscale>
<asrwt>0</asrwt>
<pdfrwt beam="1">  1       21 0.78515032E-01 0.12692401E+03</pdfrwt>
<pdfrwt beam="2">  1       -4 0.43450107E-02 0.12692401E+03</pdfrwt>
<totfact> 0.17586378E+04</totfact>
</mgrwt>
</event>
<event>
 6    3  0.3813045E-003  0.1266018E+03  0.7818608E-02  0.1232587E+00
         -4   -1    0    0    0  501 -0.00000000000E+00  0.00000000000E+00  0.52326743740E+03  0.52326897858E+03  0.12700000000E+01 0. -1.
         21   -1    0    0  501  502  0.00000000000E+00 -0.00000000000E+00 -0.10615293314E+02  0.10615293314E+02  0.00000000000E+00 0. -1.
         25    2    1    2    0    0 -0.19543280948E+02 -0.46124292432E+01  0.46953685824E+03  0.48630533636E+03  0.12499921833E+03 0.  0.
    9000005    1    3    3    0    0  0.48376109341E+01  0.38644229745E+02  0.39389127682E+03  0.39581323490E+03  0.10000000000E+01 0.  0.
    9000005    1    3    3    0    0 -0.24380891882E+02 -0.43256658988E+02  0.75645581428E+02  0.90492101453E+02  0.10000000000E+01 0.  0.
         -4    1    1    2    0  502  0.19543280948E+02  0.46124292432E+01  0.43115285843E+02  0.47578935539E+02  0.12700000000E+01 0.  1.
<mgrwt>
<rscale>  1 0.12660181E+03</rscale>
<asrwt>0</asrwt>
<pdfrwt beam="2">  1       21 0.16331225E-02 0.12660181E+03</pdfrwt>
<pdfrwt beam="1">  1       -4 0.80508625E-01 0.12660181E+03</pdfrwt>
<totfact> 0.95247207E+04</totfact>
</mgrwt>
</event>
<event>
 6    3  0.3813045E-003  0.1319224E+03  0.7818608E-02  0.1224631E+00
         -4   -1    0    0    0  501 -0.00000000000E+00  0.00000000000E+00  0.22883601701E+02  0.22918816000E+02  0.12700000000E+01 0. -1.
         21   -1    0    0  501  502  0.00000000000E+00 -0.00000000000E+00 -0.36594524636E+03  0.36594524636E+03  0.00000000000E+00 0. -1.
         25    2    1    2    0    0 -0.28199336545E+02 -0.31354457450E+02 -0.19903417495E+03  0.23878465167E+03  0.12500080996E+03 0.  0.
    9000005    1    3    3    0    0 -0.41447249633E+02 -0.74949216486E+02 -0.14126101383E+03  0.16519967791E+03  0.10000000000E+01 0.  0.
    9000005    1    3    3    0    0  0.13247913088E+02  0.43594759036E+02 -0.57773161124E+02  0.73584973757E+02  0.10000000000E+01 0.  0.
         -4    1    1    2    0  502  0.28199336545E+02  0.31354457450E+02 -0.14402746970E+03  0.15007941069E+03  0.12700000000E+01 0.  1.
<mgrwt>
<rscale>  1 0.13192235E+03</rscale>
<asrwt>0</asrwt>
<pdfrwt beam="2">  1       21 0.56299267E-01 0.13192235E+03</pdfrwt>
<pdfrwt beam="1">  1       -4 0.35234325E-02 0.13192235E+03</pdfrwt>
<totfact> 0.50507562E+04</totfact>
</mgrwt>
</event>
<event>
 6    3  0.3813045E-003  0.1444797E+03  0.7818608E-02  0.1207425E+00
         21   -1    0    0  501  502  0.00000000000E+00  0.00000000000E+00  0.10370305179E+03  0.10370305179E+03  0.00000000000E+00 0.  1.
          4   -1    0    0  502    0 -0.00000000000E+00 -0.00000000000E+00 -0.17709075999E+03  0.17709531381E+03  0.12700000000E+01 0.  1.
         25    2    1    2    0    0 -0.21918552927E+02 -0.69057173107E+02 -0.12563447383E+03  0.19146386197E+03  0.12500029323E+03 0.  0.
    9000005    1    3    3    0    0 -0.49543901109E+02 -0.31513081345E+02 -0.13193740738E+03  0.14441659149E+03  0.10000000000E+01 0.  0.
    9000005    1    3    3    0    0  0.27625348182E+02 -0.37544091762E+02  0.63029335480E+01  0.47047270481E+02  0.10000000000E+01 0.  0.
          4    1    1    2  501    0  0.21918552927E+02  0.69057173107E+02  0.52246765628E+02  0.89334503629E+02  0.12700000000E+01 0. -1.
<mgrwt>
<rscale>  1 0.14447972E+03</rscale>
<asrwt>0</asrwt>
<pdfrwt beam="1">  1       21 0.15954316E-01 0.14447972E+03</pdfrwt>
<pdfrwt beam="2">  1        4 0.27245680E-01 0.14447972E+03</pdfrwt>
<totfact> 0.18353601E+04</totfact>
</mgrwt>
</event>
<event>
 6    3  0.3813045E-003  0.1277378E+03  0.7818608E-02  0.1230852E+00
         21   -1    0    0  501  502  0.00000000000E+00  0.00000000000E+00  0.51564107343E+01  0.51564107343E+01  0.00000000000E+00 0.  1.
         -4   -1    0    0    0  501 -0.00000000000E+00 -0.00000000000E+00 -0.11512619525E+04  0.11512626530E+04  0.12700000000E+01 0.  1.
         25    2    1    2    0    0  0.20725153675E+02  0.16201188866E+02 -0.94198414698E+03  0.95060563553E+03  0.12499972252E+03 0.  0.
    9000005    1    3    3    0    0 -0.14192785863E+02 -0.10551380641E+02 -0.83141311644E+03  0.83160178992E+03  0.10000000000E+01 0.  0.
    9000005    1    3    3    0    0  0.34917939538E+02  0.26752569507E+02 -0.11057103054E+03  0.11900384561E+03  0.10000000000E+01 0.  0.
         -4    1    1    2    0  502 -0.20725153675E+02 -0.16201188866E+02 -0.20412139483E+03  0.20581342824E+03  0.12700000000E+01 0. -1.
<mgrwt>
<rscale>  1 0.12773778E+03</rscale>
<asrwt>0</asrwt>
<pdfrwt beam="1">  1       21 0.79329374E-03 0.12773778E+03</pdfrwt>
<pdfrwt beam="2">  1       -4 0.17712936E+00 0.12773778E+03</pdfrwt>
<totfact> 0.44551801E+04</totfact>
</mgrwt>
</event>
<event>
 6    3  0.3813045E-003  0.1376773E+03  0.7818608E-02  0.1216489E+00
          4   -1    0    0  502    0 -0.00000000000E+00  0.00000000000E+00  0.27518443570E+03  0.27518736627E+03  0.12700000000E+01 0. -1.
         21   -1    0    0  501  502  0.00000000000E+00 -0.00000000000E+00 -0.35548527558E+02  0.35548527558E+02  0.00000000000E+00 0. -1.
         25    2    1    2    0    0 -0.49770555713E+02  0.29204492179E+02  0.14549922113E+03  0.20031243925E+03  0.12500015755E+03 0.  0.
    9000005    1    3    3    0    0 -0.67518251394E+02  0.65060636189E+02  0.78590166037E+02  0.12234792540E+03  0.10000000000E+01 0.  0.
    9000005    1    3    3    0    0  0.17747695681E+02 -0.35856144009E+02  0.66909055096E+02  0.77964513845E+02  0.10000000000E+01 0.  0.
          4    1    1    2  501    0  0.49770555713E+02 -0.29204492179E+02  0.94136687012E+02  0.11042345458E+03  0.12700000000E+01 0.  1.
<mgrwt>
<rscale>  1 0.13767734E+03</rscale>
<asrwt>0</asrwt>
<pdfrwt beam="2">  1       21 0.54690045E-02 0.13767734E+03</pdfrwt>
<pdfrwt beam="1">  1        4 0.42338036E-01 0.13767734E+03</pdfrwt>
<totfact> 0.50785792E+04</totfact>
</mgrwt>
</event>
<event>
 6    3  0.3813045E-003  0.1289214E+03  0.7818608E-02  0.1229065E+00
         -4   -1    0    0    0  501 -0.00000000000E+00  0.00000000000E+00  0.95803418412E+03  0.95803502589E+03  0.12700000000E+01 0. -1.
         21   -1    0    0  501  502  0.00000000000E+00 -0.00000000000E+00 -0.13499079381E+02  0.13499079381E+02  0.00000000000E+00 0. -1.
         25    2    1    2    0    0 -0.11797201744E+02  0.29256933246E+02  0.92598455810E+03  0.93491610707E+03  0.12500233320E+03 0.  0.
    9000005    1    3    3    0    0 -0.13403645384E+02  0.65970616358E+02  0.81956504731E+03  0.82232575462E+03  0.10000000000E+01 0.  0.
    9000005    1    3    3    0    0  0.16064436399E+01 -0.36713683112E+02  0.10641951079E+03  0.11259035245E+03  0.10000000000E+01 0.  0.
         -4    1    1    2    0  502  0.11797201744E+02 -0.29256933246E+02  0.18550546635E+02  0.36617998203E+02  0.12700000000E+01 0.  1.
<mgrwt>
<rscale>  1 0.12892139E+03</rscale>
<asrwt>0</asrwt>
<pdfrwt beam="2">  1       21 0.20767822E-02 0.12892139E+03</pdfrwt>
<pdfrwt beam="1">  1       -4 0.14739448E+00 0.12892139E+03</pdfrwt>
<totfact> 0.15612213E+04</totfact>
</mgrwt>
</event>
<event>
 6    3  0.3813045E-003  0.1324431E+03  0.7818608E-02  0.1223875E+00
         -4   -1    0    0    0  501 -0.00000000000E+00  0.00000000000E+00  0.34947828267E+02  0.34970896479E+02  0.12700000000E+01 0. -1.
         21   -1    0    0  501  502  0.00000000000E+00 -0.00000000000E+00 -0.22971794251E+03  0.22971794251E+03  0.00000000000E+00 0.  1.
         25    2    1    2    0    0  0.28669883214E+02  0.33075541457E+02 -0.12378828354E+03  0.18128628006E+03  0.12500089019E+03 0.  0.
    9000005    1    3    3    0    0  0.54319679996E+02 -0.22570178315E+02 -0.22668490145E+02  0.63046816173E+02  0.10000000000E+01 0.  0.
    9000005    1    3    3    0    0 -0.25649796782E+02  0.55645719772E+02 -0.10111979339E+03  0.11823946388E+03  0.10000000000E+01 0.  0.
         -4    1    1    2    0  502 -0.28669883214E+02 -0.33075541457E+02 -0.70981830711E+02  0.83402558937E+02  0.12700000000E+01 0.  1.
<mgrwt>
<rscale>  1 0.13244311E+03</rscale>
<asrwt>0</asrwt>
<pdfrwt beam="2">  1       21 0.35341222E-01 0.13244311E+03</pdfrwt>
<pdfrwt beam="1">  1       -4 0.53786335E-02 0.13244311E+03</pdfrwt>
<totfact> 0.66299074E+04</totfact>
</mgrwt>
</event>
<event>
 6    3  0.3813045E-003  0.1692823E+03  0.7818608E-02  0.1178598E+00
         21   -1    0    0  501  502  0.00000000000E+00  0.00000000000E+00  0.13857380077E+03  0.13857380077E+03  0.00000000000E+00 0. -1.
          4   -1    0    0  502    0 -0.00000000000E+00 -0.00000000000E+00 -0.14579480879E+03  0.14580034009E+03  0.12700000000E+01 0.  1.
         25    2    1    2    0    0  0.12859545856E+02 -0.11343591856E+03 -0.14963172334E+02  0.16994237277E+03  0.12499375183E+03 0.  0.
    9000005    1    3    3    0    0  0.35558561409E+02 -0.21670686117E+02  0.42340284616E+02  0.59394693598E+02  0.10000000000E+01 0.  0.
    9000005    1    3    3    0    0 -0.22699015553E+02 -0.91765232441E+02 -0.57303456949E+02  0.11054767917E+03  0.10000000000E+01 0.  0.
          4    1    1    2  501    0 -0.12859545856E+02  0.11343591856E+03  0.77421643128E+01  0.11443176808E+03  0.12700000000E+01 0. -1.
<mgrwt>
<rscale>  1 0.16928235E+03</rscale>
<asrwt>0</asrwt>
<pdfrwt beam="1">  1       21 0.21319046E-01 0.16928235E+03</pdfrwt>
<pdfrwt beam="2">  1        4 0.22430844E-01 0.16928235E+03</pdfrwt>
<totfact> 0.15616691E+04</totfact>
</mgrwt>
</event>
<event>
 6    3  0.3813045E-003  0.2216180E+03  0.7818608E-02  0.1132683E+00
         21   -1    0    0  501  502  0.00000000000E+00  0.00000000000E+00  0.48249137282E+03  0.48249137282E+03  0.00000000000E+00 0. -1.
         -4   -1    0    0    0  501 -0.00000000000E+00 -0.00000000000E+00 -0.89736353015E+02  0.89745339446E+02  0.12700000000E+01 0.  1.
         25    2    1    2    0    0  0.63773585434E+02 -0.17151697591E+03  0.14742013991E+03  0.26617142606E+03  0.12501754747E+03 0.  0.
    9000005    1    3    3    0    0  0.32076773208E+02 -0.69098007228E+02  0.13914373707E+03  0.15863616721E+03  0.10000000000E+01 0.  0.
    9000005    1    3    3    0    0  0.31696812226E+02 -0.10241896868E+03  0.82764028397E+01  0.10753525885E+03  0.10000000000E+01 0.  0.
         -4    1    1    2    0  502 -0.63773585434E+02  0.17151697591E+03  0.24533487989E+03  0.30606528620E+03  0.12700000000E+01 0. -1.
<mgrwt>
<rscale>  1 0.22161798E+03</rscale>
<asrwt>0</asrwt>
<pdfrwt beam="1">  1       21 0.74229441E-01 0.22161798E+03</pdfrwt>
<pdfrwt beam="2">  1       -4 0.13806413E-01 0.22161798E+03</pdfrwt>
<totfact> 0.29882474E+03</totfact>
</mgrwt>
</event>
<event>
 6    3  0.3813045E-003  0.1307962E+03  0.7818608E-02  0.1226279E+00
         -4   -1    0    0    0  501 -0.00000000000E+00  0.00000000000E+00  0.14258258147E+02  0.14314706612E+02  0.12700000000E+01 0. -1.
         21   -1    0    0  501  502  0.00000000000E+00 -0.00000000000E+00 -0.58240059296E+03  0.58240059296E+03  0.00000000000E+00 0.  1.
         25    2    1    2    0    0 -0.30405250463E+02 -0.23613578125E+02 -0.32157173152E+03  0.34715417352E+03  0.12500224539E+03 0.  0.
    9000005    1    3    3    0    0 -0.18331150230E+02 -0.29452957623E+02 -0.11167165140E+02  0.36458378443E+02  0.10000000000E+01 0.  0.
    9000005    1    3    3    0    0 -0.12074100233E+02  0.58393794975E+01 -0.31040456638E+03  0.31069579507E+03  0.10000000000E+01 0.  0.
         -4    1    1    2    0  502  0.30405250463E+02  0.23613578125E+02 -0.24657060330E+03  0.24956112606E+03  0.12700000000E+01 0.  1.
<mgrwt>
<rscale>  1 0.13079618E+03</rscale>
<asrwt>0</asrwt>
<pdfrwt beam="2">  1       21 0.89600088E-01 0.13079618E+03</pdfrwt>
<pdfrwt beam="1">  1       -4 0.21980270E-02 0.13079618E+03</pdfrwt>
<totfact> 0.38099830E+04</totfact>
</mgrwt>
</event>
<event>
 6    3  0.3813045E-003  0.1270747E+03  0.7818608E-02  0.1231862E+00
         21   -1    0    0  501  502  0.00000000000E+00  0.00000000000E+00  0.20316945831E+02  0.20316945831E+02  0.00000000000E+00 0.  1.
         -4   -1    0    0    0  501 -0.00000000000E+00 -0.00000000000E+00 -0.27694445105E+03  0.27694736299E+03  0.12700000000E+01 0.  1.
         25    2    1    2    0    0  0.21816849029E+02  0.69086261320E+01 -0.21963441833E+03  0.25374643440E+03  0.12499708492E+03 0.  0.
    9000005    1    3    3    0    0  0.32554993088E+02  0.44666942551E+02 -0.36020876867E+02  0.65980807074E+02  0.10000000000E+01 0.  0.
    9000005    1    3    3    0    0 -0.10738144060E+02 -0.37758316419E+02 -0.18361354146E+03  0.18776562733E+03  0.10000000000E+01 0.  0.
         -4    1    1    2    0  502 -0.21816849029E+02 -0.69086261320E+01 -0.36993086889E+02  0.43517874422E+02  0.12700000000E+01 0. -1.
<mgrwt>
<rscale>  1 0.12707468E+03</rscale>
<asrwt>0</asrwt>
<pdfrwt beam="1">  1       21 0.31256839E-02 0.12707468E+03</pdfrwt>
<pdfrwt beam="2">  1       -4 0.42610116E-01 0.12707468E+03</pdfrwt>
<totfact> 0.12588659E+05</totfact>
</mgrwt>
</event>
<event>
 6    3  0.3813045E-003  0.1270260E+03  0.7818608E-02  0.1231937E+00
         21   -1    0    0  501  502  0.00000000000E+00  0.00000000000E+00  0.10170652434E+02  0.10170652434E+02  0.00000000000E+00 0. -1.
         -4   -1    0    0    0  501 -0.00000000000E+00 -0.00000000000E+00 -0.74342150844E+03  0.74342259322E+03  0.12700000000E+01 0.  1.
         25    2    1    2    0    0  0.24053337712E+00  0.22596120402E+02 -0.70951508197E+03  0.72079625826E+03  0.12499980742E+03 0.  0.
    9000005    1    3    3    0    0 -0.32545955768E+01 -0.36443982846E+02 -0.54033547953E+03  0.54157380542E+03  0.10000000000E+01 0.  0.
    9000005    1    3    3    0    0  0.34951289539E+01  0.59040103248E+02 -0.16917960244E+03  0.17922245284E+03  0.10000000000E+01 0.  0.
         -4    1    1    2    0  502 -0.24053337712E+00 -0.22596120402E+02 -0.23735774036E+02  0.32796987401E+02  0.12700000000E+01 0. -1.
<mgrwt>
<rscale>  1 0.12702596E+03</rscale>
<asrwt>0</asrwt>
<pdfrwt beam="1">  1       21 0.15647161E-02 0.12702596E+03</pdfrwt>
<pdfrwt beam="2">  1       -4 0.11437870E+00 0.12702596E+03</pdfrwt>
<totfact> 0.45685938E+04</totfact>
</mgrwt>
</event>
<event>
 6    3  0.3813045E-003  0.1276955E+03  0.7818608E-02  0.1230916E+00
         21   -1    0    0  501  502  0.00000000000E+00  0.00000000000E+00  0.11225110328E+03  0.11225110328E+03  0.00000000000E+00 0. -1.
         -4   -1    0    0    0  501 -0.00000000000E+00 -0.00000000000E+00 -0.13741814826E+03  0.13742401672E+03  0.12700000000E+01 0.  1.
         25    2    1    2    0    0 -0.22523806823E+02 -0.13157784401E+02 -0.10522545905E+03  0.16546459970E+03  0.12500274940E+03 0.  0.
    9000005    1    3    3    0    0 -0.59412233375E+01 -0.52629852194E+02 -0.12204475098E+01  0.52987630338E+02  0.10000000000E+01 0.  0.
    9000005    1    3    3    0    0 -0.16582583486E+02  0.39472067794E+02 -0.10400501154E+03  0.11247696936E+03  0.10000000000E+01 0.  0.
         -4    1    1    2    0  502  0.22523806823E+02  0.13157784401E+02  0.80058414073E+02  0.84210520293E+02  0.12700000000E+01 0. -1.
<mgrwt>
<rscale>  1 0.12769548E+03</rscale>
<asrwt>0</asrwt>
<pdfrwt beam="1">  1       21 0.17269401E-01 0.12769548E+03</pdfrwt>
<pdfrwt beam="2">  1       -4 0.21142258E-01 0.12769548E+03</pdfrwt>
<totfact> 0.25011672E+04</totfact>
</mgrwt>
</event>
<event>
 6    3  0.3813045E-003  0.1345126E+03  0.7818608E-02  0.1220909E+00
         21   -1    0    0  501  502  0.00000000000E+00  0.00000000000E+00  0.38631887980E+02  0.38631887980E+02  0.00000000000E+00 0. -1.
         -4   -1    0    0    0  501 -0.00000000000E+00 -0.00000000000E+00 -0.32415955662E+03  0.32416204443E+03  0.12700000000E+01 0.  1.
         25    2    1    2    0    0  0.20356948832E+01  0.49704755491E+02 -0.28255898957E+03  0.31294282683E+03  0.12497569165E+03 0.  0.
    9000005    1    3    3    0    0  0.14572531797E+02 -0.14965901233E+02 -0.22346390435E+03  0.22444031151E+03  0.10000000000E+01 0.  0.
    9000005    1    3    3    0    0 -0.12536836914E+02  0.64670656723E+02 -0.59095085223E+02  0.88502515322E+02  0.10000000000E+01 0.  0.
         -4    1    1    2    0  502 -0.20356948832E+01 -0.49704755491E+02 -0.29686790677E+01  0.49851105579E+02  0.12700000000E+01 0. -1.
<mgrwt>
<rscale>  1 0.13451257E+03</rscale>
<asrwt>0</asrwt>
<pdfrwt beam="1">  1       21 0.59433671E-02 0.13451257E+03</pdfrwt>
<pdfrwt beam="2">  1       -4 0.49872501E-01 0.13451257E+03</pdfrwt>
<totfact> 0.31652419E+04</totfact>
</mgrwt>
</event>
<event>
 6    3  0.3813045E-003  0.1294792E+03  0.7818608E-02  0.1228231E+00
         -4   -1    0    0    0  501 -0.00000000000E+00  0.00000000000E+00  0.13004485464E+03  0.13005105581E+03  0.12700000000E+01 0.  1.
         21   -1    0    0  501  502  0.00000000000E+00 -0.00000000000E+00 -0.51297537795E+02  0.51297537795E+02  0.00000000000E+00 0. -1.
         25    2    1    2    0    0 -0.16175937134E+02 -0.29658080227E+02  0.64626319157E+02  0.14471147936E+03  0.12499435373E+03 0.  0.
    9000005    1    3    3    0    0 -0.27460757652E+02  0.31294049728E+02 -0.14582465195E+02  0.44125492069E+02  0.10000000000E+01 0.  0.
    9000005    1    3    3    0    0  0.11284820518E+02 -0.60952129955E+02  0.79208784352E+02  0.10058598729E+03  0.10000000000E+01 0.  0.
         -4    1    1    2    0  502  0.16175937134E+02  0.29658080227E+02  0.14120997687E+02  0.36637114250E+02  0.12700000000E+01 0. -1.
<mgrwt>
<rscale>  1 0.12947915E+03</rscale>
<asrwt>0</asrwt>
<pdfrwt beam="2">  1       21 0.78919290E-02 0.12947915E+03</pdfrwt>
<pdfrwt beam="1">  1       -4 0.20008587E-01 0.12947915E+03</pdfrwt>
<totfact> 0.11065310E+05</totfact>
</mgrwt>
</event>
<event>
 6    3  0.3813045E-003  0.1289370E+03  0.7818608E-02  0.1229042E+00
         -4   -1    0    0    0  501 -0.00000000000E+00  0.00000000000E+00  0.25849519946E+03  0.25849831923E+03  0.12700000000E+01 0.  1.
         21   -1    0    0  501  502  0.00000000000E+00 -0.00000000000E+00 -0.65403055493E+02  0.65403055493E+02  0.00000000000E+00 0. -1.
         25    2    1    2    0    0 -0.21961681048E+02 -0.22822754035E+02  0.23696670185E+03  0.26977390235E+03  0.12498618750E+03 0.  0.
    9000005    1    3    3    0    0  0.50920152313E+02 -0.22636648761E+02  0.93432976163E+02  0.10879338589E+03  0.10000000000E+01 0.  0.
    9000005    1    3    3    0    0 -0.72881833361E+02 -0.18610527404E+00  0.14353372569E+03  0.16098051646E+03  0.10000000000E+01 0.  0.
         -4    1    1    2    0  502  0.21961681048E+02  0.22822754035E+02 -0.43874557883E+02  0.54127472375E+02  0.12700000000E+01 0. -1.
<mgrwt>
<rscale>  1 0.12893696E+03</rscale>
<asrwt>0</asrwt>
<pdfrwt beam="2">  1       21 0.10062009E-01 0.12893696E+03</pdfrwt>
<pdfrwt beam="1">  1       -4 0.39769680E-01 0.12893696E+03</pdfrwt>
<totfact> 0.20003325E+04</totfact>
</mgrwt>
</event>
<event>
 6    3  0.3813045E-003  0.1315980E+03  0.7818608E-02  0.1225104E+00
         21   -1    0    0  501  502  0.00000000000E+00  0.00000000000E+00  0.54541703268E+03  0.54541703268E+03  0.00000000000E+00 0. -1.
         -4   -1    0    0    0  501 -0.00000000000E+00 -0.00000000000E+00 -0.14867435190E+02  0.14921579311E+02  0.12700000000E+01 0. -1.
         25    2    1    2    0    0 -0.28138680982E+02 -0.30015013220E+02  0.32359750106E+03  0.34933276017E+03  0.12500139299E+03 0.  0.
    9000005    1    3    3    0    0  0.32229669557E+02 -0.52661861430E+02  0.10922423779E+03  0.12547094234E+03  0.10000000000E+01 0.  0.
    9000005    1    3    3    0    0 -0.60368350538E+02  0.22646848210E+02  0.21437326327E+03  0.22386181784E+03  0.10000000000E+01 0.  0.
         -4    1    1    2    0  502  0.28138680982E+02  0.30015013220E+02  0.20695209643E+03  0.21100585182E+03  0.12700000000E+01 0.  1.
<mgrwt>
<rscale>  1 0.13159800E+03</rscale>
<asrwt>0</asrwt>
<pdfrwt beam="1">  1       21 0.83910297E-01 0.13159800E+03</pdfrwt>
<pdfrwt beam="2">  1       -4 0.22915768E-02 0.13159800E+03</pdfrwt>
<totfact> 0.41484526E+04</totfact>
</mgrwt>
</event>
<event>
 6    3  0.3813045E-003  0.1273996E+03  0.7818608E-02  0.1231366E+00
         -4   -1    0    0    0  501 -0.00000000000E+00  0.00000000000E+00  0.15270191970E+03  0.15270720081E+03  0.12700000000E+01 0. -1.
         21   -1    0    0  501  502  0.00000000000E+00 -0.00000000000E+00 -0.40100946280E+02  0.40100946280E+02  0.00000000000E+00 0. -1.
         25    2    1    2    0    0 -0.18109420987E+02 -0.16654424148E+02  0.10947522493E+03  0.16797461783E+03  0.12500130555E+03 0.  0.
    9000005    1    3    3    0    0  0.35990915901E+02 -0.46025021757E+02  0.25275660653E+02  0.63667163252E+02  0.10000000000E+01 0.  0.
    9000005    1    3    3    0    0 -0.54100336888E+02  0.29370597609E+02  0.84199564277E+02  0.10430745457E+03  0.10000000000E+01 0.  0.
         -4    1    1    2    0  502  0.18109420987E+02  0.16654424148E+02  0.31257484902E+01  0.24833529266E+02  0.12700000000E+01 0.  1.
<mgrwt>
<rscale>  1 0.12739956E+03</rscale>
<asrwt>0</asrwt>
<pdfrwt beam="2">  1       21 0.61693765E-02 0.12739956E+03</pdfrwt>
<pdfrwt beam="1">  1       -4 0.23494556E-01 0.12739956E+03</pdfrwt>
<totfact> 0.12569741E+05</totfact>
</mgrwt>
</event>
<event>
 6    3  0.3813045E-003  0.1527362E+03  0.7818608E-02  0.1197151E+00
          4   -1    0    0  502    0 -0.00000000000E+00  0.00000000000E+00  0.67792276701E+03  0.67792395660E+03  0.12700000000E+01 0.  1.
         21   -1    0    0  501  502  0.00000000000E+00 -0.00000000000E+00 -0.29019659370E+02  0.29019659370E+02  0.00000000000E+00 0. -1.
         25    2    1    2    0    0 -0.74697318198E+02  0.46074657398E+02  0.56586346121E+03  0.58611415276E+03  0.12500311969E+03 0.  0.
    9000005    1    3    3    0    0 -0.67002774138E+02  0.86589088058E+02  0.36544521850E+03  0.38149475702E+03  0.10000000000E+01 0.  0.
    9000005    1    3    3    0    0 -0.76945440592E+01 -0.40514430660E+02  0.20041824271E+03  0.20461939574E+03  0.10000000000E+01 0.  0.
          4    1    1    2  501    0  0.74697318198E+02 -0.46074657398E+02  0.83039646432E+02  0.12082946321E+03  0.12700000000E+01 0. -1.
<mgrwt>
<rscale>  1 0.15273619E+03</rscale>
<asrwt>0</asrwt>
<pdfrwt beam="2">  1       21 0.44645635E-02 0.15273619E+03</pdfrwt>
<pdfrwt beam="1">  1        4 0.10429803E+00 0.15273619E+03</pdfrwt>
<totfact> 0.10426223E+04</totfact>
</mgrwt>
</event>
<event>
 6    3  0.3813045E-003  0.1266946E+03  0.7818608E-02  0.1232444E+00
         21   -1    0    0  501  502  0.00000000000E+00  0.00000000000E+00  0.25219104017E+03  0.25219104017E+03  0.00000000000E+00 0.  1.
         -4   -1    0    0    0  501 -0.00000000000E+00 -0.00000000000E+00 -0.42348369830E+02  0.42367408786E+02  0.12700000000E+01 0. -1.
         25    2    1    2    0    0  0.20572089535E+02 -0.13231159213E+01  0.54618669382E+02  0.13796641571E+03  0.12500628510E+03 0.  0.
    9000005    1    3    3    0    0  0.46213936084E+02 -0.52041546942E+02  0.34344011584E+02  0.77618049628E+02  0.10000000000E+01 0.  0.
    9000005    1    3    3    0    0 -0.25641846549E+02  0.50718431020E+02  0.20274657798E+02  0.60348366079E+02  0.10000000000E+01 0.  0.
         -4    1    1    2    0  502 -0.20572089535E+02  0.13231159213E+01  0.15522400096E+03  0.15659203325E+03  0.12700000000E+01 0.  1.
<mgrwt>
<rscale>  1 0.12669464E+03</rscale>
<asrwt>0</asrwt>
<pdfrwt beam="1">  1       21 0.38798621E-01 0.12669464E+03</pdfrwt>
<pdfrwt beam="2">  1       -4 0.65168445E-02 0.12669464E+03</pdfrwt>
<totfact> 0.40163769E+04</totfact>
</mgrwt>
</event>
<event>
 6    3  0.3813045E-003  0.1282100E+03  0.7818608E-02  0.1230136E+00
         -4   -1    0    0    0  501 -0.00000000000E+00  0.00000000000E+00  0.92114088195E+01  0.92985457164E+01  0.12700000000E+01 0. -1.
         21   -1    0    0  501  502  0.00000000000E+00 -0.00000000000E+00 -0.89062741015E+03  0.89062741015E+03  0.00000000000E+00 0. -1.
         25    2    1    2    0    0 -0.28002860492E+02  0.51937083851E+01 -0.45960262579E+03  0.47715028073E+03  0.12500672768E+03 0.  0.
    9000005    1    3    3    0    0 -0.10530872001E+01  0.70504592584E+01 -0.44745705207E+03  0.44751495105E+03  0.10000000000E+01 0.  0.
    9000005    1    3    3    0    0 -0.26949773292E+02 -0.18567508733E+01 -0.12145573726E+02  0.29635329683E+02  0.10000000000E+01 0.  0.
         -4    1    1    2    0  502  0.28002860492E+02 -0.51937083851E+01 -0.42181337554E+03  0.42277567514E+03  0.12700000000E+01 0.  1.
<mgrwt>
<rscale>  1 0.12821005E+03</rscale>
<asrwt>0</asrwt>
<pdfrwt beam="2">  1       21 0.13701958E+00 0.12821005E+03</pdfrwt>
<pdfrwt beam="1">  1       -4 0.14239125E-02 0.12821005E+03</pdfrwt>
<totfact> 0.26722908E+04</totfact>
</mgrwt>
</event>
<event>
 6    3  0.3813045E-003  0.1277031E+03  0.7818608E-02  0.1230904E+00
         21   -1    0    0  501  502  0.00000000000E+00  0.00000000000E+00  0.89952234310E+01  0.89952234310E+01  0.00000000000E+00 0.  1.
         -4   -1    0    0    0  501 -0.00000000000E+00 -0.00000000000E+00 -0.98854865865E+03  0.98854947444E+03  0.12700000000E+01 0. -1.
         25    2    1    2    0    0  0.25724431925E+02 -0.46125341292E+01 -0.94796000509E+03  0.95652300122E+03  0.12500023496E+03 0.  0.
    9000005    1    3    3    0    0  0.39905654722E+02 -0.51562627088E+01 -0.91697301259E+02  0.10014211593E+03  0.10000000000E+01 0.  0.
    9000005    1    3    3    0    0 -0.14181222797E+02  0.54372857962E+00 -0.85626270384E+03  0.85638088530E+03  0.10000000000E+01 0.  0.
         -4    1    1    2    0  502 -0.25724431925E+02  0.46125341292E+01 -0.31593430120E+02  0.41021696646E+02  0.12700000000E+01 0.  1.
<mgrwt>
<rscale>  1 0.12770310E+03</rscale>
<asrwt>0</asrwt>
<pdfrwt beam="1">  1       21 0.13838810E-02 0.12770310E+03</pdfrwt>
<pdfrwt beam="2">  1       -4 0.15209132E+00 0.12770310E+03</pdfrwt>
<totfact> 0.27614653E+04</totfact>
</mgrwt>
</event>
<event>
 6    3  0.3813045E-003  0.1810981E+03  0.7818608E-02  0.1166745E+00
         21   -1    0    0  501  502  0.00000000000E+00  0.00000000000E+00  0.40113027842E+03  0.40113027842E+03  0.00000000000E+00 0.  1.
          4   -1    0    0  502    0 -0.00000000000E+00 -0.00000000000E+00 -0.14857070450E+03  0.14857613246E+03  0.12700000000E+01 0. -1.
         25    2    1    2    0    0  0.10208537446E+01 -0.13103853123E+03 -0.75678508904E+02  0.19627467671E+03  0.12499749277E+03 0.  0.
    9000005    1    3    3    0    0  0.32835008618E+02 -0.12693905977E+03 -0.92090411021E+02  0.16022891901E+03  0.10000000000E+01 0.  0.
    9000005    1    3    3    0    0 -0.31814154873E+02 -0.40994714561E+01  0.16411902117E+02  0.36045757692E+02  0.10000000000E+01 0.  0.
          4    1    1    2  501    0 -0.10208537446E+01  0.13103853123E+03  0.32823808282E+03  0.35343173418E+03  0.12700000000E+01 0.  1.
<mgrwt>
<rscale>  1 0.18109807E+03</rscale>
<asrwt>0</asrwt>
<pdfrwt beam="1">  1       21 0.61712350E-01 0.18109807E+03</pdfrwt>
<pdfrwt beam="2">  1        4 0.22857604E-01 0.18109807E+03</pdfrwt>
<totfact> 0.18114698E+03</totfact>
</mgrwt>
</event>
<event>
 6    3  0.3813045E-003  0.1654085E+03  0.7818608E-02  0.1182722E+00
         -4   -1    0    0    0  501 -0.00000000000E+00  0.00000000000E+00  0.18045871979E+02  0.18090505672E+02  0.12700000000E+01 0.  1.
         21   -1    0    0  501  502  0.00000000000E+00 -0.00000000000E+00 -0.15509310622E+04  0.15509310622E+04  0.00000000000E+00 0. -1.
         25    2    1    2    0    0 -0.34618385221E+02 -0.10264883891E+03 -0.42820744539E+03  0.45904420345E+03  0.12499899079E+03 0.  0.
    9000005    1    3    3    0    0 -0.57404774288E+02 -0.66066172257E+02 -0.12389803824E+03  0.15169631211E+03  0.10000000000E+01 0.  0.
    9000005    1    3    3    0    0  0.22786389067E+02 -0.36582666656E+02 -0.30430940715E+03  0.30734789133E+03  0.10000000000E+01 0.  0.
         -4    1    1    2    0  502  0.34618385221E+02  0.10264883891E+03 -0.11046777449E+04  0.11099773645E+04  0.12700000000E+01 0. -1.
<mgrwt>
<rscale>  1 0.16540848E+03</rscale>
<asrwt>0</asrwt>
<pdfrwt beam="2">  1       21 0.23860486E+00 0.16540848E+03</pdfrwt>
<pdfrwt beam="1">  1       -4 0.27797605E-02 0.16540848E+03</pdfrwt>
<totfact> 0.20050549E+03</totfact>
</mgrwt>
</event>
<event>
 6    3  0.3813045E-003  0.1304313E+03  0.7818608E-02  0.1226817E+00
         21   -1    0    0  501  502  0.00000000000E+00  0.00000000000E+00  0.24505150555E+03  0.24505150555E+03  0.00000000000E+00 0.  1.
         -4   -1    0    0    0  501 -0.00000000000E+00 -0.00000000000E+00 -0.88287084327E+02  0.88296218260E+02  0.12700000000E+01 0.  1.
         25    2    1    2    0    0 -0.37204731446E+02 -0.18609244801E+01 -0.37360796894E+02  0.13567661239E+03  0.12499863568E+03 0.  0.
    9000005    1    3    3    0    0 -0.78340611289E+02  0.13658042440E+02 -0.25163434925E+01  0.79568369878E+02  0.10000000000E+01 0.  0.
    9000005    1    3    3    0    0  0.41135879843E+02 -0.15518966920E+02 -0.34844453401E+02  0.56108242510E+02  0.10000000000E+01 0.  0.
         -4    1    1    2    0  502  0.37204731446E+02  0.18609244801E+01  0.19412521811E+03  0.19767111142E+03  0.12700000000E+01 0. -1.
<mgrwt>
<rscale>  1 0.13043126E+03</rscale>
<asrwt>0</asrwt>
<pdfrwt beam="1">  1       21 0.37700231E-01 0.13043126E+03</pdfrwt>
<pdfrwt beam="2">  1       -4 0.13583584E-01 0.13043126E+03</pdfrwt>
<totfact> 0.12447214E+04</totfact>
</mgrwt>
</event>
<event>
 6    3  0.3813045E-003  0.1300082E+03  0.7818608E-02  0.1227444E+00
         21   -1    0    0  501  502  0.00000000000E+00  0.00000000000E+00  0.47203199988E+01  0.47203199988E+01  0.00000000000E+00 0.  1.
          4   -1    0    0  502    0 -0.00000000000E+00 -0.00000000000E+00 -0.14553579057E+04  0.14553584599E+04  0.12700000000E+01 0.  1.
         25    2    1    2    0    0  0.27745051162E+02 -0.22531899719E+02 -0.11365438093E+04  0.11439554058E+04  0.12499866196E+03 0.  0.
    9000005    1    3    3    0    0 -0.27356637306E+02 -0.56362804988E+02 -0.44409156120E+03  0.44849020739E+03  0.10000000000E+01 0.  0.
    9000005    1    3    3    0    0  0.55101688468E+02  0.33830905269E+02 -0.69245224813E+03  0.69546519838E+03  0.10000000000E+01 0.  0.
          4    1    1    2  501    0 -0.27745051162E+02  0.22531899719E+02 -0.31409377642E+03  0.31612337410E+03  0.12700000000E+01 0. -1.
<mgrwt>
<rscale>  1 0.13000823E+03</rscale>
<asrwt>0</asrwt>
<pdfrwt beam="1">  1       21 0.72620327E-03 0.13000823E+03</pdfrwt>
<pdfrwt beam="2">  1        4 0.22391434E+00 0.13000823E+03</pdfrwt>
<totfact> 0.26237719E+04</totfact>
</mgrwt>
</event>
<event>
 6    3  0.3813045E-003  0.1651634E+03  0.7818608E-02  0.1182988E+00
         21   -1    0    0  501  502  0.00000000000E+00  0.00000000000E+00  0.77877858440E+02  0.77877858440E+02  0.00000000000E+00 0. -1.
         -4   -1    0    0    0  501 -0.00000000000E+00 -0.00000000000E+00 -0.25312968165E+03  0.25313286754E+03  0.12700000000E+01 0.  1.
         25    2    1    2    0    0  0.60341118139E+01 -0.10778415590E+03 -0.14264123697E+03  0.21823263412E+03  0.12500050137E+03 0.  0.
    9000005    1    3    3    0    0 -0.30400532971E+02 -0.98984728359E+02 -0.43647148602E+02  0.11237545299E+03  0.10000000000E+01 0.  0.
    9000005    1    3    3    0    0  0.36434644785E+02 -0.87994275434E+01 -0.98994088371E+02  0.10585718114E+03  0.10000000000E+01 0.  0.
         -4    1    1    2    0  502 -0.60341118139E+01  0.10778415590E+03 -0.32610586234E+02  0.11277809186E+03  0.12700000000E+01 0. -1.
<mgrwt>
<rscale>  1 0.16516343E+03</rscale>
<asrwt>0</asrwt>
<pdfrwt beam="1">  1       21 0.11981209E-01 0.16516343E+03</pdfrwt>
<pdfrwt beam="2">  1       -4 0.38944071E-01 0.16516343E+03</pdfrwt>
<totfact> 0.15680283E+04</totfact>
</mgrwt>
</event>
<event>
 6    3  0.3813045E-003  0.1293836E+03  0.7818608E-02  0.1228373E+00
         21   -1    0    0  501  502  0.00000000000E+00  0.00000000000E+00  0.91984256773E+02  0.91984256773E+02  0.00000000000E+00 0. -1.
         -4   -1    0    0    0  501 -0.00000000000E+00 -0.00000000000E+00 -0.72705979263E+02  0.72717070352E+02  0.12700000000E+01 0. -1.
         25    2    1    2    0    0  0.25638107938E+02 -0.21385793738E+02  0.87850134523E+01  0.12968152925E+03  0.12500183125E+03 0.  0.
    9000005    1    3    3    0    0  0.14308604038E+02 -0.72764921321E+02 -0.76330052438E+01  0.74556909093E+02  0.10000000000E+01 0.  0.
    9000005    1    3    3    0    0  0.11329503900E+02  0.51379127584E+02  0.16418018696E+02  0.55124620160E+02  0.10000000000E+01 0.  0.
         -4    1    1    2    0  502 -0.25638107938E+02  0.21385793738E+02  0.10493264058E+02  0.35019797872E+02  0.12700000000E+01 0.  1.
<mgrwt>
<rscale>  1 0.12938363E+03</rscale>
<asrwt>0</asrwt>
<pdfrwt beam="1">  1       21 0.14151424E-01 0.12938363E+03</pdfrwt>
<pdfrwt beam="2">  1       -4 0.11187063E-01 0.12938363E+03</pdfrwt>
<totfact> 0.10939439E+05</totfact>
</mgrwt>
</event>
<event>
 6    3  0.3813045E-003  0.1414458E+03  0.7818608E-02  0.1211397E+00
         -4   -1    0    0    0  501 -0.00000000000E+00  0.00000000000E+00  0.31702472492E+03  0.31702726872E+03  0.12700000000E+01 0.  1.
         21   -1    0    0  501  502  0.00000000000E+00 -0.00000000000E+00 -0.35194797915E+02  0.35194797915E+02  0.00000000000E+00 0. -1.
         25    2    1    2    0    0 -0.31909395852E+02 -0.58004639423E+02  0.22050354673E+03  0.26197083088E+03  0.12499661744E+03 0.  0.
    9000005    1    3    3    0    0  0.25793066378E+02 -0.51408765866E+02  0.18535776211E+03  0.19407896191E+03  0.10000000000E+01 0.  0.
    9000005    1    3    3    0    0 -0.57702462230E+02 -0.65958735570E+01  0.35145784624E+02  0.67891868970E+02  0.10000000000E+01 0.  0.
         -4    1    1    2    0  502  0.31909395852E+02  0.58004639423E+02  0.61326380273E+02  0.90251235756E+02  0.12700000000E+01 0. -1.
<mgrwt>
<rscale>  1 0.14144576E+03</rscale>
<asrwt>0</asrwt>
<pdfrwt beam="2">  1       21 0.54145845E-02 0.14144576E+03</pdfrwt>
<pdfrwt beam="1">  1       -4 0.48774991E-01 0.14144576E+03</pdfrwt>
<totfact> 0.39001615E+04</totfact>
</mgrwt>
</event>
<event>
 6    3  0.3813045E-003  0.1597337E+03  0.7818608E-02  0.1188998E+00
         21   -1    0    0  501  502  0.00000000000E+00  0.00000000000E+00  0.28998136663E+02  0.28998136663E+02  0.00000000000E+00 0. -1.
          4   -1    0    0  502    0 -0.00000000000E+00 -0.00000000000E+00 -0.93616227409E+03  0.93616313554E+03  0.12700000000E+01 0.  1.
         25    2    1    2    0    0 -0.22243784484E+02  0.96926446280E+02 -0.81182697164E+03  0.82739222627E+03  0.12500136903E+03 0.  0.
    9000005    1    3    3    0    0 -0.56639984427E+02  0.91474999680E+02 -0.40408109556E+03  0.41816060932E+03  0.10000000000E+01 0.  0.
    9000005    1    3    3    0    0  0.34396199943E+02  0.54514466000E+01 -0.40774587609E+03  0.40923161694E+03  0.10000000000E+01 0.  0.
          4    1    1    2  501    0  0.22243784484E+02 -0.96926446280E+02 -0.95337165786E+02  0.13776904593E+03  0.12700000000E+01 0. -1.
<mgrwt>
<rscale>  1 0.15973373E+03</rscale>
<asrwt>0</asrwt>
<pdfrwt beam="1">  1       21 0.44612513E-02 0.15973373E+03</pdfrwt>
<pdfrwt beam="2">  1        4 0.14402719E+00 0.15973373E+03</pdfrwt>
<totfact> 0.47862886E+03</totfact>
</mgrwt>
</event>
<event>
 6    3  0.3813045E-003  0.1289937E+03  0.7818608E-02  0.1228957E+00
         21   -1    0    0  501  502  0.00000000000E+00  0.00000000000E+00  0.13190115197E+02  0.13190115197E+02  0.00000000000E+00 0.  1.
          4   -1    0    0  502    0 -0.00000000000E+00 -0.00000000000E+00 -0.53472844198E+03  0.53472995012E+03  0.12700000000E+01 0.  1.
         25    2    1    2    0    0  0.30604972878E+02  0.88779429454E+01 -0.34091785205E+03  0.36450564105E+03  0.12499559304E+03 0.  0.
    9000005    1    3    3    0    0  0.17943870819E+02 -0.61338655634E+01  0.36836008297E+01  0.19343622251E+02  0.10000000000E+01 0.  0.
    9000005    1    3    3    0    0  0.12661102059E+02  0.15011808509E+02 -0.34460145288E+03  0.34516201880E+03  0.10000000000E+01 0.  0.
          4    1    1    2  501    0 -0.30604972878E+02 -0.88779429454E+01 -0.18062047473E+03  0.18341442427E+03  0.12700000000E+01 0. -1.
<mgrwt>
<rscale>  1 0.12899372E+03</rscale>
<asrwt>0</asrwt>
<pdfrwt beam="1">  1       21 0.20292478E-02 0.12899372E+03</pdfrwt>
<pdfrwt beam="2">  1        4 0.82270761E-01 0.12899372E+03</pdfrwt>
<totfact> 0.64208723E+04</totfact>
</mgrwt>
</event>
<event>
 6    3  0.3813045E-003  0.1667611E+03  0.7818608E-02  0.1181268E+00
          4   -1    0    0  502    0 -0.00000000000E+00  0.00000000000E+00  0.83001369264E+02  0.83011084800E+02  0.12700000000E+01 0.  1.
         21   -1    0    0  501  502  0.00000000000E+00 -0.00000000000E+00 -0.62004500223E+03  0.62004500223E+03  0.00000000000E+00 0. -1.
         25    2    1    2    0    0 -0.10685812278E+03 -0.27687405512E+02 -0.12729522030E+02  0.16724627875E+03  0.12499610472E+03 0.  0.
    9000005    1    3    3    0    0 -0.42306779882E+02  0.25737483406E+02 -0.54474785320E+02  0.73625973078E+02  0.10000000000E+01 0.  0.
    9000005    1    3    3    0    0 -0.64551342899E+02 -0.53424888919E+02  0.41745263290E+02  0.93620305667E+02  0.10000000000E+01 0.  0.
          4    1    1    2  501    0  0.10685812278E+03  0.27687405512E+02 -0.52431411094E+03  0.53580980829E+03  0.12700000000E+01 0. -1.
<mgrwt>
<rscale>  1 0.16676114E+03</rscale>
<asrwt>0</asrwt>
<pdfrwt beam="2">  1       21 0.95391538E-01 0.16676114E+03</pdfrwt>
<pdfrwt beam="1">  1        4 0.12770289E-01 0.16676114E+03</pdfrwt>
<totfact> 0.19231083E+03</totfact>
</mgrwt>
</event>
<event>
 6    3  0.3813045E-003  0.1271562E+03  0.7818608E-02  0.1231738E+00
         21   -1    0    0  501  502  0.00000000000E+00  0.00000000000E+00  0.70120020183E+03  0.70120020183E+03  0.00000000000E+00 0.  1.
          4   -1    0    0  502    0 -0.00000000000E+00 -0.00000000000E+00 -0.25816600140E+02  0.25847818918E+02  0.12700000000E+01 0. -1.
         25    2    1    2    0    0  0.40027606688E+01 -0.22971317808E+02  0.13243196068E+03  0.18359443404E+03  0.12499995386E+03 0.  0.
    9000005    1    3    3    0    0  0.57464388236E+02  0.28616970515E+01  0.29268371542E+02  0.64559916342E+02  0.10000000000E+01 0.  0.
    9000005    1    3    3    0    0 -0.53461627567E+02 -0.25833014860E+02  0.10316358914E+03  0.11903451769E+03  0.10000000000E+01 0.  0.
          4    1    1    2  501    0 -0.40027606688E+01  0.22971317808E+02  0.54295164100E+03  0.54345358671E+03  0.12700000000E+01 0.  1.
<mgrwt>
<rscale>  1 0.12715617E+03</rscale>
<asrwt>0</asrwt>
<pdfrwt beam="1">  1       21 0.10787694E+00 0.12715617E+03</pdfrwt>
<pdfrwt beam="2">  1        4 0.39742751E-02 0.12715617E+03</pdfrwt>
<totfact> 0.97618094E+03</totfact>
</mgrwt>
</event>
<event>
 6    3  0.3813045E-003  0.1301001E+03  0.7818608E-02  0.1227307E+00
         21   -1    0    0  501  502  0.00000000000E+00  0.00000000000E+00  0.88247780465E+01  0.88247780465E+01  0.00000000000E+00 0.  1.
         -4   -1    0    0    0  501 -0.00000000000E+00 -0.00000000000E+00 -0.10504164596E+04  0.10504172273E+04  0.12700000000E+01 0.  1.
         25    2    1    2    0    0 -0.20399813584E+02  0.29749483292E+02 -0.97368902616E+03  0.98234228068E+03  0.12499941038E+03 0.  0.
    9000005    1    3    3    0    0  0.31254787521E+02  0.41186234485E+02 -0.77514033369E+03  0.77686337574E+03  0.10000000000E+01 0.  0.
    9000005    1    3    3    0    0 -0.51654601105E+02 -0.11436751192E+02 -0.19854869248E+03  0.20547890495E+03  0.10000000000E+01 0.  0.
         -4    1    1    2    0  502  0.20399813584E+02 -0.29749483292E+02 -0.67902655358E+02  0.76899724675E+02  0.12700000000E+01 0. -1.
<mgrwt>
<rscale>  1 0.13010010E+03</rscale>
<asrwt>0</asrwt>
<pdfrwt beam="1">  1       21 0.13576590E-02 0.13010010E+03</pdfrwt>
<pdfrwt beam="2">  1       -4 0.16160952E+00 0.13010010E+03</pdfrwt>
<totfact> 0.24390777E+04</totfact>
</mgrwt>
</event>
<event>
 6    3  0.3813045E-003  0.1333773E+03  0.7818608E-02  0.1222529E+00
         21   -1    0    0  501  502  0.00000000000E+00  0.00000000000E+00  0.34452224101E+02  0.34452224101E+02  0.00000000000E+00 0.  1.
         -4   -1    0    0    0  501 -0.00000000000E+00 -0.00000000000E+00 -0.23646156262E+03  0.23646497309E+03  0.12700000000E+01 0.  1.
         25    2    1    2    0    0 -0.40578533642E+02  0.22772450242E+02 -0.15906861938E+03  0.20758695052E+03  0.12499725786E+03 0.  0.
    9000005    1    3    3    0    0 -0.26046334458E+02  0.38184911567E+02  0.87716263580E+00  0.46241414601E+02  0.10000000000E+01 0.  0.
    9000005    1    3    3    0    0 -0.14532199185E+02 -0.15412461325E+02 -0.15994578201E+03  0.16134553592E+03  0.10000000000E+01 0.  0.
         -4    1    1    2    0  502  0.40578533642E+02 -0.22772450242E+02 -0.42940719142E+02  0.63330246668E+02  0.12700000000E+01 0. -1.
<mgrwt>
<rscale>  1 0.13337735E+03</rscale>
<asrwt>0</asrwt>
<pdfrwt beam="1">  1       21 0.53003424E-02 0.13337735E+03</pdfrwt>
<pdfrwt beam="2">  1       -4 0.36380763E-01 0.13337735E+03</pdfrwt>
<totfact> 0.71810873E+04</totfact>
</mgrwt>
</event>
<event>
 6    3  0.3813045E-003  0.1272690E+03  0.7818608E-02  0.1231565E+00
         21   -1    0    0  501  502  0.00000000000E+00  0.00000000000E+00  0.14298197783E+03  0.14298197783E+03  0.00000000000E+00 0. -1.
          4   -1    0    0  502    0 -0.00000000000E+00 -0.00000000000E+00 -0.13690262043E+04  0.13690267933E+04  0.12700000000E+01 0.  1.
         25    2    1    2    0    0  0.23350411228E+02 -0.51153309250E+01 -0.13650433674E+04  0.13709634508E+04  0.12500392075E+03 0.  0.
    9000005    1    3    3    0    0 -0.47843296278E+00  0.43653566137E+02 -0.10747917447E+04  0.10756784637E+04  0.10000000000E+01 0.  0.
    9000005    1    3    3    0    0  0.23828844191E+02 -0.48768897062E+02 -0.29025162267E+03  0.29528498709E+03  0.10000000000E+01 0.  0.
          4    1    1    2  501    0 -0.23350411228E+02  0.51153309250E+01  0.13899914095E+03  0.14104532038E+03  0.12700000000E+01 0. -1.
<mgrwt>
<rscale>  1 0.12726896E+03</rscale>
<asrwt>0</asrwt>
<pdfrwt beam="1">  1       21 0.21997228E-01 0.12726896E+03</pdfrwt>
<pdfrwt beam="2">  1        4 0.21061989E+00 0.12726896E+03</pdfrwt>
<totfact> 0.10310331E+02</totfact>
</mgrwt>
</event>
<event>
 6    3  0.3813045E-003  0.1286426E+03  0.7818608E-02  0.1229484E+00
          4   -1    0    0  502    0 -0.00000000000E+00  0.00000000000E+00  0.14894276234E+03  0.14894817674E+03  0.12700000000E+01 0.  1.
         21   -1    0    0  501  502  0.00000000000E+00 -0.00000000000E+00 -0.43477711423E+02  0.43477711423E+02  0.00000000000E+00 0.  1.
         25    2    1    2    0    0  0.27321784210E+02 -0.13271979426E+02  0.96232166734E+02  0.16065350423E+03  0.12500517260E+03 0.  0.
    9000005    1    3    3    0    0 -0.23234283852E+02 -0.36796208617E+02 -0.62534773436E+01  0.43976117309E+02  0.10000000000E+01 0.  0.
    9000005    1    3    3    0    0  0.50556068062E+02  0.23524229191E+02  0.10248564408E+03  0.11667738692E+03  0.10000000000E+01 0.  0.
          4    1    1    2  501    0 -0.27321784210E+02  0.13271979426E+02  0.92328841833E+01  0.31772383931E+02  0.12700000000E+01 0. -1.
<mgrwt>
<rscale>  1 0.12864260E+03</rscale>
<asrwt>0</asrwt>
<pdfrwt beam="2">  1       21 0.66888788E-02 0.12864260E+03</pdfrwt>
<pdfrwt beam="1">  1        4 0.22916114E-01 0.12864260E+03</pdfrwt>
<totfact> 0.11480998E+05</totfact>
</mgrwt>
</event>
<event>
 6    3  0.3813045E-003  0.1471121E+03  0.7818608E-02  0.1204067E+00
          4   -1    0    0  502    0 -0.00000000000E+00  0.00000000000E+00  0.40090007677E+02  0.40110118618E+02  0.12700000000E+01 0.  1.
         21   -1    0    0  501  502  0.00000000000E+00 -0.00000000000E+00 -0.33331264030E+03  0.33331264030E+03  0.00000000000E+00 0. -1.
         25    2    1    2    0    0  0.75560712912E+02  0.17572947748E+02 -0.14744457036E+03  0.20828316292E+03  0.12499497910E+03 0.  0.
    9000005    1    3    3    0    0  0.95673993152E+02 -0.17979962280E+02 -0.13325487450E+03  0.16502925071E+03  0.10000000000E+01 0.  0.
    9000005    1    3    3    0    0 -0.20113280241E+02  0.35552910028E+02 -0.14189695855E+02  0.43253912216E+02  0.10000000000E+01 0.  0.
          4    1    1    2  501    0 -0.75560712912E+02 -0.17572947748E+02 -0.14577806226E+03  0.16513959600E+03  0.12700000000E+01 0. -1.
<mgrwt>
<rscale>  1 0.14711212E+03</rscale>
<asrwt>0</asrwt>
<pdfrwt beam="2">  1       21 0.51278870E-01 0.14711212E+03</pdfrwt>
<pdfrwt beam="1">  1        4 0.61694264E-02 0.14711212E+03</pdfrwt>
<totfact> 0.25279349E+04</totfact>
</mgrwt>
</event>
<event>
 6    3  0.3813045E-003  0.1334436E+03  0.7818608E-02  0.1222434E+00
         21   -1    0    0  501  502  0.00000000000E+00  0.00000000000E+00  0.23909362890E+02  0.23909362890E+02  0.00000000000E+00 0.  1.
          4   -1    0    0  502    0 -0.00000000000E+00 -0.00000000000E+00 -0.59405028257E+03  0.59405164012E+03  0.12700000000E+01 0. -1.
         25    2    1    2    0    0 -0.31799854173E+02  0.34209314468E+02 -0.55189873848E+03  0.56780227498E+03  0.12500279205E+03 0.  0.
    9000005    1    3    3    0    0 -0.32837728105E+02  0.54986816104E+02 -0.12555463818E+03  0.14094975524E+03  0.10000000000E+01 0.  0.
    9000005    1    3    3    0    0  0.10378739324E+01 -0.20777501636E+02 -0.42634410030E+03  0.42685251975E+03  0.10000000000E+01 0.  0.
          4    1    1    2  501    0  0.31799854173E+02 -0.34209314468E+02 -0.18242181206E+02  0.50158728023E+02  0.12700000000E+01 0.  1.
<mgrwt>
<rscale>  1 0.13344364E+03</rscale>
<asrwt>0</asrwt>
<pdfrwt beam="1">  1       21 0.36783635E-02 0.13344364E+03</pdfrwt>
<pdfrwt beam="2">  1        4 0.91395050E-01 0.13344364E+03</pdfrwt>
<totfact> 0.19265803E+04</totfact>
</mgrwt>
</event>
<event>
 6    3  0.3813045E-003  0.1270128E+03  0.7818608E-02  0.1231957E+00
          4   -1    0    0  502    0 -0.00000000000E+00  0.00000000000E+00  0.63695161764E+01  0.64948930955E+01  0.12700000000E+01 0. -1.
         21   -1    0    0  501  502  0.00000000000E+00 -0.00000000000E+00 -0.93793317462E+03  0.93793317462E+03  0.00000000000E+00 0. -1.
         25    2    1    2    0    0 -0.22533116341E+02  0.13256194637E+00 -0.67293995890E+03  0.68482146193E+03  0.12499795008E+03 0.  0.
    9000005    1    3    3    0    0  0.40200728186E+02  0.35551216602E+02 -0.33644108455E+03  0.34069574539E+03  0.10000000000E+01 0.  0.
    9000005    1    3    3    0    0 -0.62733844527E+02 -0.35418654655E+02 -0.33649887435E+03  0.34412571654E+03  0.10000000000E+01 0.  0.
          4    1    1    2  501    0  0.22533116341E+02 -0.13256194637E+00 -0.25862369954E+03  0.25960660578E+03  0.12700000000E+01 0.  1.
<mgrwt>
<rscale>  1 0.12701278E+03</rscale>
<asrwt>0</asrwt>
<pdfrwt beam="2">  1       21 0.14429745E+00 0.12701278E+03</pdfrwt>
<pdfrwt beam="1">  1        4 0.98963579E-03 0.12701278E+03</pdfrwt>
<totfact> 0.40568873E+04</totfact>
</mgrwt>
</event>
<event>
 6    3  0.3813045E-003  0.1273272E+03  0.7818608E-02  0.1231476E+00
          4   -1    0    0  502    0 -0.00000000000E+00  0.00000000000E+00  0.23065680476E+02  0.23100617218E+02  0.12700000000E+01 0. -1.
         21   -1    0    0  501  502  0.00000000000E+00 -0.00000000000E+00 -0.86766448522E+03  0.86766448522E+03  0.00000000000E+00 0.  1.
         25    2    1    2    0    0 -0.23739524455E+02  0.46358289397E+01 -0.15434504102E+03  0.20008650341E+03  0.12500864460E+03 0.  0.
    9000005    1    3    3    0    0 -0.51569317402E+02  0.44376563653E+02 -0.48227806915E+02  0.83400211383E+02  0.10000000000E+01 0.  0.
    9000005    1    3    3    0    0  0.27829792946E+02 -0.39740734713E+02 -0.10611723411E+03  0.11668629202E+03  0.10000000000E+01 0.  0.
          4    1    1    2  501    0  0.23739524455E+02 -0.46358289397E+01 -0.69025376372E+03  0.69067859903E+03  0.12700000000E+01 0.  1.
<mgrwt>
<rscale>  1 0.12732721E+03</rscale>
<asrwt>0</asrwt>
<pdfrwt beam="2">  1       21 0.13348684E+00 0.12732721E+03</pdfrwt>
<pdfrwt beam="1">  1        4 0.35513252E-02 0.12732721E+03</pdfrwt>
<totfact> 0.69393727E+03</totfact>
</mgrwt>
</event>
<event>
 6    3  0.3813045E-003  0.2235962E+03  0.7818608E-02  0.1131230E+00
         21   -1    0    0  501  502  0.00000000000E+00  0.00000000000E+00  0.49220584699E+03  0.49220584699E+03  0.00000000000E+00 0. -1.
          4   -1    0    0  502    0 -0.00000000000E+00 -0.00000000000E+00 -0.12343936438E+03  0.12344589737E+03  0.12700000000E+01 0.  1.
         25    2    1    2    0    0 -0.10325156237E+03 -0.15397644561E+03  0.24882898026E+02  0.22497647821E+03  0.12500250477E+03 0.  0.
    9000005    1    3    3    0    0 -0.64479286168E+01  0.15809462100E+02  0.24071265400E+02  0.29528641914E+02  0.10000000000E+01 0.  0.
    9000005    1    3    3    0    0 -0.96803633751E+02 -0.16978590771E+03  0.81163262661E+00  0.19544783630E+03  0.10000000000E+01 0.  0.
          4    1    1    2  501    0  0.10325156237E+03  0.15397644561E+03  0.34388358458E+03  0.39067526615E+03  0.12700000000E+01 0. -1.
<mgrwt>
<rscale>  1 0.22359619E+03</rscale>
<asrwt>0</asrwt>
<pdfrwt beam="1">  1       21 0.75723975E-01 0.22359619E+03</pdfrwt>
<pdfrwt beam="2">  1        4 0.18991300E-01 0.22359619E+03</pdfrwt>
<totfact> 0.16216233E+03</totfact>
</mgrwt>
</event>
<event>
 6    3  0.3813045E-003  0.1276939E+03  0.7818608E-02  0.1230918E+00
         21   -1    0    0  501  502  0.00000000000E+00  0.00000000000E+00  0.88715262614E+02  0.88715262614E+02  0.00000000000E+00 0. -1.
         -4   -1    0    0    0  501 -0.00000000000E+00 -0.00000000000E+00 -0.66671382957E+02  0.66683477755E+02  0.12700000000E+01 0. -1.
         25    2    1    2    0    0  0.17487770609E+02  0.19372766831E+02  0.17872765968E+02  0.12893863257E+03  0.12499843595E+03 0.  0.
    9000005    1    3    3    0    0 -0.64326829095E+00 -0.47928643434E+02 -0.17160897856E+02  0.50922147153E+02  0.10000000000E+01 0.  0.
    9000005    1    3    3    0    0  0.18131038900E+02  0.67301410265E+02  0.35033663823E+02  0.78016485412E+02  0.10000000000E+01 0.  0.
         -4    1    1    2    0  502 -0.17487770609E+02 -0.19372766831E+02  0.41711136889E+01  0.26460107803E+02  0.12700000000E+01 0.  1.
<mgrwt>
<rscale>  1 0.12769391E+03</rscale>
<asrwt>0</asrwt>
<pdfrwt beam="1">  1       21 0.13648502E-01 0.12769391E+03</pdfrwt>
<pdfrwt beam="2">  1       -4 0.10258765E-01 0.12769391E+03</pdfrwt>
<totfact> 0.13489474E+05</totfact>
</mgrwt>
</event>
<event>
 6    3  0.3813045E-003  0.1318974E+03  0.7818608E-02  0.1224667E+00
         21   -1    0    0  501  502  0.00000000000E+00  0.00000000000E+00  0.52047030626E+03  0.52047030626E+03  0.00000000000E+00 0.  1.
          4   -1    0    0  502    0 -0.00000000000E+00 -0.00000000000E+00 -0.14582372326E+02  0.14637570928E+02  0.12700000000E+01 0.  1.
         25    2    1    2    0    0  0.29281945227E+02  0.30253671617E+02  0.39812680585E+03  0.41940657820E+03  0.12499682930E+03 0.  0.
    9000005    1    3    3    0    0  0.55919504639E+01  0.71241796771E+02  0.14234835936E+03  0.15928188513E+03  0.10000000000E+01 0.  0.
    9000005    1    3    3    0    0  0.23689994763E+02 -0.40988125154E+02  0.25577844649E+03  0.26012469307E+03  0.10000000000E+01 0.  0.
          4    1    1    2  501    0 -0.29281945227E+02 -0.30253671617E+02  0.10776112809E+03  0.11570129899E+03  0.12700000000E+01 0. -1.
<mgrwt>
<rscale>  1 0.13189740E+03</rscale>
<asrwt>0</asrwt>
<pdfrwt beam="1">  1       21 0.80072341E-01 0.13189740E+03</pdfrwt>
<pdfrwt beam="2">  1        4 0.22478075E-02 0.13189740E+03</pdfrwt>
<totfact> 0.47490854E+04</totfact>
</mgrwt>
</event>
<event>
 6    3  0.3813045E-003  0.1355963E+03  0.7818608E-02  0.1219380E+00
         21   -1    0    0  501  502  0.00000000000E+00  0.00000000000E+00  0.69889553724E+02  0.69889553724E+02  0.00000000000E+00 0. -1.
         -4   -1    0    0    0  501 -0.00000000000E+00 -0.00000000000E+00 -0.13773058401E+03  0.13773643916E+03  0.12700000000E+01 0.  1.
         25    2    1    2    0    0  0.45970992826E+02 -0.25291385174E+02 -0.74510453539E+02  0.15471965629E+03  0.12503350755E+03 0.  0.
    9000005    1    3    3    0    0  0.60868861318E+01 -0.55071913352E+02  0.10310356456E+02  0.56367271296E+02  0.10000000000E+01 0.  0.
    9000005    1    3    3    0    0  0.39884106695E+02  0.29780528178E+02 -0.84820809995E+02  0.98352384992E+02  0.10000000000E+01 0.  0.
         -4    1    1    2    0  502 -0.45970992826E+02  0.25291385174E+02  0.66694232517E+01  0.52906336596E+02  0.12700000000E+01 0. -1.
<mgrwt>
<rscale>  1 0.13559633E+03</rscale>
<asrwt>0</asrwt>
<pdfrwt beam="1">  1       21 0.10752239E-01 0.13559633E+03</pdfrwt>
<pdfrwt beam="2">  1       -4 0.21190658E-01 0.13559633E+03</pdfrwt>
<totfact> 0.58590882E+04</totfact>
</mgrwt>
</event>
<event>
 6    3  0.3813045E-003  0.1283620E+03  0.7818608E-02  0.1229907E+00
          4   -1    0    0  502    0 -0.00000000000E+00  0.00000000000E+00  0.13710420573E+03  0.13711008763E+03  0.12700000000E+01 0. -1.
         21   -1    0    0  501  502  0.00000000000E+00 -0.00000000000E+00 -0.46292771567E+02  0.46292771567E+02  0.00000000000E+00 0. -1.
         25    2    1    2    0    0 -0.62345232853E+01 -0.28508253915E+02  0.62674772166E+02  0.14284580715E+03  0.12500083093E+03 0.  0.
    9000005    1    3    3    0    0 -0.34814796181E+02  0.19845995668E+02  0.75264740056E+02  0.85274349443E+02  0.10000000000E+01 0.  0.
    9000005    1    3    3    0    0  0.28580272896E+02 -0.48354249582E+02 -0.12589967890E+02  0.57571457711E+02  0.10000000000E+01 0.  0.
          4    1    1    2  501    0  0.62345232853E+01  0.28508253915E+02  0.28136661997E+02  0.40557052040E+02  0.12700000000E+01 0.  1.
<mgrwt>
<rscale>  1 0.12836198E+03</rscale>
<asrwt>0</asrwt>
<pdfrwt beam="2">  1       21 0.71219650E-02 0.12836198E+03</pdfrwt>
<pdfrwt beam="1">  1        4 0.21094747E-01 0.12836198E+03</pdfrwt>
<totfact> 0.11983791E+05</totfact>
</mgrwt>
</event>
<event>
 6    3  0.3813045E-003  0.1279177E+03  0.7818608E-02  0.1230579E+00
         21   -1    0    0  501  502  0.00000000000E+00  0.00000000000E+00  0.40609362764E+03  0.40609362764E+03  0.00000000000E+00 0.  1.
          4   -1    0    0  502    0 -0.00000000000E+00 -0.00000000000E+00 -0.14974074416E+02  0.15027834329E+02  0.12700000000E+01 0.  1.
         25    2    1    2    0    0 -0.73796296456E+01  0.26127027305E+02  0.30269128221E+03  0.32861063826E+03  0.12500343499E+03 0.  0.
    9000005    1    3    3    0    0 -0.72800406824E+01 -0.29872022003E+02  0.24943426448E+03  0.25132407165E+03  0.10000000000E+01 0.  0.
    9000005    1    3    3    0    0 -0.99588963196E-01  0.55999049307E+02  0.53257017729E+02  0.77286566612E+02  0.10000000000E+01 0.  0.
          4    1    1    2  501    0  0.73796296456E+01 -0.26127027305E+02  0.88428271016E+02  0.92510823715E+02  0.12700000000E+01 0. -1.
<mgrwt>
<rscale>  1 0.12791770E+03</rscale>
<asrwt>0</asrwt>
<pdfrwt beam="1">  1       21 0.62475934E-01 0.12791770E+03</pdfrwt>
<pdfrwt beam="2">  1        4 0.23079922E-02 0.12791770E+03</pdfrwt>
<totfact> 0.78151276E+04</totfact>
</mgrwt>
</event>
<event>
 6    3  0.3813045E-003  0.1313497E+03  0.7818608E-02  0.1225467E+00
         21   -1    0    0  501  502  0.00000000000E+00  0.00000000000E+00  0.43504219676E+03  0.43504219676E+03  0.00000000000E+00 0.  1.
          4   -1    0    0  502    0 -0.00000000000E+00 -0.00000000000E+00 -0.28504164762E+02  0.28532443092E+02  0.12700000000E+01 0. -1.
         25    2    1    2    0    0  0.68951038781E+01 -0.39790485259E+02  0.13249112107E+03  0.18656534855E+03  0.12498762717E+03 0.  0.
    9000005    1    3    3    0    0 -0.54502107779E+02 -0.63420340625E+01  0.30145332567E+02  0.62613434852E+02  0.10000000000E+01 0.  0.
    9000005    1    3    3    0    0  0.61397211657E+02 -0.33448451196E+02  0.10234578850E+03  0.12395191370E+03  0.10000000000E+01 0.  0.
          4    1    1    2  501    0 -0.68951038781E+01  0.39790485259E+02  0.27404691093E+03  0.27700929130E+03  0.12700000000E+01 0.  1.
<mgrwt>
<rscale>  1 0.13134966E+03</rscale>
<asrwt>0</asrwt>
<pdfrwt beam="1">  1       21 0.66929564E-01 0.13134966E+03</pdfrwt>
<pdfrwt beam="2">  1        4 0.43875743E-02 0.13134966E+03</pdfrwt>
<totfact> 0.24651884E+04</totfact>
</mgrwt>
</event>
<event>
 6    3  0.3813045E-003  0.1303384E+03  0.7818608E-02  0.1226954E+00
         21   -1    0    0  501  502  0.00000000000E+00  0.00000000000E+00  0.46700024075E+03  0.46700024075E+03  0.00000000000E+00 0. -1.
          4   -1    0    0  502    0 -0.00000000000E+00 -0.00000000000E+00 -0.18495041003E+02  0.18538593304E+02  0.12700000000E+01 0.  1.
         25    2    1    2    0    0 -0.10365366127E+02  0.35405214126E+02  0.23373398838E+03  0.26761853639E+03  0.12500853448E+03 0.  0.
    9000005    1    3    3    0    0 -0.17298010568E+02  0.37497187327E+02  0.24809171722E+03  0.25150697879E+03  0.10000000000E+01 0.  0.
    9000005    1    3    3    0    0  0.69326444414E+01 -0.20919732006E+01 -0.14357728840E+02  0.16111557599E+02  0.10000000000E+01 0.  0.
          4    1    1    2  501    0  0.10365366127E+02 -0.35405214126E+02  0.21477121136E+03  0.21792029766E+03  0.12700000000E+01 0. -1.
<mgrwt>
<rscale>  1 0.13033842E+03</rscale>
<asrwt>0</asrwt>
<pdfrwt beam="1">  1       21 0.71846182E-01 0.13033842E+03</pdfrwt>
<pdfrwt beam="2">  1        4 0.28488743E-02 0.13033842E+03</pdfrwt>
<totfact> 0.41723235E+04</totfact>
</mgrwt>
</event>
<event>
 6    3  0.3813045E-003  0.1273324E+03  0.7818608E-02  0.1231469E+00
         21   -1    0    0  501  502  0.00000000000E+00  0.00000000000E+00  0.10704200983E+02  0.10704200983E+02  0.00000000000E+00 0.  1.
          4   -1    0    0  502    0 -0.00000000000E+00 -0.00000000000E+00 -0.58160082528E+03  0.58160221188E+03  0.12700000000E+01 0.  1.
         25    2    1    2    0    0  0.23948889009E+02 -0.38703954636E+01 -0.52670395945E+03  0.54187691979E+03  0.12500002421E+03 0.  0.
    9000005    1    3    3    0    0  0.68897326393E+02  0.23205628815E+02 -0.35333607728E+03  0.36073913886E+03  0.10000000000E+01 0.  0.
    9000005    1    3    3    0    0 -0.44948437384E+02 -0.27076024279E+02 -0.17336788217E+03  0.18113778093E+03  0.10000000000E+01 0.  0.
          4    1    1    2  501    0 -0.23948889009E+02  0.38703954636E+01 -0.44192664845E+02  0.50429493076E+02  0.12700000000E+01 0. -1.
<mgrwt>
<rscale>  1 0.12733238E+03</rscale>
<asrwt>0</asrwt>
<pdfrwt beam="1">  1       21 0.16467994E-02 0.12733238E+03</pdfrwt>
<pdfrwt beam="2">  1        4 0.89482990E-01 0.12733238E+03</pdfrwt>
<totfact> 0.74303121E+04</totfact>
</mgrwt>
</event>
<event>
 6    3  0.3813045E-003  0.1402165E+03  0.7818608E-02  0.1213038E+00
         21   -1    0    0  501  502  0.00000000000E+00  0.00000000000E+00  0.14197072130E+03  0.14197072130E+03  0.00000000000E+00 0.  1.
         -4   -1    0    0    0  501 -0.00000000000E+00 -0.00000000000E+00 -0.84192478154E+02  0.84202056255E+02  0.12700000000E+01 0. -1.
         25    2    1    2    0    0  0.12701940492E+02 -0.62255099820E+02 -0.99503709493E-01  0.14021649083E+03  0.12499447050E+03 0.  0.
    9000005    1    3    3    0    0  0.46573277212E+02 -0.56174508816E+01 -0.41218673983E+02  0.62454823590E+02  0.10000000000E+01 0.  0.
    9000005    1    3    3    0    0 -0.33871336721E+02 -0.56637648939E+02  0.41119170273E+02  0.77761667244E+02  0.10000000000E+01 0.  0.
         -4    1    1    2    0  502 -0.12701940492E+02  0.62255099820E+02  0.57877746856E+02  0.85956286722E+02  0.12700000000E+01 0.  1.
<mgrwt>
<rscale>  1 0.14021646E+03</rscale>
<asrwt>0</asrwt>
<pdfrwt beam="1">  1       21 0.21841650E-01 0.14021646E+03</pdfrwt>
<pdfrwt beam="2">  1       -4 0.12953863E-01 0.14021646E+03</pdfrwt>
<totfact> 0.38854591E+04</totfact>
</mgrwt>
</event>
<event>
 6    3  0.3813045E-003  0.1422336E+03  0.7818608E-02  0.1210355E+00
         21   -1    0    0  501  502  0.00000000000E+00  0.00000000000E+00  0.16757547874E+03  0.16757547874E+03  0.00000000000E+00 0. -1.
         -4   -1    0    0    0  501 -0.00000000000E+00 -0.00000000000E+00 -0.73637845151E+02  0.73648795907E+02  0.12700000000E+01 0.  1.
         25    2    1    2    0    0  0.55935501426E+02  0.38412081612E+02  0.24866557310E+02  0.14439093942E+03  0.12500451744E+03 0.  0.
    9000005    1    3    3    0    0  0.49718690321E+02  0.75103996675E+02 -0.13326334878E+02  0.91055750422E+02  0.10000000000E+01 0.  0.
    9000005    1    3    3    0    0  0.62168111050E+01 -0.36691915063E+02  0.38192892189E+02  0.53335188994E+02  0.10000000000E+01 0.  0.
         -4    1    1    2    0  502 -0.55935501426E+02 -0.38412081612E+02  0.69071076278E+02  0.96833335230E+02  0.12700000000E+01 0. -1.
<mgrwt>
<rscale>  1 0.14223360E+03</rscale>
<asrwt>0</asrwt>
<pdfrwt beam="1">  1       21 0.25780843E-01 0.14223360E+03</pdfrwt>
<pdfrwt beam="2">  1       -4 0.11330112E-01 0.14223360E+03</pdfrwt>
<totfact> 0.35814556E+04</totfact>
</mgrwt>
</event>
<event>
 6    3  0.3813045E-003  0.1286350E+03  0.7818608E-02  0.1229495E+00
         -4   -1    0    0    0  501 -0.00000000000E+00  0.00000000000E+00  0.78195848212E+03  0.78195951344E+03  0.12700000000E+01 0.  1.
         21   -1    0    0  501  502  0.00000000000E+00 -0.00000000000E+00 -0.81494440914E+01  0.81494440914E+01  0.00000000000E+00 0.  1.
         25    2    1    2    0    0  0.27796349206E+02  0.11893313821E+02  0.65458840968E+03  0.66710790442E+03  0.12503152446E+03 0.  0.
    9000005    1    3    3    0    0  0.66391699794E+02  0.26047273133E+02  0.55193660632E+03  0.55652613203E+03  0.10000000000E+01 0.  0.
    9000005    1    3    3    0    0 -0.38595350588E+02 -0.14153959312E+02  0.10265180336E+03  0.11058177239E+03  0.10000000000E+01 0.  0.
         -4    1    1    2    0  502 -0.27796349206E+02 -0.11893313821E+02  0.11922062836E+03  0.12300105312E+03  0.12700000000E+01 0. -1.
<mgrwt>
<rscale>  1 0.12863503E+03</rscale>
<asrwt>0</asrwt>
<pdfrwt beam="2">  1       21 0.12537612E-02 0.12863503E+03</pdfrwt>
<pdfrwt beam="1">  1       -4 0.12030894E+00 0.12863503E+03</pdfrwt>
<totfact> 0.57739772E+04</totfact>
</mgrwt>
</event>
<event>
 6    3  0.3813045E-003  0.1267689E+03  0.7818608E-02  0.1232330E+00
         -4   -1    0    0    0  501 -0.00000000000E+00  0.00000000000E+00  0.33210016784E+03  0.33210259617E+03  0.12700000000E+01 0.  1.
         21   -1    0    0  501  502  0.00000000000E+00 -0.00000000000E+00 -0.20335192062E+02  0.20335192062E+02  0.00000000000E+00 0.  1.
         25    2    1    2    0    0  0.14093616596E+02 -0.15578195169E+02  0.30505758699E+03  0.33034905450E+03  0.12501622388E+03 0.  0.
    9000005    1    3    3    0    0 -0.43407083249E+02 -0.12225478508E+02  0.23667800360E+03  0.24093798909E+03  0.10000000000E+01 0.  0.
    9000005    1    3    3    0    0  0.57500699845E+02 -0.33527166610E+01  0.68379583396E+02  0.89411065406E+02  0.10000000000E+01 0.  0.
         -4    1    1    2    0  502 -0.14093616596E+02  0.15578195169E+02  0.67073887883E+01  0.22088733731E+02  0.12700000000E+01 0. -1.
<mgrwt>
<rscale>  1 0.12676895E+03</rscale>
<asrwt>0</asrwt>
<pdfrwt beam="2">  1       21 0.31284913E-02 0.12676895E+03</pdfrwt>
<pdfrwt beam="1">  1       -4 0.51095567E-01 0.12676895E+03</pdfrwt>
<totfact> 0.87194373E+04</totfact>
</mgrwt>
</event>
<event>
 6    3  0.3813045E-003  0.1284270E+03  0.7818608E-02  0.1229809E+00
         -4   -1    0    0    0  501 -0.00000000000E+00  0.00000000000E+00  0.11768897153E+03  0.11769582371E+03  0.12700000000E+01 0.  1.
         21   -1    0    0  501  502  0.00000000000E+00 -0.00000000000E+00 -0.72931937419E+02  0.72931937419E+02  0.00000000000E+00 0. -1.
         25    2    1    2    0    0  0.35197149930E+01  0.29252940140E+02  0.74723352044E+02  0.14858354618E+03  0.12500147181E+03 0.  0.
    9000005    1    3    3    0    0 -0.18407514922E+02  0.35022071752E+02 -0.24666786248E+02  0.46635099005E+02  0.10000000000E+01 0.  0.
    9000005    1    3    3    0    0  0.21927229915E+02 -0.57691316115E+01  0.99390138292E+02  0.10194844717E+03  0.10000000000E+01 0.  0.
         -4    1    1    2    0  502 -0.35197149930E+01 -0.29252940140E+02 -0.29966317935E+02  0.42044214954E+02  0.12700000000E+01 0. -1.
<mgrwt>
<rscale>  1 0.12842699E+03</rscale>
<asrwt>0</asrwt>
<pdfrwt beam="2">  1       21 0.11220298E-01 0.12842699E+03</pdfrwt>
<pdfrwt beam="1">  1       -4 0.18107373E-01 0.12842699E+03</pdfrwt>
<totfact> 0.71562419E+04</totfact>
</mgrwt>
</event>
<event>
 6    3  0.3813045E-003  0.1309194E+03  0.7818608E-02  0.1226098E+00
          4   -1    0    0  502    0 -0.00000000000E+00  0.00000000000E+00  0.72459624864E+02  0.72470753656E+02  0.12700000000E+01 0.  1.
         21   -1    0    0  501  502  0.00000000000E+00 -0.00000000000E+00 -0.10302850176E+03  0.10302850176E+03  0.00000000000E+00 0.  1.
         25    2    1    2    0    0 -0.84698782795E+01  0.38000678825E+02 -0.36932381660E+02  0.13602904485E+03  0.12499643914E+03 0.  0.
    9000005    1    3    3    0    0 -0.46634948208E+02 -0.42035914942E+01  0.24022988412E+02  0.52636418458E+02  0.10000000000E+01 0.  0.
    9000005    1    3    3    0    0  0.38165069928E+02  0.42204270319E+02 -0.60955370072E+02  0.83392626391E+02  0.10000000000E+01 0.  0.
          4    1    1    2  501    0  0.84698782795E+01 -0.38000678825E+02  0.63635047661E+01  0.39470210566E+02  0.12700000000E+01 0. -1.
<mgrwt>
<rscale>  1 0.13091944E+03</rscale>
<asrwt>0</asrwt>
<pdfrwt beam="2">  1       21 0.15850539E-01 0.13091944E+03</pdfrwt>
<pdfrwt beam="1">  1        4 0.11149093E-01 0.13091944E+03</pdfrwt>
<totfact> 0.89831967E+04</totfact>
</mgrwt>
</event>
<event>
 6    3  0.3813045E-003  0.1440987E+03  0.7818608E-02  0.1207918E+00
         21   -1    0    0  501  502  0.00000000000E+00  0.00000000000E+00  0.40781017668E+03  0.40781017668E+03  0.00000000000E+00 0.  1.
         -4   -1    0    0    0  501 -0.00000000000E+00 -0.00000000000E+00 -0.41081877422E+02  0.41101503045E+02  0.12700000000E+01 0. -1.
         25    2    1    2    0    0  0.71120096282E+02  0.90210561407E+01  0.10703523642E+03  0.17950205232E+03  0.12499998962E+03 0.  0.
    9000005    1    3    3    0    0  0.22333000607E+02 -0.42447992165E+02 -0.35730896638E+01  0.48107815630E+02  0.10000000000E+01 0.  0.
    9000005    1    3    3    0    0  0.48787095675E+02  0.51469048306E+02  0.11060832608E+03  0.13139423669E+03  0.10000000000E+01 0.  0.
         -4    1    1    2    0  502 -0.71120096282E+02 -0.90210561407E+01  0.25969306284E+03  0.26940962740E+03  0.12700000000E+01 0.  1.
<mgrwt>
<rscale>  1 0.14409873E+03</rscale>
<asrwt>0</asrwt>
<pdfrwt beam="1">  1       21 0.62740024E-01 0.14409873E+03</pdfrwt>
<pdfrwt beam="2">  1       -4 0.63219509E-02 0.14409873E+03</pdfrwt>
<totfact> 0.15839867E+04</totfact>
</mgrwt>
</event>
<event>
 6    3  0.3813045E-003  0.1276075E+03  0.7818608E-02  0.1231050E+00
         21   -1    0    0  501  502  0.00000000000E+00  0.00000000000E+00  0.29690799126E+03  0.29690799126E+03  0.00000000000E+00 0.  1.
         -4   -1    0    0    0  501 -0.00000000000E+00 -0.00000000000E+00 -0.31668040243E+02  0.31693495749E+02  0.12700000000E+01 0. -1.
         25    2    1    2    0    0 -0.39811682429E+01  0.25435145698E+02  0.10206775196E+03  0.16340591872E+03  0.12498348669E+03 0.  0.
    9000005    1    3    3    0    0 -0.30961366340E+02 -0.24392793866E+02  0.99100325910E+02  0.10665593839E+03  0.10000000000E+01 0.  0.
    9000005    1    3    3    0    0  0.26980198098E+02  0.49827939564E+02  0.29674260542E+01  0.56749980335E+02  0.10000000000E+01 0.  0.
         -4    1    1    2    0  502  0.39811682429E+01 -0.25435145698E+02  0.16317219905E+03  0.16519556828E+03  0.12700000000E+01 0.  1.
<mgrwt>
<rscale>  1 0.12760748E+03</rscale>
<asrwt>0</asrwt>
<pdfrwt beam="1">  1       21 0.45678151E-01 0.12760748E+03</pdfrwt>
<pdfrwt beam="2">  1       -4 0.48741735E-02 0.12760748E+03</pdfrwt>
<totfact> 0.46287076E+04</totfact>
</mgrwt>
</event>
<event>
 6    3  0.3813045E-003  0.1359794E+03  0.7818608E-02  0.1218844E+00
         -4   -1    0    0    0  501 -0.00000000000E+00  0.00000000000E+00  0.15135839669E+02  0.15189027042E+02  0.12700000000E+01 0.  1.
         21   -1    0    0  501  502  0.00000000000E+00 -0.00000000000E+00 -0.59251754335E+03  0.59251754335E+03  0.00000000000E+00 0.  1.
         25    2    1    2    0    0  0.49441355401E+02 -0.20501087774E+02 -0.40763645873E+03  0.42971835924E+03  0.12500257422E+03 0.  0.
    9000005    1    3    3    0    0  0.60879407687E+02  0.28323252496E+02 -0.33360284659E+03  0.34029453149E+03  0.10000000000E+01 0.  0.
    9000005    1    3    3    0    0 -0.11438052286E+02 -0.48824340271E+02 -0.74033612139E+02  0.89423827749E+02  0.10000000000E+01 0.  0.
         -4    1    1    2    0  502 -0.49441355401E+02  0.20501087774E+02 -0.16974524496E+03  0.17798821116E+03  0.12700000000E+01 0. -1.
<mgrwt>
<rscale>  1 0.13597936E+03</rscale>
<asrwt>0</asrwt>
<pdfrwt beam="2">  1       21 0.91156530E-01 0.13597936E+03</pdfrwt>
<pdfrwt beam="1">  1       -4 0.23327871E-02 0.13597936E+03</pdfrwt>
<totfact> 0.33521231E+04</totfact>
</mgrwt>
</event>
<event>
 6    3  0.3813045E-003  0.1326990E+03  0.7818608E-02  0.1223505E+00
         -4   -1    0    0    0  501 -0.00000000000E+00  0.00000000000E+00  0.86342424931E+02  0.86351764562E+02  0.12700000000E+01 0. -1.
         21   -1    0    0  501  502  0.00000000000E+00 -0.00000000000E+00 -0.21755413577E+03  0.21755413577E+03  0.00000000000E+00 0.  1.
         25    2    1    2    0    0  0.31790499556E+02  0.31176058684E+02  0.30510418014E+02  0.13616132558E+03  0.12500575379E+03 0.  0.
    9000005    1    3    3    0    0 -0.42709513449E+02  0.20607284290E+02 -0.13071207136E+02  0.49199788220E+02  0.10000000000E+01 0.  0.
    9000005    1    3    3    0    0  0.74500013005E+02  0.10568774395E+02  0.43581625150E+02  0.86961537364E+02  0.10000000000E+01 0.  0.
         -4    1    1    2    0  502 -0.31790499556E+02 -0.31176058684E+02 -0.16172212886E+03  0.16774457475E+03  0.12700000000E+01 0.  1.
<mgrwt>
<rscale>  1 0.13269899E+03</rscale>
<asrwt>0</asrwt>
<pdfrwt beam="2">  1       21 0.33469867E-01 0.13269899E+03</pdfrwt>
<pdfrwt beam="1">  1       -4 0.13284454E-01 0.13269899E+03</pdfrwt>
<totfact> 0.16376346E+04</totfact>
</mgrwt>
</event>
<event>
 6    3  0.3813045E-003  0.1396736E+03  0.7818608E-02  0.1213769E+00
         21   -1    0    0  501  502  0.00000000000E+00  0.00000000000E+00  0.15478650179E+02  0.15478650179E+02  0.00000000000E+00 0. -1.
          4   -1    0    0  502    0 -0.00000000000E+00 -0.00000000000E+00 -0.65957182840E+03  0.65957305108E+03  0.12700000000E+01 0. -1.
         25    2    1    2    0    0 -0.23352525133E+02 -0.57777731947E+02 -0.43642722510E+03  0.45823295733E+03  0.12500045451E+03 0.  0.
    9000005    1    3    3    0    0  0.43573133236E+02 -0.19021820234E+02 -0.76396209798E+02  0.89987935061E+02  0.10000000000E+01 0.  0.
    9000005    1    3    3    0    0 -0.66925658369E+02 -0.38755911713E+02 -0.36003101531E+03  0.36824502226E+03  0.10000000000E+01 0.  0.
          4    1    1    2  501    0  0.23352525133E+02  0.57777731947E+02 -0.20766595312E+03  0.21681874394E+03  0.12700000000E+01 0.  1.
<mgrwt>
<rscale>  1 0.13967362E+03</rscale>
<asrwt>0</asrwt>
<pdfrwt beam="1">  1       21 0.23813315E-02 0.13967362E+03</pdfrwt>
<pdfrwt beam="2">  1        4 0.10147666E+00 0.13967362E+03</pdfrwt>
<totfact> 0.31096409E+04</totfact>
</mgrwt>
</event>
<event>
 6    3  0.3813045E-003  0.1517523E+03  0.7818608E-02  0.1198336E+00
          4   -1    0    0  502    0 -0.00000000000E+00  0.00000000000E+00  0.63399462602E+02  0.63412181466E+02  0.12700000000E+01 0.  1.
         21   -1    0    0  501  502  0.00000000000E+00 -0.00000000000E+00 -0.25241192659E+03  0.25241192659E+03  0.00000000000E+00 0. -1.
         25    2    1    2    0    0 -0.78470814257E+02 -0.35318289011E+02 -0.65498794977E+02  0.16528411483E+03  0.12499478486E+03 0.  0.
    9000005    1    3    3    0    0  0.88278188248E+01  0.93606184682E+01 -0.65959654716E+02  0.67210323713E+02  0.10000000000E+01 0.  0.
    9000005    1    3    3    0    0 -0.87298633082E+02 -0.44678907479E+02  0.46085973988E+00  0.98073791112E+02  0.10000000000E+01 0.  0.
          4    1    1    2  501    0  0.78470814257E+02  0.35318289011E+02 -0.12351366901E+03  0.15053999323E+03  0.12700000000E+01 0. -1.
<mgrwt>
<rscale>  1 0.15175225E+03</rscale>
<asrwt>0</asrwt>
<pdfrwt beam="2">  1       21 0.38832604E-01 0.15175225E+03</pdfrwt>
<pdfrwt beam="1">  1        4 0.97549877E-02 0.15175225E+03</pdfrwt>
<totfact> 0.20907913E+04</totfact>
</mgrwt>
</event>
<event>
 6    3  0.3813045E-003  0.1269628E+03  0.7818608E-02  0.1232033E+00
         -4   -1    0    0    0  501 -0.00000000000E+00  0.00000000000E+00  0.30345361132E+03  0.30345626888E+03  0.12700000000E+01 0.  1.
         21   -1    0    0  501  502  0.00000000000E+00 -0.00000000000E+00 -0.23984549663E+02  0.23984549663E+02  0.00000000000E+00 0.  1.
         25    2    1    2    0    0 -0.21818083972E+02  0.49530925481E+01  0.15214920109E+03  0.19816389984E+03  0.12497595727E+03 0.  0.
    9000005    1    3    3    0    0 -0.62788819653E+02  0.38633630030E+02  0.83150030580E+02  0.11113019764E+03  0.10000000000E+01 0.  0.
    9000005    1    3    3    0    0  0.40970735682E+02 -0.33680537482E+02  0.68999170509E+02  0.87033702198E+02  0.10000000000E+01 0.  0.
         -4    1    1    2    0  502  0.21818083972E+02 -0.49530925481E+01  0.12731986057E+03  0.12927691871E+03  0.12700000000E+01 0. -1.
<mgrwt>
<rscale>  1 0.12696280E+03</rscale>
<asrwt>0</asrwt>
<pdfrwt beam="2">  1       21 0.36899309E-02 0.12696280E+03</pdfrwt>
<pdfrwt beam="1">  1       -4 0.46687959E-01 0.12696280E+03</pdfrwt>
<totfact> 0.79767067E+04</totfact>
</mgrwt>
</event>
<event>
 6    3  0.3813045E-003  0.1274751E+03  0.7818608E-02  0.1231251E+00
          4   -1    0    0  502    0 -0.00000000000E+00  0.00000000000E+00  0.18465257848E+03  0.18465694582E+03  0.12700000000E+01 0. -1.
         21   -1    0    0  501  502  0.00000000000E+00 -0.00000000000E+00 -0.74883934526E+02  0.74883934526E+02  0.00000000000E+00 0.  1.
         25    2    1    2    0    0 -0.19902706159E+02 -0.15137506042E+02  0.15930932579E+03  0.20403273806E+03  0.12499854046E+03 0.  0.
    9000005    1    3    3    0    0  0.50627680797E+02 -0.23182497886E+02  0.81398118996E+02  0.98626791732E+02  0.10000000000E+01 0.  0.
    9000005    1    3    3    0    0 -0.70530386956E+02  0.80449918446E+01  0.77911206796E+02  0.10540594633E+03  0.10000000000E+01 0.  0.
          4    1    1    2  501    0  0.19902706159E+02  0.15137506042E+02 -0.49540681842E+02  0.55508142277E+02  0.12700000000E+01 0.  1.
<mgrwt>
<rscale>  1 0.12747508E+03</rscale>
<asrwt>0</asrwt>
<pdfrwt beam="2">  1       21 0.11520605E-01 0.12747508E+03</pdfrwt>
<pdfrwt beam="1">  1        4 0.28409253E-01 0.12747508E+03</pdfrwt>
<totfact> 0.30014813E+04</totfact>
</mgrwt>
</event>
<event>
 6    3  0.3813045E-003  0.1268502E+03  0.7818608E-02  0.1232206E+00
          4   -1    0    0  502    0 -0.00000000000E+00  0.00000000000E+00  0.98486521437E+01  0.99301988423E+01  0.12700000000E+01 0.  1.
         21   -1    0    0  501  502  0.00000000000E+00 -0.00000000000E+00 -0.58171248165E+03  0.58171248165E+03  0.00000000000E+00 0.  1.
         25    2    1    2    0    0  0.17358977822E+02  0.12813921159E+02 -0.43628248512E+03  0.45434940123E+03  0.12500176352E+03 0.  0.
    9000005    1    3    3    0    0 -0.19440513820E+02  0.28427090389E+02 -0.28787439680E+02  0.44897101564E+02  0.10000000000E+01 0.  0.
    9000005    1    3    3    0    0  0.36799491642E+02 -0.15613169230E+02 -0.40749504544E+03  0.40945229966E+03  0.10000000000E+01 0.  0.
          4    1    1    2  501    0 -0.17358977822E+02 -0.12813921159E+02 -0.13558134438E+03  0.13729327926E+03  0.12700000000E+01 0. -1.
<mgrwt>
<rscale>  1 0.12685019E+03</rscale>
<asrwt>0</asrwt>
<pdfrwt beam="2">  1       21 0.89494257E-01 0.12685019E+03</pdfrwt>
<pdfrwt beam="1">  1        4 0.15215562E-02 0.12685019E+03</pdfrwt>
<totfact> 0.66955641E+04</totfact>
</mgrwt>
</event>
<event>
 6    3  0.3813045E-003  0.1320523E+03  0.7818608E-02  0.1224442E+00
         -4   -1    0    0    0  501 -0.00000000000E+00  0.00000000000E+00  0.32792474970E+03  0.32792720894E+03  0.12700000000E+01 0. -1.
         21   -1    0    0  501  502  0.00000000000E+00 -0.00000000000E+00 -0.31210978043E+02  0.31210978043E+02  0.00000000000E+00 0. -1.
         25    2    1    2    0    0 -0.30274333468E+02  0.29925079082E+02  0.28631491652E+03  0.31529990790E+03  0.12500301945E+03 0.  0.
    9000005    1    3    3    0    0  0.25446346776E+02 -0.26415137122E+02  0.17409624470E+03  0.17792070833E+03  0.10000000000E+01 0.  0.
    9000005    1    3    3    0    0 -0.55720680244E+02  0.56340216204E+02  0.11221867182E+03  0.13737919957E+03  0.10000000000E+01 0.  0.
         -4    1    1    2    0  502  0.30274333468E+02 -0.29925079082E+02  0.10398855129E+02  0.43838279083E+02  0.12700000000E+01 0.  1.
<mgrwt>
<rscale>  1 0.13205226E+03</rscale>
<asrwt>0</asrwt>
<pdfrwt beam="2">  1       21 0.48016892E-02 0.13205226E+03</pdfrwt>
<pdfrwt beam="1">  1       -4 0.50452136E-01 0.13205226E+03</pdfrwt>
<totfact> 0.44205222E+04</totfact>
</mgrwt>
</event>
<event>
 6    3  0.3813045E-003  0.1270835E+03  0.7818608E-02  0.1231849E+00
          4   -1    0    0  502    0 -0.00000000000E+00  0.00000000000E+00  0.74863732304E+02  0.74874503768E+02  0.12700000000E+01 0. -1.
         21   -1    0    0  501  502  0.00000000000E+00 -0.00000000000E+00 -0.76058353236E+02  0.76058353236E+02  0.00000000000E+00 0. -1.
         25    2    1    2    0    0  0.13031595836E+02 -0.19228740845E+02 -0.58095544739E+01  0.12721624940E+03  0.12494261172E+03 0.  0.
    9000005    1    3    3    0    0  0.42444652685E+02  0.25250804450E+02 -0.40257348291E+02  0.63724451809E+02  0.10000000000E+01 0.  0.
    9000005    1    3    3    0    0 -0.29413056849E+02 -0.44479545295E+02  0.34447793817E+02  0.63491797594E+02  0.10000000000E+01 0.  0.
          4    1    1    2  501    0 -0.13031595836E+02  0.19228740845E+02  0.46149335421E+01  0.23716607602E+02  0.12700000000E+01 0.  1.
<mgrwt>
<rscale>  1 0.12708353E+03</rscale>
<asrwt>0</asrwt>
<pdfrwt beam="2">  1       21 0.11701285E-01 0.12708353E+03</pdfrwt>
<pdfrwt beam="1">  1        4 0.11519141E-01 0.12708353E+03</pdfrwt>
<totfact> 0.14564461E+05</totfact>
</mgrwt>
</event>
<event>
 6    3  0.3813045E-003  0.1274895E+03  0.7818608E-02  0.1231229E+00
         -4   -1    0    0    0  501 -0.00000000000E+00  0.00000000000E+00  0.42427953890E+02  0.42446957150E+02  0.12700000000E+01 0.  1.
         21   -1    0    0  501  502  0.00000000000E+00 -0.00000000000E+00 -0.16912348304E+03  0.16912348304E+03  0.00000000000E+00 0.  1.
         25    2    1    2    0    0  0.24321649795E+02 -0.59617105666E+01 -0.61157058720E+02  0.14139930191E+03  0.12500596829E+03 0.  0.
    9000005    1    3    3    0    0  0.14366870444E+01  0.54942311538E+02 -0.52036986137E+02  0.75693920450E+02  0.10000000000E+01 0.  0.
    9000005    1    3    3    0    0  0.22884962751E+02 -0.60904022105E+02 -0.91200725834E+01  0.65705381458E+02  0.10000000000E+01 0.  0.
         -4    1    1    2    0  502 -0.24321649795E+02  0.59617105666E+01 -0.65538470428E+02  0.70171138281E+02  0.12700000000E+01 0. -1.
<mgrwt>
<rscale>  1 0.12748952E+03</rscale>
<asrwt>0</asrwt>
<pdfrwt beam="2">  1       21 0.26018997E-01 0.12748952E+03</pdfrwt>
<pdfrwt beam="1">  1       -4 0.65292062E-02 0.12748952E+03</pdfrwt>
<totfact> 0.87047151E+04</totfact>
</mgrwt>
</event>
<event>
 6    3  0.3813045E-003  0.1429251E+03  0.7818608E-02  0.1209446E+00
         -4   -1    0    0    0  501 -0.00000000000E+00  0.00000000000E+00  0.89353925040E+02  0.89362949929E+02  0.12700000000E+01 0.  1.
         21   -1    0    0  501  502  0.00000000000E+00 -0.00000000000E+00 -0.46844484767E+03  0.46844484767E+03  0.00000000000E+00 0. -1.
         25    2    1    2    0    0  0.67134667108E+02  0.17410580787E+02  0.27325765177E+02  0.14551381404E+03  0.12496951941E+03 0.  0.
    9000005    1    3    3    0    0  0.49089013435E+02  0.30961720721E+02 -0.42618809860E+02  0.72011959729E+02  0.10000000000E+01 0.  0.
    9000005    1    3    3    0    0  0.18045653673E+02 -0.13551139934E+02  0.69944575037E+02  0.73501854311E+02  0.10000000000E+01 0.  0.
         -4    1    1    2    0  502 -0.67134667108E+02 -0.17410580787E+02 -0.40641668781E+03  0.41229398356E+03  0.12700000000E+01 0. -1.
<mgrwt>
<rscale>  1 0.14292506E+03</rscale>
<asrwt>0</asrwt>
<pdfrwt beam="2">  1       21 0.72068438E-01 0.14292506E+03</pdfrwt>
<pdfrwt beam="1">  1       -4 0.13747584E-01 0.14292506E+03</pdfrwt>
<totfact> 0.31783597E+03</totfact>
</mgrwt>
</event>
<event>
 6    3  0.3813045E-003  0.1359335E+03  0.7818608E-02  0.1218908E+00
          4   -1    0    0  502    0 -0.00000000000E+00  0.00000000000E+00  0.25751278689E+02  0.25782576561E+02  0.12700000000E+01 0.  1.
         21   -1    0    0  501  502  0.00000000000E+00 -0.00000000000E+00 -0.44704382199E+03  0.44704382199E+03  0.00000000000E+00 0. -1.
         25    2    1    2    0    0  0.57772214309E+01 -0.53103395860E+02 -0.17928835059E+03  0.22499381569E+03  0.12499822999E+03 0.  0.
    9000005    1    3    3    0    0  0.34371175871E+02  0.31340378053E+02 -0.55117027762E+02  0.72128245345E+02  0.10000000000E+01 0.  0.
    9000005    1    3    3    0    0 -0.28593954440E+02 -0.84443773914E+02 -0.12417132283E+03  0.15286557035E+03  0.10000000000E+01 0.  0.
          4    1    1    2  501    0 -0.57772214309E+01  0.53103395860E+02 -0.24200419271E+03  0.24783258286E+03  0.12700000000E+01 0. -1.
<mgrwt>
<rscale>  1 0.13593346E+03</rscale>
<asrwt>0</asrwt>
<pdfrwt beam="2">  1       21 0.68775970E-01 0.13593346E+03</pdfrwt>
<pdfrwt beam="1">  1        4 0.39642816E-02 0.13593346E+03</pdfrwt>
<totfact> 0.27392034E+04</totfact>
</mgrwt>
</event>
<event>
 6    3  0.3813045E-003  0.1284922E+03  0.7818608E-02  0.1229710E+00
         21   -1    0    0  501  502  0.00000000000E+00  0.00000000000E+00  0.12733646733E+03  0.12733646733E+03  0.00000000000E+00 0.  1.
         -4   -1    0    0    0  501 -0.00000000000E+00 -0.00000000000E+00 -0.49145263106E+02  0.49161669884E+02  0.12700000000E+01 0. -1.
         25    2    1    2    0    0  0.22671942593E+02  0.19196024733E+02  0.62855186209E+02  0.14304203620E+03  0.12501098088E+03 0.  0.
    9000005    1    3    3    0    0  0.73079862169E+02  0.32743968418E+01  0.50048408231E+02  0.88641023775E+02  0.10000000000E+01 0.  0.
    9000005    1    3    3    0    0 -0.50407919576E+02  0.15921627892E+02  0.12806777978E+02  0.54401012425E+02  0.10000000000E+01 0.  0.
         -4    1    1    2    0  502 -0.22671942593E+02 -0.19196024733E+02  0.15336018014E+02  0.33456101013E+02  0.12700000000E+01 0.  1.
<mgrwt>
<rscale>  1 0.12849222E+03</rscale>
<asrwt>0</asrwt>
<pdfrwt beam="1">  1       21 0.19590226E-01 0.12849222E+03</pdfrwt>
<pdfrwt beam="2">  1       -4 0.75625590E-02 0.12849222E+03</pdfrwt>
<totfact> 0.11644043E+05</totfact>
</mgrwt>
</event>
<event>
 6    3  0.3813045E-003  0.1273467E+03  0.7818608E-02  0.1231447E+00
         21   -1    0    0  501  502  0.00000000000E+00  0.00000000000E+00  0.12767812133E+03  0.12767812133E+03  0.00000000000E+00 0.  1.
          4   -1    0    0  502    0 -0.00000000000E+00 -0.00000000000E+00 -0.72748446268E+02  0.72759530884E+02  0.12700000000E+01 0.  1.
         25    2    1    2    0    0 -0.11951405716E+02  0.21127531979E+02 -0.13269674376E+02  0.12803618213E+03  0.12501188332E+03 0.  0.
    9000005    1    3    3    0    0 -0.17782253832E+02 -0.51057283245E+02 -0.12972157550E+02  0.55608736680E+02  0.10000000000E+01 0.  0.
    9000005    1    3    3    0    0  0.58308481167E+01  0.72184815223E+02 -0.29751682579E+00  0.72427445453E+02  0.10000000000E+01 0.  0.
          4    1    1    2  501    0  0.11951405716E+02 -0.21127531979E+02  0.68199349437E+02  0.72401470079E+02  0.12700000000E+01 0. -1.
<mgrwt>
<rscale>  1 0.12734669E+03</rscale>
<asrwt>0</asrwt>
<pdfrwt beam="1">  1       21 0.19642788E-01 0.12734669E+03</pdfrwt>
<pdfrwt beam="2">  1        4 0.11193407E-01 0.12734669E+03</pdfrwt>
<totfact> 0.60070037E+04</totfact>
</mgrwt>
</event>
<event>
 6    3  0.3813045E-003  0.1288648E+03  0.7818608E-02  0.1229150E+00
         21   -1    0    0  501  502  0.00000000000E+00  0.00000000000E+00  0.64350282163E+02  0.64350282163E+02  0.00000000000E+00 0.  1.
         -4   -1    0    0    0  501 -0.00000000000E+00 -0.00000000000E+00 -0.38957731384E+03  0.38957938390E+03  0.12700000000E+01 0. -1.
         25    2    1    2    0    0  0.11830957537E+02  0.29097017997E+02 -0.37418213158E+03  0.39575043680E+03  0.12497812857E+03 0.  0.
    9000005    1    3    3    0    0  0.34478536115E+02  0.70951444571E+02 -0.19501137552E+03  0.21036471548E+03  0.10000000000E+01 0.  0.
    9000005    1    3    3    0    0 -0.22647578578E+02 -0.41854426575E+02 -0.17917075606E+03  0.18538572131E+03  0.10000000000E+01 0.  0.
         -4    1    1    2    0  502 -0.11830957537E+02 -0.29097017997E+02  0.48955099897E+02  0.58179229270E+02  0.12700000000E+01 0.  1.
<mgrwt>
<rscale>  1 0.12886482E+03</rscale>
<asrwt>0</asrwt>
<pdfrwt beam="1">  1       21 0.99000437E-02 0.12886482E+03</pdfrwt>
<pdfrwt beam="2">  1       -4 0.59936093E-01 0.12886482E+03</pdfrwt>
<totfact> 0.89559012E+03</totfact>
</mgrwt>
</event>
<event>
 6    3  0.3813045E-003  0.1298898E+03  0.7818608E-02  0.1227619E+00
         21   -1    0    0  501  502  0.00000000000E+00  0.00000000000E+00  0.16724898449E+02  0.16724898449E+02  0.00000000000E+00 0.  1.
          4   -1    0    0  502    0 -0.00000000000E+00 -0.00000000000E+00 -0.54947630920E+03  0.54947777687E+03  0.12700000000E+01 0.  1.
         25    2    1    2    0    0 -0.58447957503E+00  0.35319162990E+02 -0.50450091253E+03  0.52095349366E+03  0.12499434757E+03 0.  0.
    9000005    1    3    3    0    0  0.10650912101E+02 -0.18922902415E+02 -0.41582783641E+03  0.41639561441E+03  0.10000000000E+01 0.  0.
    9000005    1    3    3    0    0 -0.11235391676E+02  0.54242065405E+02 -0.88673076117E+02  0.10455787925E+03  0.10000000000E+01 0.  0.
          4    1    1    2  501    0  0.58447957503E+00 -0.35319162990E+02 -0.28250498220E+02  0.45249181654E+02  0.12700000000E+01 0. -1.
<mgrwt>
<rscale>  1 0.12988984E+03</rscale>
<asrwt>0</asrwt>
<pdfrwt beam="1">  1       21 0.25730618E-02 0.12988984E+03</pdfrwt>
<pdfrwt beam="2">  1        4 0.84538623E-01 0.12988984E+03</pdfrwt>
<totfact> 0.41159214E+04</totfact>
</mgrwt>
</event>
<event>
 6    3  0.3813045E-003  0.1294002E+03  0.7818608E-02  0.1228348E+00
         21   -1    0    0  501  502  0.00000000000E+00  0.00000000000E+00  0.17914511165E+03  0.17914511165E+03  0.00000000000E+00 0.  1.
          4   -1    0    0  502    0 -0.00000000000E+00 -0.00000000000E+00 -0.83844810489E+02  0.83854428302E+02  0.12700000000E+01 0. -1.
         25    2    1    2    0    0 -0.22797632374E+02  0.24495328646E+02 -0.30393344197E+02  0.13292164579E+03  0.12499862151E+03 0.  0.
    9000005    1    3    3    0    0  0.32179513314E+02  0.93883133175E+01 -0.59950435965E+02  0.68692912855E+02  0.10000000000E+01 0.  0.
    9000005    1    3    3    0    0 -0.54977145688E+02  0.15107015329E+02  0.29557091768E+02  0.64228732931E+02  0.10000000000E+01 0.  0.
          4    1    1    2  501    0  0.22797632374E+02 -0.24495328646E+02  0.12569364536E+03  0.13007789416E+03  0.12700000000E+01 0.  1.
<mgrwt>
<rscale>  1 0.12940019E+03</rscale>
<asrwt>0</asrwt>
<pdfrwt beam="1">  1       21 0.27560786E-01 0.12940019E+03</pdfrwt>
<pdfrwt beam="2">  1        4 0.12900288E-01 0.12940019E+03</pdfrwt>
<totfact> 0.25011971E+04</totfact>
</mgrwt>
</event>
<event>
 6    3  0.3813045E-003  0.1311049E+03  0.7818608E-02  0.1225825E+00
          4   -1    0    0  502    0 -0.00000000000E+00  0.00000000000E+00  0.33013951102E+02  0.33038369624E+02  0.12700000000E+01 0. -1.
         21   -1    0    0  501  502  0.00000000000E+00 -0.00000000000E+00 -0.33255221596E+03  0.33255221596E+03  0.00000000000E+00 0.  1.
         25    2    1    2    0    0  0.56261573767E+01  0.39163592888E+02 -0.10758115221E+03  0.16959419110E+03  0.12499217851E+03 0.  0.
    9000005    1    3    3    0    0 -0.21806386547E+02 -0.28735750262E+02 -0.85965311787E+02  0.93232487192E+02  0.10000000000E+01 0.  0.
    9000005    1    3    3    0    0  0.27432543923E+02  0.67899343150E+02 -0.21615840421E+02  0.76361703906E+02  0.10000000000E+01 0.  0.
          4    1    1    2  501    0 -0.56261573767E+01 -0.39163592888E+02 -0.19195711265E+03  0.19599639449E+03  0.12700000000E+01 0.  1.
<mgrwt>
<rscale>  1 0.13110486E+03</rscale>
<asrwt>0</asrwt>
<pdfrwt beam="2">  1       21 0.51161879E-01 0.13110486E+03</pdfrwt>
<pdfrwt beam="1">  1        4 0.50811344E-02 0.13110486E+03</pdfrwt>
<totfact> 0.34405130E+04</totfact>
</mgrwt>
</event>
<event>
 6    3  0.3813045E-003  0.1300174E+03  0.7818608E-02  0.1227430E+00
         21   -1    0    0  501  502  0.00000000000E+00  0.00000000000E+00  0.10389737643E+02  0.10389737643E+02  0.00000000000E+00 0.  1.
          4   -1    0    0  502    0 -0.00000000000E+00 -0.00000000000E+00 -0.66180664125E+03  0.66180785980E+03  0.12700000000E+01 0.  1.
         25    2    1    2    0    0  0.25060519641E+02  0.25526901956E+02 -0.50494527439E+03  0.52141562428E+03  0.12499948297E+03 0.  0.
    9000005    1    3    3    0    0  0.62097686549E+02 -0.17470085128E+01 -0.13488344775E+03  0.14850494668E+03  0.10000000000E+01 0.  0.
    9000005    1    3    3    0    0 -0.37037166909E+02  0.27273910469E+02 -0.37006182664E+03  0.37291067759E+03  0.10000000000E+01 0.  0.
          4    1    1    2  501    0 -0.25060519641E+02 -0.25526901956E+02 -0.14647162921E+03  0.15078197317E+03  0.12700000000E+01 0. -1.
<mgrwt>
<rscale>  1 0.13001740E+03</rscale>
<asrwt>0</asrwt>
<pdfrwt beam="1">  1       21 0.15984206E-02 0.13001740E+03</pdfrwt>
<pdfrwt beam="2">  1        4 0.10182251E+00 0.13001740E+03</pdfrwt>
<totfact> 0.58185212E+04</totfact>
</mgrwt>
</event>
<event>
 6    3  0.3813045E-003  0.1278112E+03  0.7818608E-02  0.1230740E+00
         21   -1    0    0  501  502  0.00000000000E+00  0.00000000000E+00  0.51815226291E+03  0.51815226291E+03  0.00000000000E+00 0.  1.
         -4   -1    0    0    0  501 -0.00000000000E+00 -0.00000000000E+00 -0.38684065592E+02  0.38704907063E+02  0.12700000000E+01 0. -1.
         25    2    1    2    0    0 -0.26561432529E+02 -0.22191131233E+01  0.68474526741E+02  0.14499815973E+03  0.12500108541E+03 0.  0.
    9000005    1    3    3    0    0  0.13562410167E+02 -0.26853453594E+01 -0.33043312492E+02  0.35833092941E+02  0.10000000000E+01 0.  0.
    9000005    1    3    3    0    0 -0.40123842696E+02  0.46623223609E+00  0.10151783923E+03  0.10916506679E+03  0.10000000000E+01 0.  0.
         -4    1    1    2    0  502  0.26561432529E+02  0.22191131233E+01  0.41099367058E+03  0.41185901024E+03  0.12700000000E+01 0.  1.
<mgrwt>
<rscale>  1 0.12781121E+03</rscale>
<asrwt>0</asrwt>
<pdfrwt beam="1">  1       21 0.79715728E-01 0.12781121E+03</pdfrwt>
<pdfrwt beam="2">  1       -4 0.59531180E-02 0.12781121E+03</pdfrwt>
<totfact> 0.10254478E+04</totfact>
</mgrwt>
</event>
<event>
 6    3  0.3813045E-003  0.1290535E+03  0.7818608E-02  0.1228867E+00
         -4   -1    0    0    0  501 -0.00000000000E+00  0.00000000000E+00  0.39599056017E+03  0.39599259670E+03  0.12700000000E+01 0. -1.
         21   -1    0    0  501  502  0.00000000000E+00 -0.00000000000E+00 -0.19891194827E+02  0.19891194827E+02  0.00000000000E+00 0.  1.
         25    2    1    2    0    0 -0.30588993786E+02  0.10060193371E+02  0.35404866848E+03  0.37683587016E+03  0.12497167420E+03 0.  0.
    9000005    1    3    3    0    0  0.31544847647E+02 -0.23894047795E+02  0.23506052649E+03  0.23837041353E+03  0.10000000000E+01 0.  0.
    9000005    1    3    3    0    0 -0.62133841432E+02  0.33954241166E+02  0.11898814199E+03  0.13846545663E+03  0.10000000000E+01 0.  0.
         -4    1    1    2    0  502  0.30588993786E+02 -0.10060193371E+02  0.22050696862E+02  0.39047921373E+02  0.12700000000E+01 0.  1.
<mgrwt>
<rscale>  1 0.12905353E+03</rscale>
<asrwt>0</asrwt>
<pdfrwt beam="2">  1       21 0.30601841E-02 0.12905353E+03</pdfrwt>
<pdfrwt beam="1">  1       -4 0.60924894E-01 0.12905353E+03</pdfrwt>
<totfact> 0.62957085E+04</totfact>
</mgrwt>
</event>
<event>
 6    3  0.3813045E-003  0.1307239E+03  0.7818608E-02  0.1226385E+00
          4   -1    0    0  502    0 -0.00000000000E+00  0.00000000000E+00  0.14386502160E+03  0.14387062709E+03  0.12700000000E+01 0.  1.
         21   -1    0    0  501  502  0.00000000000E+00 -0.00000000000E+00 -0.59435339063E+02  0.59435339063E+02  0.00000000000E+00 0.  1.
         25    2    1    2    0    0 -0.20494651185E+02 -0.32313503052E+02  0.97250272868E+02  0.16293055727E+03  0.12499823083E+03 0.  0.
    9000005    1    3    3    0    0  0.37884045483E+02 -0.48434864762E+02  0.78092550911E+02  0.99401124413E+02  0.10000000000E+01 0.  0.
    9000005    1    3    3    0    0 -0.58378696668E+02  0.16121361710E+02  0.19157721956E+02  0.63529432853E+02  0.10000000000E+01 0.  0.
          4    1    1    2  501    0  0.20494651185E+02  0.32313503052E+02 -0.12820590329E+02  0.40375408891E+02  0.12700000000E+01 0. -1.
<mgrwt>
<rscale>  1 0.13072395E+03</rscale>
<asrwt>0</asrwt>
<pdfrwt beam="2">  1       21 0.91438984E-02 0.13072395E+03</pdfrwt>
<pdfrwt beam="1">  1        4 0.22134555E-01 0.13072395E+03</pdfrwt>
<totfact> 0.71546161E+04</totfact>
</mgrwt>
</event>
<event>
 6    3  0.3813045E-003  0.1408805E+03  0.7818608E-02  0.1212149E+00
         21   -1    0    0  501  502  0.00000000000E+00  0.00000000000E+00  0.64684978655E+02  0.64684978655E+02  0.00000000000E+00 0.  1.
          4   -1    0    0  502    0 -0.00000000000E+00 -0.00000000000E+00 -0.28911076266E+03  0.28911355206E+03  0.12700000000E+01 0. -1.
         25    2    1    2    0    0 -0.53954357079E+02 -0.36208463679E+02 -0.24753884562E+03  0.28482062116E+03  0.12500072261E+03 0.  0.
    9000005    1    3    3    0    0 -0.29708613249E+02 -0.98859438641E+01 -0.24703755671E+03  0.24901583888E+03  0.10000000000E+01 0.  0.
    9000005    1    3    3    0    0 -0.24245743831E+02 -0.26322519815E+02 -0.50128891544E+00  0.35804782277E+02  0.10000000000E+01 0.  0.
          4    1    1    2  501    0  0.53954357079E+02  0.36208463679E+02  0.23113061621E+02  0.68977909560E+02  0.12700000000E+01 0.  1.
<mgrwt>
<rscale>  1 0.14088047E+03</rscale>
<asrwt>0</asrwt>
<pdfrwt beam="1">  1       21 0.99515352E-02 0.14088047E+03</pdfrwt>
<pdfrwt beam="2">  1        4 0.44479753E-01 0.14088047E+03</pdfrwt>
<totfact> 0.16481505E+04</totfact>
</mgrwt>
</event>
<event>
 6    3  0.3813045E-003  0.1356588E+03  0.7818608E-02  0.1219293E+00
         -4   -1    0    0    0  501 -0.00000000000E+00  0.00000000000E+00  0.20122195042E+03  0.20122595814E+03  0.12700000000E+01 0.  1.
         21   -1    0    0  501  502  0.00000000000E+00 -0.00000000000E+00 -0.82270661794E+02  0.82270661794E+02  0.00000000000E+00 0. -1.
         25    2    1    2    0    0 -0.31167468161E+02  0.42507774742E+02  0.16492010137E+03  0.21354616153E+03  0.12500000513E+03 0.  0.
    9000005    1    3    3    0    0 -0.62993203194E+02  0.59521776915E+02  0.15242396333E+03  0.17534266501E+03  0.10000000000E+01 0.  0.
    9000005    1    3    3    0    0  0.31825735033E+02 -0.17014002173E+02  0.12496138042E+02  0.38203496519E+02  0.10000000000E+01 0.  0.
         -4    1    1    2    0  502  0.31167468161E+02 -0.42507774742E+02 -0.45968812751E+02  0.69950458404E+02  0.12700000000E+01 0. -1.
<mgrwt>
<rscale>  1 0.13565885E+03</rscale>
<asrwt>0</asrwt>
<pdfrwt beam="2">  1       21 0.12657025E-01 0.13565885E+03</pdfrwt>
<pdfrwt beam="1">  1       -4 0.30958285E-01 0.13565885E+03</pdfrwt>
<totfact> 0.21750406E+04</totfact>
</mgrwt>
</event>
<event>
 6    3  0.3813045E-003  0.1302685E+03  0.7818608E-02  0.1227058E+00
          4   -1    0    0  502    0 -0.00000000000E+00  0.00000000000E+00  0.32054521702E+03  0.32054773288E+03  0.12700000000E+01 0.  1.
         21   -1    0    0  501  502  0.00000000000E+00 -0.00000000000E+00 -0.30810651017E+02  0.30810651017E+02  0.00000000000E+00 0. -1.
         25    2    1    2    0    0 -0.83930145833E+01  0.35701452996E+02  0.28624835107E+03  0.31449643828E+03  0.12499941905E+03 0.  0.
    9000005    1    3    3    0    0 -0.29791463630E+02  0.64907799042E+02  0.89822342324E+02  0.11475890755E+03  0.10000000000E+01 0.  0.
    9000005    1    3    3    0    0  0.21398449047E+02 -0.29206346046E+02  0.19642600874E+03  0.19973753073E+03  0.10000000000E+01 0.  0.
          4    1    1    2  501    0  0.83930145833E+01 -0.35701452996E+02  0.34862149326E+01  0.36861945613E+02  0.12700000000E+01 0. -1.
<mgrwt>
<rscale>  1 0.13026853E+03</rscale>
<asrwt>0</asrwt>
<pdfrwt beam="2">  1       21 0.47401004E-02 0.13026853E+03</pdfrwt>
<pdfrwt beam="1">  1        4 0.49316853E-01 0.13026853E+03</pdfrwt>
<totfact> 0.47229116E+04</totfact>
</mgrwt>
</event>
<event>
 6    3  0.3813045E-003  0.1288368E+03  0.7818608E-02  0.1229192E+00
         21   -1    0    0  501  502  0.00000000000E+00  0.00000000000E+00  0.82728279923E+01  0.82728279923E+01  0.00000000000E+00 0. -1.
          4   -1    0    0  502    0 -0.00000000000E+00 -0.00000000000E+00 -0.77415090491E+03  0.77415194663E+03  0.12700000000E+01 0. -1.
         25    2    1    2    0    0  0.76973574488E+01  0.30219343667E+02 -0.62050145585E+03  0.63373572696E+03  0.12500582732E+03 0.  0.
    9000005    1    3    3    0    0 -0.35893854780E+02  0.44521298073E+02 -0.14270589111E+03  0.15374162140E+03  0.10000000000E+01 0.  0.
    9000005    1    3    3    0    0  0.43591212229E+02 -0.14301954407E+02 -0.47779556474E+03  0.47999410556E+03  0.10000000000E+01 0.  0.
          4    1    1    2  501    0 -0.76973574488E+01 -0.30219343667E+02 -0.14537662107E+03  0.14868904767E+03  0.12700000000E+01 0.  1.
<mgrwt>
<rscale>  1 0.12883678E+03</rscale>
<asrwt>0</asrwt>
<pdfrwt beam="1">  1       21 0.12727424E-02 0.12883678E+03</pdfrwt>
<pdfrwt beam="2">  1        4 0.11910775E+00 0.12883678E+03</pdfrwt>
<totfact> 0.57768339E+04</totfact>
</mgrwt>
</event>
<event>
 6    3  0.3813045E-003  0.1279065E+03  0.7818608E-02  0.1230596E+00
         21   -1    0    0  501  502  0.00000000000E+00  0.00000000000E+00  0.20125171182E+02  0.20125171182E+02  0.00000000000E+00 0. -1.
          4   -1    0    0  502    0 -0.00000000000E+00 -0.00000000000E+00 -0.39614962509E+03  0.39615166081E+03  0.12700000000E+01 0. -1.
         25    2    1    2    0    0 -0.20580461445E+02 -0.17670957243E+02 -0.36536016856E+03  0.38710221965E+03  0.12499703022E+03 0.  0.
    9000005    1    3    3    0    0  0.51418447945E+02 -0.21627082465E+02 -0.15843836999E+03  0.16797411875E+03  0.10000000000E+01 0.  0.
    9000005    1    3    3    0    0 -0.71998909390E+02  0.39561252216E+01 -0.20692179857E+03  0.21912810090E+03  0.10000000000E+01 0.  0.
          4    1    1    2  501    0  0.20580461445E+02  0.17670957243E+02 -0.10664285352E+02  0.29174612341E+02  0.12700000000E+01 0.  1.
<mgrwt>
<rscale>  1 0.12790651E+03</rscale>
<asrwt>0</asrwt>
<pdfrwt beam="1">  1       21 0.30961802E-02 0.12790651E+03</pdfrwt>
<pdfrwt beam="2">  1        4 0.60949335E-01 0.12790651E+03</pdfrwt>
<totfact> 0.61630779E+04</totfact>
</mgrwt>
</event>
<event>
 6    3  0.3813045E-003  0.1402802E+03  0.7818608E-02  0.1212952E+00
          4   -1    0    0  502    0 -0.00000000000E+00  0.00000000000E+00  0.15148484049E+03  0.15149016403E+03  0.12700000000E+01 0. -1.
         21   -1    0    0  501  502  0.00000000000E+00 -0.00000000000E+00 -0.74853998135E+02  0.74853998135E+02  0.00000000000E+00 0. -1.
         25    2    1    2    0    0 -0.46766755326E+02  0.43202323588E+02  0.81913829252E+02  0.16244507753E+03  0.12499983050E+03 0.  0.
    9000005    1    3    3    0    0 -0.88699292067E+02  0.33737043039E+02  0.69686889216E+02  0.11774130547E+03  0.10000000000E+01 0.  0.
    9000005    1    3    3    0    0  0.41932536741E+02  0.94652805492E+01  0.12226940036E+02  0.44703772056E+02  0.10000000000E+01 0.  0.
          4    1    1    2  501    0  0.46766755326E+02 -0.43202323588E+02 -0.52829868939E+01  0.63899084638E+02  0.12700000000E+01 0.  1.
<mgrwt>
<rscale>  1 0.14028018E+03</rscale>
<asrwt>0</asrwt>
<pdfrwt beam="2">  1       21 0.11516000E-01 0.14028018E+03</pdfrwt>
<pdfrwt beam="1">  1        4 0.23306598E-01 0.14028018E+03</pdfrwt>
<totfact> 0.43821993E+04</totfact>
</mgrwt>
</event>
<event>
 6    3  0.3813045E-003  0.1290340E+03  0.7818608E-02  0.1228896E+00
          4   -1    0    0  502    0 -0.00000000000E+00  0.00000000000E+00  0.84136219692E+02  0.84145804198E+02  0.12700000000E+01 0.  1.
         21   -1    0    0  501  502  0.00000000000E+00 -0.00000000000E+00 -0.14742935734E+03  0.14742935734E+03  0.00000000000E+00 0. -1.
         25    2    1    2    0    0  0.16467477083E+02 -0.27446950321E+02  0.30392014747E+02  0.13256489155E+03  0.12500105211E+03 0.  0.
    9000005    1    3    3    0    0  0.21842390703E+02  0.12612768758E+02 -0.42372961288E+02  0.49321798585E+02  0.10000000000E+01 0.  0.
    9000005    1    3    3    0    0 -0.53749136198E+01 -0.40059719079E+02  0.72764976035E+02  0.83243092966E+02  0.10000000000E+01 0.  0.
          4    1    1    2  501    0 -0.16467477083E+02  0.27446950321E+02 -0.93685152392E+02  0.99010269984E+02  0.12700000000E+01 0. -1.
<mgrwt>
<rscale>  1 0.12903401E+03</rscale>
<asrwt>0</asrwt>
<pdfrwt beam="2">  1       21 0.22681439E-01 0.12903401E+03</pdfrwt>
<pdfrwt beam="1">  1        4 0.12945192E-01 0.12903401E+03</pdfrwt>
<totfact> 0.35922067E+04</totfact>
</mgrwt>
</event>
<event>
 6    3  0.3813045E-003  0.1336720E+03  0.7818608E-02  0.1222107E+00
          4   -1    0    0  502    0 -0.00000000000E+00  0.00000000000E+00  0.84400939156E+01  0.85351089802E+01  0.12700000000E+01 0.  1.
         21   -1    0    0  501  502  0.00000000000E+00 -0.00000000000E+00 -0.10900707391E+04  0.10900707391E+04  0.00000000000E+00 0. -1.
         25    2    1    2    0    0 -0.44587114258E+02  0.15994834735E+02 -0.60316996273E+03  0.61780434741E+03  0.12499744892E+03 0.  0.
    9000005    1    3    3    0    0 -0.84666506993E+02  0.31941779641E+02 -0.40246924933E+03  0.41251811033E+03  0.10000000000E+01 0.  0.
    9000005    1    3    3    0    0  0.40079392735E+02 -0.15946944906E+02 -0.20070071341E+03  0.20528623708E+03  0.10000000000E+01 0.  0.
          4    1    1    2  501    0  0.44587114258E+02 -0.15994834735E+02 -0.47846068240E+03  0.48080150062E+03  0.12700000000E+01 0. -1.
<mgrwt>
<rscale>  1 0.13367202E+03</rscale>
<asrwt>0</asrwt>
<pdfrwt beam="2">  1       21 0.16770324E+00 0.13367202E+03</pdfrwt>
<pdfrwt beam="1">  1        4 0.13058413E-02 0.13367202E+03</pdfrwt>
<totfact> 0.18046130E+04</totfact>
</mgrwt>
</event>
<event>
 6    3  0.3813045E-003  0.1276892E+03  0.7818608E-02  0.1230925E+00
         21   -1    0    0  501  502  0.00000000000E+00  0.00000000000E+00  0.20900424793E+03  0.20900424793E+03  0.00000000000E+00 0.  1.
         -4   -1    0    0    0  501 -0.00000000000E+00 -0.00000000000E+00 -0.44842834698E+02  0.44860815014E+02  0.12700000000E+01 0. -1.
         25    2    1    2    0    0  0.24188280416E+02  0.97276282534E+01  0.50611645281E+02  0.13735385163E+03  0.12499936903E+03 0.  0.
    9000005    1    3    3    0    0  0.71214756039E+02  0.12107796530E+02  0.60170619002E+01  0.72493760065E+02  0.10000000000E+01 0.  0.
    9000005    1    3    3    0    0 -0.47026475622E+02 -0.23801682768E+01  0.44594583381E+02  0.64860091562E+02  0.10000000000E+01 0.  0.
         -4    1    1    2    0  502 -0.24188280416E+02 -0.97276282534E+01  0.11354976796E+03  0.11651121132E+03  0.12700000000E+01 0.  1.
<mgrwt>
<rscale>  1 0.12768924E+03</rscale>
<asrwt>0</asrwt>
<pdfrwt beam="1">  1       21 0.32154499E-01 0.12768924E+03</pdfrwt>
<pdfrwt beam="2">  1       -4 0.69005777E-02 0.12768924E+03</pdfrwt>
<totfact> 0.52964052E+04</totfact>
</mgrwt>
</event>
<event>
 6    3  0.3813045E-003  0.1309244E+03  0.7818608E-02  0.1226091E+00
         21   -1    0    0  501  502  0.00000000000E+00  0.00000000000E+00  0.59454184894E+02  0.59454184894E+02  0.00000000000E+00 0. -1.
          4   -1    0    0  502    0 -0.00000000000E+00 -0.00000000000E+00 -0.41428342606E+03  0.41428537267E+03  0.12700000000E+01 0.  1.
         25    2    1    2    0    0  0.93617161535E+01  0.37794103698E+02 -0.39598644510E+03  0.41706889196E+03  0.12500063971E+03 0.  0.
    9000005    1    3    3    0    0  0.49069122352E+02  0.27555990463E+02 -0.35372304990E+03  0.35817329243E+03  0.10000000000E+01 0.  0.
    9000005    1    3    3    0    0 -0.39707406199E+02  0.10238113235E+02 -0.42263395204E+02  0.58895599528E+02  0.10000000000E+01 0.  0.
          4    1    1    2  501    0 -0.93617161535E+01 -0.37794103698E+02  0.41157203941E+02  0.56670665603E+02  0.12700000000E+01 0. -1.
<mgrwt>
<rscale>  1 0.13092439E+03</rscale>
<asrwt>0</asrwt>
<pdfrwt beam="1">  1       21 0.91467975E-02 0.13092439E+03</pdfrwt>
<pdfrwt beam="2">  1        4 0.63737106E-01 0.13092439E+03</pdfrwt>
<totfact> 0.90442018E+03</totfact>
</mgrwt>
</event>
<event>
 6    3  0.3813045E-003  0.1271660E+03  0.7818608E-02  0.1231723E+00
         -4   -1    0    0    0  501 -0.00000000000E+00  0.00000000000E+00  0.77295376514E+03  0.77295480847E+03  0.12700000000E+01 0.  1.
         21   -1    0    0  501  502  0.00000000000E+00 -0.00000000000E+00 -0.13656425921E+02  0.13656425921E+02  0.00000000000E+00 0. -1.
         25    2    1    2    0    0  0.75637271877E+01 -0.22108861905E+02  0.75114070841E+03  0.76182907812E+03  0.12500067474E+03 0.  0.
    9000005    1    3    3    0    0 -0.30129454518E+02 -0.26008579728E+02  0.77559418479E+02  0.87181957100E+02  0.10000000000E+01 0.  0.
    9000005    1    3    3    0    0  0.37693181706E+02  0.38997178223E+01  0.67358128993E+03  0.67464712101E+03  0.10000000000E+01 0.  0.
         -4    1    1    2    0  502 -0.75637271877E+01  0.22108861905E+02  0.81566308056E+01  0.24782156279E+02  0.12700000000E+01 0. -1.
<mgrwt>
<rscale>  1 0.12716596E+03</rscale>
<asrwt>0</asrwt>
<pdfrwt beam="2">  1       21 0.21009892E-02 0.12716596E+03</pdfrwt>
<pdfrwt beam="1">  1       -4 0.11892055E+00 0.12716596E+03</pdfrwt>
<totfact> 0.25939176E+04</totfact>
</mgrwt>
</event>
<event>
 6    3  0.3813045E-003  0.1330655E+03  0.7818608E-02  0.1222977E+00
         21   -1    0    0  501  502  0.00000000000E+00  0.00000000000E+00  0.10635192196E+04  0.10635192196E+04  0.00000000000E+00 0.  1.
          4   -1    0    0  502    0 -0.00000000000E+00 -0.00000000000E+00 -0.75605511379E+01  0.76664746467E+01  0.12700000000E+01 0. -1.
         25    2    1    2    0    0 -0.40834537609E+02  0.20326735161E+02  0.83829555870E+03  0.84879082498E+03  0.12500314081E+03 0.  0.
    9000005    1    3    3    0    0  0.28188388471E+02  0.39087324206E+02  0.17074098444E+03  0.17741445242E+03  0.10000000000E+01 0.  0.
    9000005    1    3    3    0    0 -0.69022926080E+02 -0.18760589045E+02  0.66755457425E+03  0.67137637256E+03  0.10000000000E+01 0.  0.
          4    1    1    2  501    0  0.40834537609E+02 -0.20326735161E+02  0.21766310977E+03  0.22239486928E+03  0.12700000000E+01 0.  1.
<mgrwt>
<rscale>  1 0.13306548E+03</rscale>
<asrwt>0</asrwt>
<pdfrwt beam="1">  1       21 0.16361822E+00 0.13306548E+03</pdfrwt>
<pdfrwt beam="2">  1        4 0.11713689E-02 0.13306548E+03</pdfrwt>
<totfact> 0.22725113E+04</totfact>
</mgrwt>
</event>
<event>
 6    3  0.3813045E-003  0.1325423E+03  0.7818608E-02  0.1223731E+00
         21   -1    0    0  501  502  0.00000000000E+00  0.00000000000E+00  0.56350940825E+03  0.56350940825E+03  0.00000000000E+00 0.  1.
         -4   -1    0    0    0  501 -0.00000000000E+00 -0.00000000000E+00 -0.15075704916E+02  0.15129103698E+02  0.12700000000E+01 0. -1.
         25    2    1    2    0    0  0.31039371485E+02  0.31281572152E+02  0.32666280651E+03  0.35252809000E+03  0.12500194294E+03 0.  0.
    9000005    1    3    3    0    0 -0.22176717312E+02  0.62429716851E+02  0.12271785820E+03  0.13946307418E+03  0.10000000000E+01 0.  0.
    9000005    1    3    3    0    0  0.53216088797E+02 -0.31148144699E+02  0.20394494831E+03  0.21306501582E+03  0.10000000000E+01 0.  0.
         -4    1    1    2    0  502 -0.31039371485E+02 -0.31281572152E+02  0.22177089682E+03  0.22611042195E+03  0.12700000000E+01 0.  1.
<mgrwt>
<rscale>  1 0.13254231E+03</rscale>
<asrwt>0</asrwt>
<pdfrwt beam="1">  1       21 0.86693739E-01 0.13254231E+03</pdfrwt>
<pdfrwt beam="2">  1       -4 0.23235573E-02 0.13254231E+03</pdfrwt>
<totfact> 0.37738064E+04</totfact>
</mgrwt>
</event>
<event>
 6    3  0.3813045E-003  0.1279132E+03  0.7818608E-02  0.1230585E+00
         21   -1    0    0  501  502  0.00000000000E+00  0.00000000000E+00  0.50811453390E+02  0.50811453390E+02  0.00000000000E+00 0.  1.
          4   -1    0    0  502    0 -0.00000000000E+00 -0.00000000000E+00 -0.12213964934E+03  0.12214625185E+03  0.12700000000E+01 0.  1.
         25    2    1    2    0    0  0.17085410263E+02  0.21104677481E+02 -0.69831010321E+02  0.14573321038E+03  0.12499791979E+03 0.  0.
    9000005    1    3    3    0    0  0.22615680939E+02  0.69383790840E+02 -0.63455324973E+02  0.96711724848E+02  0.10000000000E+01 0.  0.
    9000005    1    3    3    0    0 -0.55302706762E+01 -0.48279113359E+02 -0.63756853478E+01  0.49021485535E+02  0.10000000000E+01 0.  0.
          4    1    1    2  501    0 -0.17085410263E+02 -0.21104677481E+02 -0.14971856303E+01  0.27224494858E+02  0.12700000000E+01 0. -1.
<mgrwt>
<rscale>  1 0.12791325E+03</rscale>
<asrwt>0</asrwt>
<pdfrwt beam="1">  1       21 0.78171467E-02 0.12791325E+03</pdfrwt>
<pdfrwt beam="2">  1        4 0.18792444E-01 0.12791325E+03</pdfrwt>
<totfact> 0.12562419E+05</totfact>
</mgrwt>
</event>
<event>
 6    3  0.3813045E-003  0.1350928E+03  0.7818608E-02  0.1220089E+00
         -4   -1    0    0    0  501 -0.00000000000E+00  0.00000000000E+00  0.32972924371E+02  0.32997373252E+02  0.12700000000E+01 0. -1.
         21   -1    0    0  501  502  0.00000000000E+00 -0.00000000000E+00 -0.73055588360E+03  0.73055588360E+03  0.00000000000E+00 0.  1.
         25    2    1    2    0    0 -0.49670055406E+02  0.12590436848E+02 -0.11130684298E+03  0.17504078385E+03  0.12499771682E+03 0.  0.
    9000005    1    3    3    0    0  0.36998088945E+02 -0.18037991700E+02 -0.21171809480E+02  0.46297659193E+02  0.10000000000E+01 0.  0.
    9000005    1    3    3    0    0 -0.86668144351E+02  0.30628428548E+02 -0.90135033504E+02  0.12874312465E+03  0.10000000000E+01 0.  0.
         -4    1    1    2    0  502  0.49670055406E+02 -0.12590436848E+02 -0.58627611625E+03  0.58851247301E+03  0.12700000000E+01 0.  1.
<mgrwt>
<rscale>  1 0.13509279E+03</rscale>
<asrwt>0</asrwt>
<pdfrwt beam="2">  1       21 0.11239321E+00 0.13509279E+03</pdfrwt>
<pdfrwt beam="1">  1       -4 0.50747234E-02 0.13509279E+03</pdfrwt>
<totfact> 0.60094232E+03</totfact>
</mgrwt>
</event>
<event>
 6    3  0.3813045E-003  0.1336250E+03  0.7818608E-02  0.1222174E+00
         -4   -1    0    0    0  501 -0.00000000000E+00  0.00000000000E+00  0.30148658841E+03  0.30148926331E+03  0.12700000000E+01 0. -1.
         21   -1    0    0  501  502  0.00000000000E+00 -0.00000000000E+00 -0.87651785251E+02  0.87651785251E+02  0.00000000000E+00 0.  1.
         25    2    1    2    0    0  0.46782284250E+02 -0.64959755891E+01  0.27859117795E+03  0.30898008053E+03  0.12499946366E+03 0.  0.
    9000005    1    3    3    0    0  0.24313750070E+02 -0.64767602291E+02  0.17263754301E+03  0.18598581130E+03  0.10000000000E+01 0.  0.
    9000005    1    3    3    0    0  0.22468534180E+02  0.58271626702E+02  0.10595363494E+03  0.12299426923E+03  0.10000000000E+01 0.  0.
         -4    1    1    2    0  502 -0.46782284250E+02  0.64959755891E+01 -0.64756374793E+02  0.80160968026E+02  0.12700000000E+01 0.  1.
<mgrwt>
<rscale>  1 0.13362502E+03</rscale>
<asrwt>0</asrwt>
<pdfrwt beam="2">  1       21 0.13484890E-01 0.13362502E+03</pdfrwt>
<pdfrwt beam="1">  1       -4 0.46383465E-01 0.13362502E+03</pdfrwt>
<totfact> 0.88076430E+03</totfact>
</mgrwt>
</event>
<event>
 6    3  0.3813045E-003  0.1267381E+03  0.7818608E-02  0.1232378E+00
         21   -1    0    0  501  502  0.00000000000E+00  0.00000000000E+00  0.68397285778E+02  0.68397285778E+02  0.00000000000E+00 0. -1.
          4   -1    0    0  502    0 -0.00000000000E+00 -0.00000000000E+00 -0.93311399510E+02  0.93320041677E+02  0.12700000000E+01 0. -1.
         25    2    1    2    0    0  0.59366588045E+01 -0.20068822304E+02 -0.43198250285E+02  0.13389783616E+03  0.12499816060E+03 0.  0.
    9000005    1    3    3    0    0 -0.30501460613E+02 -0.61522676869E+02 -0.97787382490E+01  0.69368599455E+02  0.10000000000E+01 0.  0.
    9000005    1    3    3    0    0  0.36438119417E+02  0.41453854564E+02 -0.33419512036E+02  0.64529236704E+02  0.10000000000E+01 0.  0.
          4    1    1    2  501    0 -0.59366588045E+01  0.20068822304E+02  0.18284136553E+02  0.27819491295E+02  0.12700000000E+01 0.  1.
<mgrwt>
<rscale>  1 0.12673808E+03</rscale>
<asrwt>0</asrwt>
<pdfrwt beam="1">  1       21 0.10522659E-01 0.12673808E+03</pdfrwt>
<pdfrwt beam="2">  1        4 0.14357172E-01 0.12673808E+03</pdfrwt>
<totfact> 0.12020305E+05</totfact>
</mgrwt>
</event>
<event>
 6    3  0.3813045E-003  0.1288146E+03  0.7818608E-02  0.1229225E+00
         -4   -1    0    0    0  501 -0.00000000000E+00  0.00000000000E+00  0.22842582570E+02  0.22877860006E+02  0.12700000000E+01 0.  1.
         21   -1    0    0  501  502  0.00000000000E+00 -0.00000000000E+00 -0.28541789085E+03  0.28541789085E+03  0.00000000000E+00 0. -1.
         25    2    1    2    0    0 -0.10509097667E+02  0.29294716396E+02 -0.22707490607E+03  0.26106744367E+03  0.12499830253E+03 0.  0.
    9000005    1    3    3    0    0  0.17965326243E+02  0.37494349024E+02 -0.22764590158E+03  0.23141355981E+03  0.10000000000E+01 0.  0.
    9000005    1    3    3    0    0 -0.28474423910E+02 -0.81996326289E+01  0.57099551480E+00  0.29653883862E+02  0.10000000000E+01 0.  0.
         -4    1    1    2    0  502  0.10509097667E+02 -0.29294716396E+02 -0.35500402217E+02  0.47228307190E+02  0.12700000000E+01 0. -1.
<mgrwt>
<rscale>  1 0.12881458E+03</rscale>
<asrwt>0</asrwt>
<pdfrwt beam="2">  1       21 0.43910445E-01 0.12881458E+03</pdfrwt>
<pdfrwt beam="1">  1       -4 0.35171744E-02 0.12881458E+03</pdfrwt>
<totfact> 0.84329429E+04</totfact>
</mgrwt>
</event>
<event>
 6    3  0.3813045E-003  0.1316035E+03  0.7818608E-02  0.1225096E+00
          4   -1    0    0  502    0 -0.00000000000E+00  0.00000000000E+00  0.23587927550E+03  0.23588269439E+03  0.12700000000E+01 0.  1.
         21   -1    0    0  501  502  0.00000000000E+00 -0.00000000000E+00 -0.35747273889E+02  0.35747273889E+02  0.00000000000E+00 0. -1.
         25    2    1    2    0    0 -0.32417767658E+02 -0.25355962856E+02  0.18649643128E+03  0.22825511161E+03  0.12500256232E+03 0.  0.
    9000005    1    3    3    0    0  0.31144038634E+02 -0.49737649926E+02  0.56291620573E+02  0.81323622087E+02  0.10000000000E+01 0.  0.
    9000005    1    3    3    0    0 -0.63561806292E+02  0.24381687070E+02  0.13020481070E+03  0.14693148952E+03  0.10000000000E+01 0.  0.
          4    1    1    2  501    0  0.32417767658E+02  0.25355962856E+02  0.13635570336E+02  0.43374856665E+02  0.12700000000E+01 0. -1.
<mgrwt>
<rscale>  1 0.13160348E+03</rscale>
<asrwt>0</asrwt>
<pdfrwt beam="2">  1       21 0.54995808E-02 0.13160348E+03</pdfrwt>
<pdfrwt beam="1">  1        4 0.36291117E-01 0.13160348E+03</pdfrwt>
<totfact> 0.67677501E+04</totfact>
</mgrwt>
</event>
<event>
 6    3  0.3813045E-003  0.1267207E+03  0.7818608E-02  0.1232404E+00
         21   -1    0    0  501  502  0.00000000000E+00  0.00000000000E+00  0.19948549473E+02  0.19948549473E+02  0.00000000000E+00 0.  1.
         -4   -1    0    0    0  501 -0.00000000000E+00 -0.00000000000E+00 -0.59035448543E+03  0.59035585148E+03  0.12700000000E+01 0. -1.
         25    2    1    2    0    0  0.70341477515E+01 -0.19555644718E+02 -0.57515433956E+03  0.58894877613E+03  0.12500497636E+03 0.  0.
    9000005    1    3    3    0    0  0.28687569495E+02  0.28546683186E+02 -0.46554750719E+03  0.46730436678E+03  0.10000000000E+01 0.  0.
    9000005    1    3    3    0    0 -0.21653421744E+02 -0.48102327904E+02 -0.10960683237E+03  0.12164440934E+03  0.10000000000E+01 0.  0.
         -4    1    1    2    0  502 -0.70341477515E+01  0.19555644718E+02  0.47484035947E+01  0.21355624824E+02  0.12700000000E+01 0.  1.
<mgrwt>
<rscale>  1 0.12672074E+03</rscale>
<asrwt>0</asrwt>
<pdfrwt beam="1">  1       21 0.30690070E-02 0.12672074E+03</pdfrwt>
<pdfrwt beam="2">  1       -4 0.90826999E-01 0.12672074E+03</pdfrwt>
<totfact> 0.26181371E+04</totfact>
</mgrwt>
</event>
<event>
 6    3  0.3813045E-003  0.1374882E+03  0.7818608E-02  0.1216749E+00
         21   -1    0    0  501  502  0.00000000000E+00  0.00000000000E+00  0.11761883180E+04  0.11761883180E+04  0.00000000000E+00 0.  1.
         -4   -1    0    0    0  501 -0.00000000000E+00 -0.00000000000E+00 -0.11957290080E+02  0.12024545150E+02  0.12700000000E+01 0. -1.
         25    2    1    2    0    0 -0.42747637170E+02  0.37924697979E+02  0.42304211306E+03  0.44482315135E+03  0.12504944364E+03 0.  0.
    9000005    1    3    3    0    0  0.36775863569E+02 -0.61499945022E+00  0.22456741025E+03  0.22756178087E+03  0.10000000000E+01 0.  0.
    9000005    1    3    3    0    0 -0.79523500738E+02  0.38539697429E+02  0.19847470280E+03  0.21726137047E+03  0.10000000000E+01 0.  0.
         -4    1    1    2    0  502  0.42747637170E+02 -0.37924697979E+02  0.74118891483E+03  0.74338971177E+03  0.12700000000E+01 0.  1.
<mgrwt>
<rscale>  1 0.13748821E+03</rscale>
<asrwt>0</asrwt>
<pdfrwt beam="1">  1       21 0.18095196E+00 0.13748821E+03</pdfrwt>
<pdfrwt beam="2">  1       -4 0.18448102E-02 0.13748821E+03</pdfrwt>
<totfact> 0.86577983E+03</totfact>
</mgrwt>
</event>
<event>
 6    3  0.3813045E-003  0.1285823E+03  0.7818608E-02  0.1229575E+00
         21   -1    0    0  501  502  0.00000000000E+00  0.00000000000E+00  0.21113783839E+02  0.21113783839E+02  0.00000000000E+00 0.  1.
         -4   -1    0    0    0  501 -0.00000000000E+00 -0.00000000000E+00 -0.29863767099E+03  0.29864037141E+03  0.12700000000E+01 0.  1.
         25    2    1    2    0    0  0.29372009015E+02  0.65424058605E+01 -0.22954732488E+03  0.26310716578E+03  0.12501155282E+03 0.  0.
    9000005    1    3    3    0    0  0.33907758293E+01 -0.54069440527E+02 -0.15164979225E+03  0.16103931585E+03  0.10000000000E+01 0.  0.
    9000005    1    3    3    0    0  0.25981233185E+02  0.60611846387E+02 -0.77897532631E+02  0.10206784993E+03  0.10000000000E+01 0.  0.
         -4    1    1    2    0  502 -0.29372009015E+02 -0.65424058605E+01 -0.47976562278E+02  0.56646989470E+02  0.12700000000E+01 0. -1.
<mgrwt>
<rscale>  1 0.12858229E+03</rscale>
<asrwt>0</asrwt>
<pdfrwt beam="1">  1       21 0.32482748E-02 0.12858229E+03</pdfrwt>
<pdfrwt beam="2">  1       -4 0.45947398E-01 0.12858229E+03</pdfrwt>
<totfact> 0.10184530E+05</totfact>
</mgrwt>
</event>
<event>
 6    3  0.3813045E-003  0.1267331E+03  0.7818608E-02  0.1232385E+00
         21   -1    0    0  501  502  0.00000000000E+00  0.00000000000E+00  0.15922454789E+02  0.15922454789E+02  0.00000000000E+00 0.  1.
          4   -1    0    0  502    0 -0.00000000000E+00 -0.00000000000E+00 -0.34354617366E+03  0.34354852109E+03  0.12700000000E+01 0.  1.
         25    2    1    2    0    0 -0.15756441607E+02  0.13708132994E+02 -0.27319508486E+03  0.30115916349E+03  0.12500043601E+03 0.  0.
    9000005    1    3    3    0    0  0.12650425048E+02  0.47629254380E+02 -0.24211118474E+03  0.24707773048E+03  0.10000000000E+01 0.  0.
    9000005    1    3    3    0    0 -0.28406866655E+02 -0.33921121387E+02 -0.31083900119E+02  0.54081433005E+02  0.10000000000E+01 0.  0.
          4    1    1    2  501    0  0.15756441607E+02 -0.13708132994E+02 -0.54428634020E+02  0.58311812385E+02  0.12700000000E+01 0. -1.
<mgrwt>
<rscale>  1 0.12673313E+03</rscale>
<asrwt>0</asrwt>
<pdfrwt beam="1">  1       21 0.24496085E-02 0.12673313E+03</pdfrwt>
<pdfrwt beam="2">  1        4 0.52857332E-01 0.12673313E+03</pdfrwt>
<totfact> 0.12131193E+05</totfact>
</mgrwt>
</event>
<event>
 6    3  0.3813045E-003  0.1369275E+03  0.7818608E-02  0.1217524E+00
          4   -1    0    0  502    0 -0.00000000000E+00  0.00000000000E+00  0.11075624196E+03  0.11076352303E+03  0.12700000000E+01 0.  1.
         21   -1    0    0  501  502  0.00000000000E+00 -0.00000000000E+00 -0.11334567823E+03  0.11334567823E+03  0.00000000000E+00 0. -1.
         25    2    1    2    0    0 -0.55525147725E+02  0.63702559672E+01  0.51528141757E+02  0.14630208499E+03  0.12500211393E+03 0.  0.
    9000005    1    3    3    0    0  0.20438671713E+02  0.22878655594E+02 -0.23193249366E+02  0.38472054785E+02  0.10000000000E+01 0.  0.
    9000005    1    3    3    0    0 -0.75963819438E+02 -0.16508399627E+02  0.74721391124E+02  0.10783003020E+03  0.10000000000E+01 0.  0.
          4    1    1    2  501    0  0.55525147725E+02 -0.63702559672E+01 -0.54117578030E+02  0.77807116274E+02  0.12700000000E+01 0. -1.
<mgrwt>
<rscale>  1 0.13692754E+03</rscale>
<asrwt>0</asrwt>
<pdfrwt beam="2">  1       21 0.17437797E-01 0.13692754E+03</pdfrwt>
<pdfrwt beam="1">  1        4 0.17040529E-01 0.13692754E+03</pdfrwt>
<totfact> 0.36408879E+04</totfact>
</mgrwt>
</event>
<event>
 6    3  0.3813045E-003  0.1339518E+03  0.7818608E-02  0.1221707E+00
         21   -1    0    0  501  502  0.00000000000E+00  0.00000000000E+00  0.29881600277E+03  0.29881600277E+03  0.00000000000E+00 0.  1.
          4   -1    0    0  502    0 -0.00000000000E+00 -0.00000000000E+00 -0.71841726804E+02  0.71852951298E+02  0.12700000000E+01 0. -1.
         25    2    1    2    0    0  0.46811065121E+02 -0.11151508645E+02 -0.47120554034E+01  0.13403463490E+03  0.12500979132E+03 0.  0.
    9000005    1    3    3    0    0 -0.26866293566E+02  0.32483072657E+02 -0.20615498392E+02  0.46935557024E+02  0.10000000000E+01 0.  0.
    9000005    1    3    3    0    0  0.73677358688E+02 -0.43634581302E+02  0.15903442989E+02  0.87099077879E+02  0.10000000000E+01 0.  0.
          4    1    1    2  501    0 -0.46811065121E+02  0.11151508645E+02  0.23168633137E+03  0.23663431916E+03  0.12700000000E+01 0.  1.
<mgrwt>
<rscale>  1 0.13395178E+03</rscale>
<asrwt>0</asrwt>
<pdfrwt beam="1">  1       21 0.45971692E-01 0.13395178E+03</pdfrwt>
<pdfrwt beam="2">  1        4 0.11053645E-01 0.13395178E+03</pdfrwt>
<totfact> 0.11913259E+04</totfact>
</mgrwt>
</event>
<event>
 6    3  0.3813045E-003  0.1293147E+03  0.7818608E-02  0.1228476E+00
         -4   -1    0    0    0  501 -0.00000000000E+00  0.00000000000E+00  0.43218144978E+03  0.43218331577E+03  0.12700000000E+01 0.  1.
         21   -1    0    0  501  502  0.00000000000E+00 -0.00000000000E+00 -0.15272693312E+02  0.15272693312E+02  0.00000000000E+00 0.  1.
         25    2    1    2    0    0 -0.50928516227E+01 -0.32736621774E+02  0.32872746296E+03  0.35324785144E+03  0.12499870439E+03 0.  0.
    9000005    1    3    3    0    0 -0.58597588687E+02 -0.13616332743E+02  0.92988745258E+02  0.11075643847E+03  0.10000000000E+01 0.  0.
    9000005    1    3    3    0    0  0.53504737064E+02 -0.19120289031E+02  0.23573871770E+03  0.24249141297E+03  0.10000000000E+01 0.  0.
         -4    1    1    2    0  502  0.50928516227E+01  0.32736621774E+02  0.88181293505E+02  0.94208157646E+02  0.12700000000E+01 0. -1.
<mgrwt>
<rscale>  1 0.12931473E+03</rscale>
<asrwt>0</asrwt>
<pdfrwt beam="2">  1       21 0.23496455E-02 0.12931473E+03</pdfrwt>
<pdfrwt beam="1">  1       -4 0.66493650E-01 0.12931473E+03</pdfrwt>
<totfact> 0.80532675E+04</totfact>
</mgrwt>
</event>
<event>
 6    3  0.3813045E-003  0.1275707E+03  0.7818608E-02  0.1231106E+00
          4   -1    0    0  502    0 -0.00000000000E+00  0.00000000000E+00  0.14574710092E+03  0.14575263403E+03  0.12700000000E+01 0.  1.
         21   -1    0    0  501  502  0.00000000000E+00 -0.00000000000E+00 -0.94716420104E+02  0.94716420104E+02  0.00000000000E+00 0. -1.
         25    2    1    2    0    0  0.23453625505E+02 -0.10070085284E+02  0.11489383656E+03  0.17168246584E+03  0.12499118460E+03 0.  0.
    9000005    1    3    3    0    0 -0.28609049782E+02 -0.49897898954E+02  0.31436254369E+02  0.65555443239E+02  0.10000000000E+01 0.  0.
    9000005    1    3    3    0    0  0.52062675287E+02  0.39827813670E+02  0.83457582196E+02  0.10612702260E+03  0.10000000000E+01 0.  0.
          4    1    1    2  501    0 -0.23453625505E+02  0.10070085284E+02 -0.63863155750E+02  0.68786588295E+02  0.12700000000E+01 0. -1.
<mgrwt>
<rscale>  1 0.12757067E+03</rscale>
<asrwt>0</asrwt>
<pdfrwt beam="2">  1       21 0.14571757E-01 0.12757067E+03</pdfrwt>
<pdfrwt beam="1">  1        4 0.22423711E-01 0.12757067E+03</pdfrwt>
<totfact> 0.30569680E+04</totfact>
</mgrwt>
</event>
<event>
 6    3  0.3813045E-003  0.1306888E+03  0.7818608E-02  0.1226437E+00
          4   -1    0    0  502    0 -0.00000000000E+00  0.00000000000E+00  0.70644601222E+02  0.70656015893E+02  0.12700000000E+01 0. -1.
         21   -1    0    0  501  502  0.00000000000E+00 -0.00000000000E+00 -0.16694363720E+03  0.16694363720E+03  0.00000000000E+00 0.  1.
         25    2    1    2    0    0  0.84811102210E+01 -0.37188763216E+02  0.35170953990E+01  0.13073615922E+03  0.12499856010E+03 0.  0.
    9000005    1    3    3    0    0  0.26040293414E+02 -0.62550409765E+02 -0.39011250032E+02  0.78189054681E+02  0.10000000000E+01 0.  0.
    9000005    1    3    3    0    0 -0.17559183193E+02  0.25361646549E+02  0.42528345431E+02  0.52547104537E+02  0.10000000000E+01 0.  0.
          4    1    1    2  501    0 -0.84811102210E+01  0.37188763216E+02 -0.99816131374E+02  0.10686349387E+03  0.12700000000E+01 0.  1.
<mgrwt>
<rscale>  1 0.13068884E+03</rscale>
<asrwt>0</asrwt>
<pdfrwt beam="2">  1       21 0.25683636E-01 0.13068884E+03</pdfrwt>
<pdfrwt beam="1">  1        4 0.10869650E-01 0.13068884E+03</pdfrwt>
<totfact> 0.38360375E+04</totfact>
</mgrwt>
</event>
<event>
 6    3  0.3813045E-003  0.1275456E+03  0.7818608E-02  0.1231144E+00
          4   -1    0    0  502    0 -0.00000000000E+00  0.00000000000E+00  0.81427956958E+02  0.81437860202E+02  0.12700000000E+01 0. -1.
         21   -1    0    0  501  502  0.00000000000E+00 -0.00000000000E+00 -0.98473315371E+02  0.98473315371E+02  0.00000000000E+00 0.  1.
         25    2    1    2    0    0 -0.20588558531E+02  0.14832999466E+02  0.25771900285E+02  0.13012325377E+03  0.12499585477E+03 0.  0.
    9000005    1    3    3    0    0 -0.60645362932E+02 -0.23050665109E+02 -0.81288330148E+01  0.65393204030E+02  0.10000000000E+01 0.  0.
    9000005    1    3    3    0    0  0.40056804401E+02  0.37883664575E+02  0.33900733300E+02  0.64730049735E+02  0.10000000000E+01 0.  0.
          4    1    1    2  501    0  0.20588558531E+02 -0.14832999466E+02 -0.42817258698E+02  0.49787921808E+02  0.12700000000E+01 0.  1.
<mgrwt>
<rscale>  1 0.12754556E+03</rscale>
<asrwt>0</asrwt>
<pdfrwt beam="2">  1       21 0.15149741E-01 0.12754556E+03</pdfrwt>
<pdfrwt beam="1">  1        4 0.12528770E-01 0.12754556E+03</pdfrwt>
<totfact> 0.79602351E+04</totfact>
</mgrwt>
</event>
<event>
 6    3  0.3813045E-003  0.1276636E+03  0.7818608E-02  0.1230964E+00
         21   -1    0    0  501  502  0.00000000000E+00  0.00000000000E+00  0.68918349225E+02  0.68918349225E+02  0.00000000000E+00 0.  1.
         -4   -1    0    0    0  501 -0.00000000000E+00 -0.00000000000E+00 -0.96377561608E+02  0.96385928857E+02  0.12700000000E+01 0.  1.
         25    2    1    2    0    0  0.27470948663E+01  0.25758264871E+02 -0.17987970937E+00  0.12766374633E+03  0.12500785988E+03 0.  0.
    9000005    1    3    3    0    0 -0.45765130773E+02  0.14910396085E+02  0.40897848807E+02  0.63169621996E+02  0.10000000000E+01 0.  0.
    9000005    1    3    3    0    0  0.48512225639E+02  0.10847868786E+02 -0.41077728516E+02  0.64494124335E+02  0.10000000000E+01 0.  0.
         -4    1    1    2    0  502 -0.27470948663E+01 -0.25758264871E+02 -0.27279332674E+02  0.37640531751E+02  0.12700000000E+01 0. -1.
<mgrwt>
<rscale>  1 0.12766362E+03</rscale>
<asrwt>0</asrwt>
<pdfrwt beam="1">  1       21 0.10602823E-01 0.12766362E+03</pdfrwt>
<pdfrwt beam="2">  1       -4 0.14828861E-01 0.12766362E+03</pdfrwt>
<totfact> 0.11224777E+05</totfact>
</mgrwt>
</event>
<event>
 6    3  0.3813045E-003  0.1294126E+03  0.7818608E-02  0.1228330E+00
         21   -1    0    0  501  502  0.00000000000E+00  0.00000000000E+00  0.27872800532E+02  0.27872800532E+02  0.00000000000E+00 0. -1.
         -4   -1    0    0    0  501 -0.00000000000E+00 -0.00000000000E+00 -0.57292694274E+03  0.57292835033E+03  0.12700000000E+01 0.  1.
         25    2    1    2    0    0  0.24963881734E+02  0.22357535738E+02 -0.55164685560E+03  0.56662321111E+03  0.12499822110E+03 0.  0.
    9000005    1    3    3    0    0 -0.48095762471E+02 -0.66137219819E+01 -0.16170762956E+03  0.16884105289E+03  0.10000000000E+01 0.  0.
    9000005    1    3    3    0    0  0.73059644206E+02  0.28971257720E+02 -0.38993922605E+03  0.39778215822E+03  0.10000000000E+01 0.  0.
         -4    1    1    2    0  502 -0.24963881734E+02 -0.22357535738E+02  0.65927134009E+01  0.34177939749E+02  0.12700000000E+01 0. -1.
<mgrwt>
<rscale>  1 0.12941256E+03</rscale>
<asrwt>0</asrwt>
<pdfrwt beam="1">  1       21 0.42881233E-02 0.12941256E+03</pdfrwt>
<pdfrwt beam="2">  1       -4 0.88144937E-01 0.12941256E+03</pdfrwt>
<totfact> 0.16149836E+04</totfact>
</mgrwt>
</event>
<event>
 6    3  0.3813045E-003  0.1267321E+03  0.7818608E-02  0.1232387E+00
         21   -1    0    0  501  502  0.00000000000E+00  0.00000000000E+00  0.34374131477E+03  0.34374131477E+03  0.00000000000E+00 0.  1.
          4   -1    0    0  502    0 -0.00000000000E+00 -0.00000000000E+00 -0.41738741843E+02  0.41758058751E+02  0.12700000000E+01 0. -1.
         25    2    1    2    0    0 -0.57225918770E+01 -0.20097040921E+02  0.55908333950E+02  0.13851632457E+03  0.12499756500E+03 0.  0.
    9000005    1    3    3    0    0  0.22255524128E+02 -0.69304056187E+01  0.89709840863E+02  0.92694090555E+02  0.10000000000E+01 0.  0.
    9000005    1    3    3    0    0 -0.27978116005E+02 -0.13166635302E+02 -0.33801506913E+02  0.45822234013E+02  0.10000000000E+01 0.  0.
          4    1    1    2  501    0  0.57225918770E+01  0.20097040921E+02  0.24609423897E+03  0.24698304895E+03  0.12700000000E+01 0.  1.
<mgrwt>
<rscale>  1 0.12673212E+03</rscale>
<asrwt>0</asrwt>
<pdfrwt beam="1">  1       21 0.52883277E-01 0.12673212E+03</pdfrwt>
<pdfrwt beam="2">  1        4 0.64230115E-02 0.12673212E+03</pdfrwt>
<totfact> 0.21908666E+04</totfact>
</mgrwt>
</event>
<event>
 6    3  0.3813045E-003  0.1281077E+03  0.7818608E-02  0.1230291E+00
         -4   -1    0    0    0  501 -0.00000000000E+00  0.00000000000E+00  0.61632181030E+02  0.61645264526E+02  0.12700000000E+01 0.  1.
         21   -1    0    0  501  502  0.00000000000E+00 -0.00000000000E+00 -0.13444992260E+04  0.13444992260E+04  0.00000000000E+00 0. -1.
         25    2    1    2    0    0  0.11208989094E+02 -0.25689751102E+02 -0.52456434659E+01  0.12821504677E+03  0.12500390671E+03 0.  0.
    9000005    1    3    3    0    0  0.16955165592E+02 -0.36336943653E+02 -0.59977109996E+02  0.72153342527E+02  0.10000000000E+01 0.  0.
    9000005    1    3    3    0    0 -0.57461764977E+01  0.10647192551E+02  0.54731466530E+02  0.56061704239E+02  0.10000000000E+01 0.  0.
         -4    1    1    2    0  502 -0.11208989094E+02  0.25689751102E+02 -0.12776214015E+04  0.12779294438E+04  0.12700000000E+01 0. -1.
<mgrwt>
<rscale>  1 0.12810769E+03</rscale>
<asrwt>0</asrwt>
<pdfrwt beam="2">  1       21 0.20684603E+00 0.12810769E+03</pdfrwt>
<pdfrwt beam="1">  1       -4 0.94829268E-02 0.12810769E+03</pdfrwt>
<totfact> 0.43335386E+02</totfact>
</mgrwt>
</event>
<event>
 6    3  0.3813045E-003  0.1265997E+03  0.7818608E-02  0.1232590E+00
         21   -1    0    0  501  502  0.00000000000E+00  0.00000000000E+00  0.98681066471E+03  0.98681066471E+03  0.00000000000E+00 0. -1.
         -4   -1    0    0    0  501 -0.00000000000E+00 -0.00000000000E+00 -0.53899650632E+01  0.55375647520E+01  0.12700000000E+01 0. -1.
         25    2    1    2    0    0 -0.16827173172E+02 -0.10972886777E+02  0.83158052767E+03  0.84116209241E+03  0.12499573470E+03 0.  0.
    9000005    1    3    3    0    0  0.18787664575E+02  0.14017938604E+02  0.28552662827E+02  0.36955831710E+02  0.10000000000E+01 0.  0.
    9000005    1    3    3    0    0 -0.35614837747E+02 -0.24990825381E+02  0.80302786485E+03  0.80420626070E+03  0.10000000000E+01 0.  0.
         -4    1    1    2    0  502  0.16827173172E+02  0.10972886777E+02  0.14984017197E+03  0.15118613706E+03  0.12700000000E+01 0.  1.
<mgrwt>
<rscale>  1 0.12659973E+03</rscale>
<asrwt>0</asrwt>
<pdfrwt beam="1">  1       21 0.15181688E+00 0.12659973E+03</pdfrwt>
<pdfrwt beam="2">  1       -4 0.84064287E-03 0.12659973E+03</pdfrwt>
<totfact> 0.45443250E+04</totfact>
</mgrwt>
</event>
<event>
 6    3  0.3813045E-003  0.1354070E+03  0.7818608E-02  0.1219646E+00
          4   -1    0    0  502    0 -0.00000000000E+00  0.00000000000E+00  0.30465992565E+03  0.30466257269E+03  0.12700000000E+01 0.  1.
         21   -1    0    0  501  502  0.00000000000E+00 -0.00000000000E+00 -0.95273394764E+02  0.95273394764E+02  0.00000000000E+00 0. -1.
         25    2    1    2    0    0  0.50423157864E+02 -0.12950386372E+02  0.28068828326E+03  0.31164236549E+03  0.12499937701E+03 0.  0.
    9000005    1    3    3    0    0  0.73094129200E+02 -0.12774133455E+02  0.77901961186E+02  0.10759017504E+03  0.10000000000E+01 0.  0.
    9000005    1    3    3    0    0 -0.22670971336E+02 -0.17625291748E+00  0.20278632207E+03  0.20405219045E+03  0.10000000000E+01 0.  0.
          4    1    1    2  501    0 -0.50423157864E+02  0.12950386372E+02 -0.71301752373E+02  0.88293601963E+02  0.12700000000E+01 0. -1.
<mgrwt>
<rscale>  1 0.13540699E+03</rscale>
<asrwt>0</asrwt>
<pdfrwt beam="2">  1       21 0.14657445E-01 0.13540699E+03</pdfrwt>
<pdfrwt beam="1">  1        4 0.46871612E-01 0.13540699E+03</pdfrwt>
<totfact> 0.74324947E+03</totfact>
</mgrwt>
</event>
<event>
 6    3  0.3813045E-003  0.1271042E+03  0.7818608E-02  0.1231817E+00
         21   -1    0    0  501  502  0.00000000000E+00  0.00000000000E+00  0.18785717594E+03  0.18785717594E+03  0.00000000000E+00 0. -1.
          4   -1    0    0  502    0 -0.00000000000E+00 -0.00000000000E+00 -0.13463111927E+03  0.13463710921E+03  0.12700000000E+01 0.  1.
         25    2    1    2    0    0  0.68264418370E+01 -0.22001149918E+02 -0.10360210864E+03  0.16397823788E+03  0.12499925871E+03 0.  0.
    9000005    1    3    3    0    0 -0.14038839768E+02 -0.13113809903E+01  0.26801843718E+02  0.30300949965E+02  0.10000000000E+01 0.  0.
    9000005    1    3    3    0    0  0.20865281605E+02 -0.20689768928E+02 -0.13040395235E+03  0.13367728792E+03  0.10000000000E+01 0.  0.
          4    1    1    2  501    0 -0.68264418370E+01  0.22001149918E+02  0.15682816531E+03  0.15851604726E+03  0.12700000000E+01 0. -1.
<mgrwt>
<rscale>  1 0.12710415E+03</rscale>
<asrwt>0</asrwt>
<pdfrwt beam="1">  1       21 0.28901104E-01 0.12710415E+03</pdfrwt>
<pdfrwt beam="2">  1        4 0.20713271E-01 0.12710415E+03</pdfrwt>
<totfact> 0.99089484E+03</totfact>
</mgrwt>
</event>
<event>
 6    3  0.3813045E-003  0.1494487E+03  0.7818608E-02  0.1201152E+00
          4   -1    0    0  502    0 -0.00000000000E+00  0.00000000000E+00  0.30172004469E+03  0.30172271752E+03  0.12700000000E+01 0.  1.
         21   -1    0    0  501  502  0.00000000000E+00 -0.00000000000E+00 -0.52283459484E+02  0.52283459484E+02  0.00000000000E+00 0. -1.
         25    2    1    2    0    0  0.73064606927E+02  0.37031142330E+02  0.22198813178E+03  0.26760726044E+03  0.12500069161E+03 0.  0.
    9000005    1    3    3    0    0  0.14713748039E+02  0.69408659737E+02  0.16586835672E+03  0.18040889166E+03  0.10000000000E+01 0.  0.
    9000005    1    3    3    0    0  0.58350858888E+02 -0.32377517407E+02  0.56119775060E+02  0.87198368787E+02  0.10000000000E+01 0.  0.
          4    1    1    2  501    0 -0.73064606927E+02 -0.37031142330E+02  0.27448453430E+02  0.86398916564E+02  0.12700000000E+01 0. -1.
<mgrwt>
<rscale>  1 0.14944870E+03</rscale>
<asrwt>0</asrwt>
<pdfrwt beam="2">  1       21 0.80436093E-02 0.14944870E+03</pdfrwt>
<pdfrwt beam="1">  1        4 0.46419860E-01 0.14944870E+03</pdfrwt>
<totfact> 0.22043152E+04</totfact>
</mgrwt>
</event>
<event>
 6    3  0.3813045E-003  0.1437528E+03  0.7818608E-02  0.1208367E+00
         21   -1    0    0  501  502  0.00000000000E+00  0.00000000000E+00  0.45761740042E+02  0.45761740042E+02  0.00000000000E+00 0. -1.
          4   -1    0    0  502    0 -0.00000000000E+00 -0.00000000000E+00 -0.26994825841E+03  0.26995124582E+03  0.12700000000E+01 0. -1.
         25    2    1    2    0    0 -0.44104941258E+01 -0.70856428564E+02 -0.18604611019E+03  0.23511280247E+03  0.12499915535E+03 0.  0.
    9000005    1    3    3    0    0 -0.54476124669E+02 -0.24435041250E+01 -0.10237196669E+03  0.11599413104E+03  0.10000000000E+01 0.  0.
    9000005    1    3    3    0    0  0.50065630543E+02 -0.68412924439E+02 -0.83674143504E+02  0.11911867143E+03  0.10000000000E+01 0.  0.
          4    1    1    2  501    0  0.44104941258E+01  0.70856428564E+02 -0.38140408177E+02  0.80600183394E+02  0.12700000000E+01 0.  1.
<mgrwt>
<rscale>  1 0.14375283E+03</rscale>
<asrwt>0</asrwt>
<pdfrwt beam="1">  1       21 0.70402678E-02 0.14375283E+03</pdfrwt>
<pdfrwt beam="2">  1        4 0.41532086E-01 0.14375283E+03</pdfrwt>
<totfact> 0.34495522E+04</totfact>
</mgrwt>
</event>
<event>
 6    3  0.3813045E-003  0.1364270E+03  0.7818608E-02  0.1218219E+00
          4   -1    0    0  502    0 -0.00000000000E+00  0.00000000000E+00  0.46276694416E+02  0.46294117834E+02  0.12700000000E+01 0. -1.
         21   -1    0    0  501  502  0.00000000000E+00 -0.00000000000E+00 -0.20082834358E+03  0.20082834358E+03  0.00000000000E+00 0. -1.
         25    2    1    2    0    0 -0.46373645351E+02  0.28956333262E+02 -0.94843142788E+02  0.16615516646E+03  0.12499333337E+03 0.  0.
    9000005    1    3    3    0    0  0.55041765165E+01  0.40943340172E+02 -0.10419121046E+03  0.11208684759E+03  0.10000000000E+01 0.  0.
    9000005    1    3    3    0    0 -0.51877821867E+02 -0.11987006911E+02  0.93480676762E+01  0.54068318872E+02  0.10000000000E+01 0.  0.
          4    1    1    2  501    0  0.46373645351E+02 -0.28956333262E+02 -0.59708506381E+02  0.80967294961E+02  0.12700000000E+01 0.  1.
<mgrwt>
<rscale>  1 0.13642697E+03</rscale>
<asrwt>0</asrwt>
<pdfrwt beam="2">  1       21 0.30896669E-01 0.13642697E+03</pdfrwt>
<pdfrwt beam="1">  1        4 0.71211405E-02 0.13642697E+03</pdfrwt>
<totfact> 0.54767310E+04</totfact>
</mgrwt>
</event>
<event>
 6    3  0.3813045E-003  0.1496368E+03  0.7818608E-02  0.1200920E+00
         -4   -1    0    0    0  501 -0.00000000000E+00  0.00000000000E+00  0.51954139381E+03  0.51954294604E+03  0.12700000000E+01 0.  1.
         21   -1    0    0  501  502  0.00000000000E+00 -0.00000000000E+00 -0.26026702771E+02  0.26026702771E+02  0.00000000000E+00 0. -1.
         25    2    1    2    0    0 -0.63883598510E+02  0.51838155293E+02  0.33760495312E+03  0.36928077287E+03  0.12499150507E+03 0.  0.
    9000005    1    3    3    0    0 -0.34441087264E+02 -0.11276331959E+02  0.14986507492E+02  0.39229320173E+02  0.10000000000E+01 0.  0.
    9000005    1    3    3    0    0 -0.29442511245E+02  0.63114487252E+02  0.32261844562E+03  0.33005145270E+03  0.10000000000E+01 0.  0.
         -4    1    1    2    0  502  0.63883598510E+02 -0.51838155293E+02  0.15590973792E+03  0.17628887595E+03  0.12700000000E+01 0. -1.
<mgrwt>
<rscale>  1 0.14963684E+03</rscale>
<asrwt>0</asrwt>
<pdfrwt beam="2">  1       21 0.40041085E-02 0.14963684E+03</pdfrwt>
<pdfrwt beam="1">  1       -4 0.79931940E-01 0.14963684E+03</pdfrwt>
<totfact> 0.22863732E+04</totfact>
</mgrwt>
</event>
<event>
 6    3  0.3813045E-003  0.1277175E+03  0.7818608E-02  0.1230882E+00
          4   -1    0    0  502    0 -0.00000000000E+00  0.00000000000E+00  0.29545939065E+03  0.29546212011E+03  0.12700000000E+01 0.  1.
         21   -1    0    0  501  502  0.00000000000E+00 -0.00000000000E+00 -0.22883040447E+02  0.22883040447E+02  0.00000000000E+00 0.  1.
         25    2    1    2    0    0 -0.25909447737E+02 -0.38689210527E+01  0.25907781096E+03  0.28884784723E+03  0.12500199473E+03 0.  0.
    9000005    1    3    3    0    0  0.21848234227E+02  0.50511648614E+02  0.12167966098E+03  0.13355040951E+03  0.10000000000E+01 0.  0.
    9000005    1    3    3    0    0 -0.47757681963E+02 -0.54380569667E+02  0.13739814998E+03  0.15529743772E+03  0.10000000000E+01 0.  0.
          4    1    1    2  501    0  0.25909447737E+02  0.38689210527E+01  0.13498539240E+02  0.29497313331E+02  0.12700000000E+01 0. -1.
<mgrwt>
<rscale>  1 0.12771753E+03</rscale>
<asrwt>0</asrwt>
<pdfrwt beam="2">  1       21 0.35204680E-02 0.12771753E+03</pdfrwt>
<pdfrwt beam="1">  1        4 0.45458209E-01 0.12771753E+03</pdfrwt>
<totfact> 0.91037855E+04</totfact>
</mgrwt>
</event>
<event>
 6    3  0.3813045E-003  0.1265983E+03  0.7818608E-02  0.1232592E+00
         -4   -1    0    0    0  501 -0.00000000000E+00  0.00000000000E+00  0.33664283154E+03  0.33664522709E+03  0.12700000000E+01 0. -1.
         21   -1    0    0  501  502  0.00000000000E+00 -0.00000000000E+00 -0.16353604547E+02  0.16353604547E+02  0.00000000000E+00 0. -1.
         25    2    1    2    0    0  0.33453567716E+01 -0.19752178631E+02  0.29246480157E+03  0.31868918981E+03  0.12500319825E+03 0.  0.
    9000005    1    3    3    0    0 -0.72642549283E+01 -0.13534154234E+02 -0.84241799525E+01  0.17547351320E+02  0.10000000000E+01 0.  0.
    9000005    1    3    3    0    0  0.10609611700E+02 -0.62180243973E+01  0.30088898152E+03  0.30114183849E+03  0.10000000000E+01 0.  0.
         -4    1    1    2    0  502 -0.33453567716E+01  0.19752178631E+02  0.27824425422E+02  0.34309641833E+02  0.12700000000E+01 0.  1.
<mgrwt>
<rscale>  1 0.12659834E+03</rscale>
<asrwt>0</asrwt>
<pdfrwt beam="2">  1       21 0.25159394E-02 0.12659834E+03</pdfrwt>
<pdfrwt beam="1">  1       -4 0.51795177E-01 0.12659834E+03</pdfrwt>
<totfact> 0.12106653E+05</totfact>
</mgrwt>
</event>
<event>
 6    3  0.3813045E-003  0.1283455E+03  0.7818608E-02  0.1229932E+00
          4   -1    0    0  502    0 -0.00000000000E+00  0.00000000000E+00  0.82632821728E+03  0.82632919322E+03  0.12700000000E+01 0.  1.
         21   -1    0    0  501  502  0.00000000000E+00 -0.00000000000E+00 -0.75497469687E+01  0.75497469687E+01  0.00000000000E+00 0.  1.
         25    2    1    2    0    0 -0.25923852792E+02 -0.13179304775E+02  0.69200097080E+03  0.70380247230E+03  0.12500734460E+03 0.  0.
    9000005    1    3    3    0    0 -0.13090255790E+02 -0.51411050845E+02  0.61112208794E+03  0.61342127230E+03  0.10000000000E+01 0.  0.
    9000005    1    3    3    0    0 -0.12833597002E+02  0.38231746069E+02  0.80878882862E+02  0.90381199994E+02  0.10000000000E+01 0.  0.
          4    1    1    2  501    0  0.25923852792E+02  0.13179304775E+02  0.12677749951E+03  0.13007646789E+03  0.12700000000E+01 0. -1.
<mgrwt>
<rscale>  1 0.12834554E+03</rscale>
<asrwt>0</asrwt>
<pdfrwt beam="2">  1       21 0.11615002E-02 0.12834554E+03</pdfrwt>
<pdfrwt beam="1">  1        4 0.12713564E+00 0.12834554E+03</pdfrwt>
<totfact> 0.57008963E+04</totfact>
</mgrwt>
</event>
<event>
 6    3  0.3813045E-003  0.1275919E+03  0.7818608E-02  0.1231073E+00
         21   -1    0    0  501  502  0.00000000000E+00  0.00000000000E+00  0.96412084803E+02  0.96412084803E+02  0.00000000000E+00 0. -1.
         -4   -1    0    0    0  501 -0.00000000000E+00 -0.00000000000E+00 -0.62822625693E+02  0.62835461317E+02  0.12700000000E+01 0. -1.
         25    2    1    2    0    0 -0.13321195762E+00  0.25559575307E+02  0.38321135612E+02  0.13322234107E+03  0.12500549224E+03 0.  0.
    9000005    1    3    3    0    0  0.25712043845E+02  0.61732362795E+02 -0.99203865750E+01  0.67612187398E+02  0.10000000000E+01 0.  0.
    9000005    1    3    3    0    0 -0.25845255803E+02 -0.36172787489E+02  0.48241522187E+02  0.65610153674E+02  0.10000000000E+01 0.  0.
         -4    1    1    2    0  502  0.13321195762E+00 -0.25559575307E+02 -0.47316765020E+01  0.26025205048E+02  0.12700000000E+01 0.  1.
<mgrwt>
<rscale>  1 0.12759186E+03</rscale>
<asrwt>0</asrwt>
<pdfrwt beam="1">  1       21 0.14832628E-01 0.12759186E+03</pdfrwt>
<pdfrwt beam="2">  1       -4 0.96666501E-02 0.12759186E+03</pdfrwt>
<totfact> 0.12838880E+05</totfact>
</mgrwt>
</event>
<event>
 6    3  0.3813045E-003  0.1288956E+03  0.7818608E-02  0.1229104E+00
         -4   -1    0    0    0  501 -0.00000000000E+00  0.00000000000E+00  0.82999888439E+03  0.82999985601E+03  0.12700000000E+01 0.  1.
         21   -1    0    0  501  502  0.00000000000E+00 -0.00000000000E+00 -0.13777903410E+02  0.13777903410E+02  0.00000000000E+00 0.  1.
         25    2    1    2    0    0  0.19386795319E+02 -0.24797263858E+02  0.79594624621E+03  0.80631537966E+03  0.12499324980E+03 0.  0.
    9000005    1    3    3    0    0 -0.35263392300E+02 -0.24782227552E+02  0.10927458593E+03  0.11747170199E+03  0.10000000000E+01 0.  0.
    9000005    1    3    3    0    0  0.54650187619E+02 -0.15036306335E-01  0.68667166028E+03  0.68884367766E+03  0.10000000000E+01 0.  0.
         -4    1    1    2    0  502 -0.19386795319E+02  0.24797263858E+02  0.20274734769E+02  0.37462379764E+02  0.12700000000E+01 0. -1.
<mgrwt>
<rscale>  1 0.12889556E+03</rscale>
<asrwt>0</asrwt>
<pdfrwt beam="2">  1       21 0.21196781E-02 0.12889556E+03</pdfrwt>
<pdfrwt beam="1">  1       -4 0.12769667E+00 0.12889556E+03</pdfrwt>
<totfact> 0.21559421E+04</totfact>
</mgrwt>
</event>
<event>
 6    3  0.3813045E-003  0.1266028E+03  0.7818608E-02  0.1232585E+00
         -4   -1    0    0    0  501 -0.00000000000E+00  0.00000000000E+00  0.10623570972E+04  0.10623578563E+04  0.12700000000E+01 0. -1.
         21   -1    0    0  501  502  0.00000000000E+00 -0.00000000000E+00 -0.87347403386E+01  0.87347403386E+01  0.00000000000E+00 0.  1.
         25    2    1    2    0    0 -0.19861476633E+02  0.29761416101E+01  0.10378003584E+04  0.10454940770E+04  0.12499978206E+03 0.  0.
    9000005    1    3    3    0    0  0.23682351120E+01 -0.44594658219E+02  0.82857159473E+03  0.82977477648E+03  0.10000000000E+01 0.  0.
    9000005    1    3    3    0    0 -0.22229711745E+02  0.47570799829E+02  0.20922876363E+03  0.21571930050E+03  0.10000000000E+01 0.  0.
         -4    1    1    2    0  502  0.19861476633E+02 -0.29761416101E+01  0.15821998507E+02  0.25598519678E+02  0.12700000000E+01 0.  1.
<mgrwt>
<rscale>  1 0.12660285E+03</rscale>
<asrwt>0</asrwt>
<pdfrwt beam="2">  1       21 0.13438070E-02 0.12660285E+03</pdfrwt>
<pdfrwt beam="1">  1       -4 0.16344661E+00 0.12660285E+03</pdfrwt>
<totfact> 0.23997173E+04</totfact>
</mgrwt>
</event>
<event>
 6    3  0.3813045E-003  0.1379621E+03  0.7818608E-02  0.1216098E+00
         -4   -1    0    0    0  501 -0.00000000000E+00  0.00000000000E+00  0.36422279551E+03  0.36422500967E+03  0.12700000000E+01 0. -1.
         21   -1    0    0  501  502  0.00000000000E+00 -0.00000000000E+00 -0.26836218038E+02  0.26836218038E+02  0.00000000000E+00 0. -1.
         25    2    1    2    0    0  0.12883132485E+02  0.56942009284E+02  0.25719703276E+03  0.29186272215E+03  0.12500066958E+03 0.  0.
    9000005    1    3    3    0    0  0.49098380752E+02 -0.56030558121E+01  0.42034815017E+02  0.64884288548E+02  0.10000000000E+01 0.  0.
    9000005    1    3    3    0    0 -0.36215248268E+02  0.62545065097E+02  0.21516221774E+03  0.22697843360E+03  0.10000000000E+01 0.  0.
         -4    1    1    2    0  502 -0.12883132485E+02 -0.56942009284E+02  0.80189544707E+02  0.99198505555E+02  0.12700000000E+01 0.  1.
<mgrwt>
<rscale>  1 0.13796208E+03</rscale>
<asrwt>0</asrwt>
<pdfrwt beam="2">  1       21 0.41286492E-02 0.13796208E+03</pdfrwt>
<pdfrwt beam="1">  1       -4 0.56036755E-01 0.13796208E+03</pdfrwt>
<totfact> 0.46094003E+04</totfact>
</mgrwt>
</event>
<event>
 6    3  0.3813045E-003  0.1273182E+03  0.7818608E-02  0.1231490E+00
         -4   -1    0    0    0  501 -0.00000000000E+00  0.00000000000E+00  0.45156892628E+02  0.45174747944E+02  0.12700000000E+01 0.  1.
         21   -1    0    0  501  502  0.00000000000E+00 -0.00000000000E+00 -0.19425677323E+03  0.19425677323E+03  0.00000000000E+00 0.  1.
         25    2    1    2    0    0 -0.15398462343E+02  0.18636528061E+02 -0.48960777769E+02  0.13640780722E+03  0.12500199714E+03 0.  0.
    9000005    1    3    3    0    0  0.30847081348E+02  0.56889601291E+02 -0.11736340747E+02  0.65777738308E+02  0.10000000000E+01 0.  0.
    9000005    1    3    3    0    0 -0.46245543691E+02 -0.38253073230E+02 -0.37224437022E+02  0.70630068911E+02  0.10000000000E+01 0.  0.
         -4    1    1    2    0  502  0.15398462343E+02 -0.18636528061E+02 -0.10013910283E+03  0.10302371395E+03  0.12700000000E+01 0. -1.
<mgrwt>
<rscale>  1 0.12731823E+03</rscale>
<asrwt>0</asrwt>
<pdfrwt beam="2">  1       21 0.29885658E-01 0.12731823E+03</pdfrwt>
<pdfrwt beam="1">  1       -4 0.69489070E-02 0.12731823E+03</pdfrwt>
<totfact> 0.60308029E+04</totfact>
</mgrwt>
</event>
<event>
 6    3  0.3813045E-003  0.1267819E+03  0.7818608E-02  0.1232310E+00
         21   -1    0    0  501  502  0.00000000000E+00  0.00000000000E+00  0.37396986375E+01  0.37396986375E+01  0.00000000000E+00 0. -1.
         -4   -1    0    0    0  501 -0.00000000000E+00 -0.00000000000E+00 -0.15972643676E+04  0.15972648725E+04  0.12700000000E+01 0. -1.
         25    2    1    2    0    0  0.20755163100E+02 -0.41700093386E+01 -0.11488344025E+04  0.11558088706E+04  0.12500198098E+03 0.  0.
    9000005    1    3    3    0    0  0.16866472711E+02  0.48743183516E+02 -0.24271467369E+03  0.24813663306E+03  0.10000000000E+01 0.  0.
    9000005    1    3    3    0    0  0.38886903895E+01 -0.52913192854E+02 -0.90611972880E+03  0.90767223754E+03  0.10000000000E+01 0.  0.
         -4    1    1    2    0  502 -0.20755163100E+02  0.41700093386E+01 -0.44469026649E+03  0.44519570054E+03  0.12700000000E+01 0.  1.
<mgrwt>
<rscale>  1 0.12678194E+03</rscale>
<asrwt>0</asrwt>
<pdfrwt beam="1">  1       21 0.57533717E-03 0.12678194E+03</pdfrwt>
<pdfrwt beam="2">  1       -4 0.24575007E+00 0.12678194E+03</pdfrwt>
<totfact> 0.28039618E+04</totfact>
</mgrwt>
</event>
<event>
 6    3  0.3813045E-003  0.1298021E+03  0.7818608E-02  0.1227750E+00
          4   -1    0    0  502    0 -0.00000000000E+00  0.00000000000E+00  0.46001848454E+03  0.46002023762E+03  0.12700000000E+01 0. -1.
         21   -1    0    0  501  502  0.00000000000E+00 -0.00000000000E+00 -0.14848749108E+02  0.14848749108E+02  0.00000000000E+00 0.  1.
         25    2    1    2    0    0 -0.29583965100E+02  0.18666063526E+02  0.36490213081E+03  0.38730110352E+03  0.12499978718E+03 0.  0.
    9000005    1    3    3    0    0 -0.10761419842E+02 -0.10641166215E+02 -0.48399698142E+01  0.15920674710E+02  0.10000000000E+01 0.  0.
    9000005    1    3    3    0    0 -0.18822545258E+02  0.29307229741E+02  0.36974210062E+03  0.37138042881E+03  0.10000000000E+01 0.  0.
          4    1    1    2  501    0  0.29583965100E+02 -0.18666063526E+02  0.80267604623E+02  0.87567883214E+02  0.12700000000E+01 0.  1.
<mgrwt>
<rscale>  1 0.12980208E+03</rscale>
<asrwt>0</asrwt>
<pdfrwt beam="2">  1       21 0.22844233E-02 0.12980208E+03</pdfrwt>
<pdfrwt beam="1">  1        4 0.70776376E-01 0.12980208E+03</pdfrwt>
<totfact> 0.73761951E+04</totfact>
</mgrwt>
</event>
<event>
 6    3  0.3813045E-003  0.1621474E+03  0.7818608E-02  0.1186294E+00
          4   -1    0    0  502    0 -0.00000000000E+00  0.00000000000E+00  0.73049811805E+03  0.73049922202E+03  0.12700000000E+01 0.  1.
         21   -1    0    0  501  502  0.00000000000E+00 -0.00000000000E+00 -0.24112494449E+02  0.24112494449E+02  0.00000000000E+00 0. -1.
         25    2    1    2    0    0  0.31683906842E+01 -0.10321734202E+03  0.42718208504E+03  0.45692045486E+03  0.12501163906E+03 0.  0.
    9000005    1    3    3    0    0  0.50096825901E+02 -0.71342861270E+02  0.35255169224E+03  0.36317102242E+03  0.10000000000E+01 0.  0.
    9000005    1    3    3    0    0 -0.46928435217E+02 -0.31874480750E+02  0.74630392801E+02  0.93749432450E+02  0.10000000000E+01 0.  0.
          4    1    1    2  501    0 -0.31683906842E+01  0.10321734202E+03  0.27920353856E+03  0.29769126161E+03  0.12700000000E+01 0. -1.
<mgrwt>
<rscale>  1 0.16214737E+03</rscale>
<asrwt>0</asrwt>
<pdfrwt beam="2">  1       21 0.37096151E-02 0.16214737E+03</pdfrwt>
<pdfrwt beam="1">  1        4 0.11238697E+00 0.16214737E+03</pdfrwt>
<totfact> 0.11973084E+04</totfact>
</mgrwt>
</event>
<event>
 6    3  0.3813045E-003  0.1336388E+03  0.7818608E-02  0.1222154E+00
          4   -1    0    0  502    0 -0.00000000000E+00  0.00000000000E+00  0.90240948383E+03  0.90241037750E+03  0.12700000000E+01 0.  1.
         21   -1    0    0  501  502  0.00000000000E+00 -0.00000000000E+00 -0.32816449035E+02  0.32816449035E+02  0.00000000000E+00 0. -1.
         25    2    1    2    0    0  0.91913805260E+01  0.46351514913E+02  0.87722284549E+03  0.88734393479E+03  0.12500557402E+03 0.  0.
    9000005    1    3    3    0    0 -0.42915054793E+02  0.36184511798E+02  0.70227579998E+03  0.70451637316E+03  0.10000000000E+01 0.  0.
    9000005    1    3    3    0    0  0.52106435319E+02  0.10167003116E+02  0.17494704551E+03  0.18282756162E+03  0.10000000000E+01 0.  0.
          4    1    1    2  501    0 -0.91913805260E+01 -0.46351514913E+02 -0.76298106939E+01  0.47882891746E+02  0.12700000000E+01 0. -1.
<mgrwt>
<rscale>  1 0.13363883E+03</rscale>
<asrwt>0</asrwt>
<pdfrwt beam="2">  1       21 0.50486851E-02 0.13363883E+03</pdfrwt>
<pdfrwt beam="1">  1        4 0.13883417E+00 0.13363883E+03</pdfrwt>
<totfact> 0.42143048E+03</totfact>
</mgrwt>
</event>
<event>
 6    3  0.3813045E-003  0.1982811E+03  0.7818608E-02  0.1151197E+00
         21   -1    0    0  501  502  0.00000000000E+00  0.00000000000E+00  0.13292454354E+04  0.13292454354E+04  0.00000000000E+00 0. -1.
         -4   -1    0    0    0  501 -0.00000000000E+00 -0.00000000000E+00 -0.23492058616E+02  0.23526362193E+02  0.12700000000E+01 0.  1.
         25    2    1    2    0    0 -0.39814780494E+02 -0.14867718449E+03  0.79307750362E+03  0.81748842800E+03  0.12500112495E+03 0.  0.
    9000005    1    3    3    0    0 -0.45476042009E+02 -0.53881368687E+02  0.13227643693E+03  0.14989772532E+03  0.10000000000E+01 0.  0.
    9000005    1    3    3    0    0  0.56612615152E+01 -0.94795815800E+02  0.66080106668E+03  0.66759070268E+03  0.10000000000E+01 0.  0.
         -4    1    1    2    0  502  0.39814780494E+02  0.14867718449E+03  0.51267587314E+03  0.53528336957E+03  0.12700000000E+01 0. -1.
<mgrwt>
<rscale>  1 0.19828112E+03</rscale>
<asrwt>0</asrwt>
<pdfrwt beam="1">  1       21 0.20449924E+00 0.19828112E+03</pdfrwt>
<pdfrwt beam="2">  1       -4 0.36168493E-02 0.19828112E+03</pdfrwt>
<totfact> 0.21236748E+03</totfact>
</mgrwt>
</event>
<event>
 6    3  0.3813045E-003  0.1385221E+03  0.7818608E-02  0.1215332E+00
         -4   -1    0    0    0  501 -0.00000000000E+00  0.00000000000E+00  0.60511119703E+03  0.60511252975E+03  0.12700000000E+01 0.  1.
         21   -1    0    0  501  502  0.00000000000E+00 -0.00000000000E+00 -0.54363891817E+02  0.54363891817E+02  0.00000000000E+00 0. -1.
         25    2    1    2    0    0  0.44359243652E+02 -0.39939740517E+02  0.57762435024E+03  0.59400189355E+03  0.12500173669E+03 0.  0.
    9000005    1    3    3    0    0  0.18017951726E+02 -0.82989014201E+02  0.41968550244E+03  0.42819241472E+03  0.10000000000E+01 0.  0.
    9000005    1    3    3    0    0  0.26341291926E+02  0.43049273685E+02  0.15793884780E+03  0.16580947883E+03  0.10000000000E+01 0.  0.
         -4    1    1    2    0  502 -0.44359243652E+02  0.39939740517E+02 -0.26877045035E+02  0.65474528022E+02  0.12700000000E+01 0. -1.
<mgrwt>
<rscale>  1 0.13852205E+03</rscale>
<asrwt>0</asrwt>
<pdfrwt beam="2">  1       21 0.83636761E-02 0.13852205E+03</pdfrwt>
<pdfrwt beam="1">  1       -4 0.93095269E-01 0.13852205E+03</pdfrwt>
<totfact> 0.46179581E+03</totfact>
</mgrwt>
</event>
<event>
 6    3  0.3813045E-003  0.1269511E+03  0.7818608E-02  0.1232051E+00
         21   -1    0    0  501  502  0.00000000000E+00  0.00000000000E+00  0.18194423215E+03  0.18194423215E+03  0.00000000000E+00 0.  1.
          4   -1    0    0  502    0 -0.00000000000E+00 -0.00000000000E+00 -0.30766697756E+02  0.30792898383E+02  0.12700000000E+01 0.  1.
         25    2    1    2    0    0  0.10154208451E+02  0.19698103104E+02  0.12194333012E+03  0.17603052602E+03  0.12500178845E+03 0.  0.
    9000005    1    3    3    0    0  0.22527847711E+02 -0.49121916046E+02  0.72300686158E+02  0.90271012941E+02  0.10000000000E+01 0.  0.
    9000005    1    3    3    0    0 -0.12373639261E+02  0.68820019150E+02  0.49642643964E+02  0.85759513082E+02  0.10000000000E+01 0.  0.
          4    1    1    2  501    0 -0.10154208451E+02 -0.19698103104E+02  0.29234204270E+02  0.36706604507E+02  0.12700000000E+01 0. -1.
<mgrwt>
<rscale>  1 0.12695105E+03</rscale>
<asrwt>0</asrwt>
<pdfrwt beam="1">  1       21 0.27991420E-01 0.12695105E+03</pdfrwt>
<pdfrwt beam="2">  1        4 0.47356946E-02 0.12695105E+03</pdfrwt>
<totfact> 0.12717718E+05</totfact>
</mgrwt>
</event>
<event>
 6    3  0.3813045E-003  0.1266984E+03  0.7818608E-02  0.1232439E+00
         21   -1    0    0  501  502  0.00000000000E+00  0.00000000000E+00  0.23909127637E+03  0.23909127637E+03  0.00000000000E+00 0.  1.
         -4   -1    0    0    0  501 -0.00000000000E+00 -0.00000000000E+00 -0.69119637716E+02  0.69131304183E+02  0.12700000000E+01 0. -1.
         25    2    1    2    0    0  0.56958311839E+01  0.19601385111E+02 -0.10000213819E+02  0.12709241362E+03  0.12504327464E+03 0.  0.
    9000005    1    3    3    0    0  0.19047891101E+02 -0.31129751483E+02  0.40320824095E+02  0.54393496288E+02  0.10000000000E+01 0.  0.
    9000005    1    3    3    0    0 -0.13352059917E+02  0.50731136594E+02 -0.50321037914E+02  0.72698917330E+02  0.10000000000E+01 0.  0.
         -4    1    1    2    0  502 -0.56958311839E+01 -0.19601385111E+02  0.17997185247E+03  0.18113016693E+03  0.12700000000E+01 0.  1.
<mgrwt>
<rscale>  1 0.12669837E+03</rscale>
<asrwt>0</asrwt>
<pdfrwt beam="1">  1       21 0.36783273E-01 0.12669837E+03</pdfrwt>
<pdfrwt beam="2">  1       -4 0.10634947E-01 0.12669837E+03</pdfrwt>
<totfact> 0.19802907E+04</totfact>
</mgrwt>
</event>
<event>
 6    3  0.3813045E-003  0.1325733E+03  0.7818608E-02  0.1223687E+00
         -4   -1    0    0    0  501 -0.00000000000E+00  0.00000000000E+00  0.12432945921E+03  0.12433594544E+03  0.12700000000E+01 0. -1.
         21   -1    0    0  501  502  0.00000000000E+00 -0.00000000000E+00 -0.84606687959E+02  0.84606687959E+02  0.00000000000E+00 0.  1.
         25    2    1    2    0    0  0.44094050380E+02  0.25649467301E+01  0.75074552083E+02  0.15235442315E+03  0.12499927061E+03 0.  0.
    9000005    1    3    3    0    0  0.17641359730E+02  0.21599881329E+02 -0.30806471516E+02  0.41566947612E+02  0.10000000000E+01 0.  0.
    9000005    1    3    3    0    0  0.26452690649E+02 -0.19034934599E+02  0.10588102360E+03  0.11078747554E+03  0.10000000000E+01 0.  0.
         -4    1    1    2    0  502 -0.44094050380E+02 -0.25649467301E+01 -0.35351780833E+02  0.56588210245E+02  0.12700000000E+01 0.  1.
<mgrwt>
<rscale>  1 0.13257331E+03</rscale>
<asrwt>0</asrwt>
<pdfrwt beam="2">  1       21 0.13016414E-01 0.13257331E+03</pdfrwt>
<pdfrwt beam="1">  1       -4 0.19128841E-01 0.13257331E+03</pdfrwt>
<totfact> 0.50078159E+04</totfact>
</mgrwt>
</event>
<event>
 6    3  0.3813045E-003  0.1270998E+03  0.7818608E-02  0.1231824E+00
         21   -1    0    0  501  502  0.00000000000E+00  0.00000000000E+00  0.24321452669E+03  0.24321452669E+03  0.00000000000E+00 0.  1.
         -4   -1    0    0    0  501 -0.00000000000E+00 -0.00000000000E+00 -0.38214268463E+02  0.38235366013E+02  0.12700000000E+01 0. -1.
         25    2    1    2    0    0 -0.90497509731E+01  0.21137994926E+02  0.71203199603E+02  0.14568546946E+03  0.12500259020E+03 0.  0.
    9000005    1    3    3    0    0  0.34866949129E+01  0.87054301305E+01  0.10612400290E+03  0.10654222425E+03  0.10000000000E+01 0.  0.
    9000005    1    3    3    0    0 -0.12536445886E+02  0.12432564795E+02 -0.34920803299E+02  0.39143245214E+02  0.10000000000E+01 0.  0.
         -4    1    1    2    0  502  0.90497509731E+01 -0.21137994926E+02  0.13379705862E+03  0.13576442324E+03  0.12700000000E+01 0.  1.
<mgrwt>
<rscale>  1 0.12709980E+03</rscale>
<asrwt>0</asrwt>
<pdfrwt beam="1">  1       21 0.37417618E-01 0.12709980E+03</pdfrwt>
<pdfrwt beam="2">  1       -4 0.58809963E-02 0.12709980E+03</pdfrwt>
<totfact> 0.51019071E+04</totfact>
</mgrwt>
</event>
<event>
 6    3  0.3813045E-003  0.1276479E+03  0.7818608E-02  0.1230988E+00
         21   -1    0    0  501  502  0.00000000000E+00  0.00000000000E+00  0.23906393647E+02  0.23906393647E+02  0.00000000000E+00 0. -1.
         -4   -1    0    0    0  501 -0.00000000000E+00 -0.00000000000E+00 -0.33901872231E+03  0.33902110108E+03  0.12700000000E+01 0.  1.
         25    2    1    2    0    0  0.14758623939E+02 -0.21257008893E+02 -0.31166193761E+03  0.33678948589E+03  0.12499726813E+03 0.  0.
    9000005    1    3    3    0    0  0.66129097227E+01  0.44592057350E+02 -0.52210400927E+02  0.68986289353E+02  0.10000000000E+01 0.  0.
    9000005    1    3    3    0    0  0.81457142160E+01 -0.65849066243E+02 -0.25945153669E+03  0.26780319653E+03  0.10000000000E+01 0.  0.
         -4    1    1    2    0  502 -0.14758623939E+02  0.21257008893E+02 -0.34503910502E+01  0.26138008839E+02  0.12700000000E+01 0. -1.
<mgrwt>
<rscale>  1 0.12764793E+03</rscale>
<asrwt>0</asrwt>
<pdfrwt beam="1">  1       21 0.36779072E-02 0.12764793E+03</pdfrwt>
<pdfrwt beam="2">  1       -4 0.52159497E-01 0.12764793E+03</pdfrwt>
<totfact> 0.64091252E+04</totfact>
</mgrwt>
</event>
<event>
 6    3  0.3813045E-003  0.1266074E+03  0.7818608E-02  0.1232578E+00
         21   -1    0    0  501  502  0.00000000000E+00  0.00000000000E+00  0.37887979289E+02  0.37887979289E+02  0.00000000000E+00 0.  1.
         -4   -1    0    0    0  501 -0.00000000000E+00 -0.00000000000E+00 -0.14271036733E+03  0.14271601818E+03  0.12700000000E+01 0.  1.
         25    2    1    2    0    0  0.17310011545E+02  0.10196682313E+02 -0.94466222300E+02  0.15796615528E+03  0.12500332087E+03 0.  0.
    9000005    1    3    3    0    0 -0.16503008147E+02 -0.51859328567E+02 -0.29225523456E+02  0.61780825979E+02  0.10000000000E+01 0.  0.
    9000005    1    3    3    0    0  0.33813019692E+02  0.62056010880E+02 -0.65240698844E+02  0.96185329301E+02  0.10000000000E+01 0.  0.
         -4    1    1    2    0  502 -0.17310011545E+02 -0.10196682313E+02 -0.10356165743E+02  0.22637842184E+02  0.12700000000E+01 0. -1.
<mgrwt>
<rscale>  1 0.12660742E+03</rscale>
<asrwt>0</asrwt>
<pdfrwt beam="1">  1       21 0.58289200E-02 0.12660742E+03</pdfrwt>
<pdfrwt beam="2">  1       -4 0.21957513E-01 0.12660742E+03</pdfrwt>
<totfact> 0.15640362E+05</totfact>
</mgrwt>
</event>
<event>
 6    3  0.3813045E-003  0.1323283E+03  0.7818608E-02  0.1224041E+00
          4   -1    0    0  502    0 -0.00000000000E+00  0.00000000000E+00  0.26918998066E+02  0.26948939810E+02  0.12700000000E+01 0.  1.
         21   -1    0    0  501  502  0.00000000000E+00 -0.00000000000E+00 -0.32185618811E+03  0.32185618811E+03  0.00000000000E+00 0.  1.
         25    2    1    2    0    0  0.30229248198E+01  0.43319277868E+02 -0.16330147726E+03  0.21018596731E+03  0.12500028187E+03 0.  0.
    9000005    1    3    3    0    0  0.36977283867E+02  0.34086269732E+02 -0.16735583604E+03  0.17475173580E+03  0.10000000000E+01 0.  0.
    9000005    1    3    3    0    0 -0.33954359047E+02  0.92330081363E+01  0.40543587822E+01  0.35434231510E+02  0.10000000000E+01 0.  0.
          4    1    1    2  501    0 -0.30229248198E+01 -0.43319277868E+02 -0.13163571279E+03  0.13861916062E+03  0.12700000000E+01 0. -1.
<mgrwt>
<rscale>  1 0.13232826E+03</rscale>
<asrwt>0</asrwt>
<pdfrwt beam="2">  1       21 0.49516339E-01 0.13232826E+03</pdfrwt>
<pdfrwt beam="1">  1        4 0.41438801E-02 0.13232826E+03</pdfrwt>
<totfact> 0.51050097E+04</totfact>
</mgrwt>
</event>
<event>
 6    3  0.3813045E-003  0.1267239E+03  0.7818608E-02  0.1232400E+00
          4   -1    0    0  502    0 -0.00000000000E+00  0.00000000000E+00  0.56789024452E+02  0.56803223485E+02  0.12700000000E+01 0. -1.
         21   -1    0    0  501  502  0.00000000000E+00 -0.00000000000E+00 -0.19089130566E+03  0.19089130566E+03  0.00000000000E+00 0. -1.
         25    2    1    2    0    0 -0.19925293023E+02 -0.61440225273E+01 -0.15966162698E+02  0.12772569273E+03  0.12499667162E+03 0.  0.
    9000005    1    3    3    0    0  0.46845432693E+02 -0.38388987631E+01 -0.34582847876E+02  0.58362702774E+02  0.10000000000E+01 0.  0.
    9000005    1    3    3    0    0 -0.66770725716E+02 -0.23051237642E+01  0.18616685178E+02  0.69362989953E+02  0.10000000000E+01 0.  0.
          4    1    1    2  501    0  0.19925293023E+02  0.61440225273E+01 -0.11813611851E+03  0.11996883642E+03  0.12700000000E+01 0.  1.
<mgrwt>
<rscale>  1 0.12672385E+03</rscale>
<asrwt>0</asrwt>
<pdfrwt beam="2">  1       21 0.29367894E-01 0.12672385E+03</pdfrwt>
<pdfrwt beam="1">  1        4 0.87381900E-02 0.12672385E+03</pdfrwt>
<totfact> 0.42699879E+04</totfact>
</mgrwt>
</event>
<event>
 6    3  0.3813045E-003  0.1729840E+03  0.7818608E-02  0.1174771E+00
         21   -1    0    0  501  502  0.00000000000E+00  0.00000000000E+00  0.12199218192E+03  0.12199218192E+03  0.00000000000E+00 0. -1.
          4   -1    0    0  502    0 -0.00000000000E+00 -0.00000000000E+00 -0.25220029256E+03  0.25220349019E+03  0.12700000000E+01 0.  1.
         25    2    1    2    0    0  0.10321291298E+02  0.11917154408E+03 -0.17537081651E+03  0.24632984840E+03  0.12496033352E+03 0.  0.
    9000005    1    3    3    0    0  0.66722533524E+01  0.15775660768E+02  0.19329296127E+02  0.25845930554E+02  0.10000000000E+01 0.  0.
    9000005    1    3    3    0    0  0.36490379458E+01  0.10339588331E+03 -0.19470011264E+03  0.22048391784E+03  0.10000000000E+01 0.  0.
          4    1    1    2  501    0 -0.10321291298E+02 -0.11917154408E+03  0.45162705875E+02  0.12786582372E+03  0.12700000000E+01 0. -1.
<mgrwt>
<rscale>  1 0.17298402E+03</rscale>
<asrwt>0</asrwt>
<pdfrwt beam="1">  1       21 0.18768028E-01 0.17298402E+03</pdfrwt>
<pdfrwt beam="2">  1        4 0.38800799E-01 0.17298402E+03</pdfrwt>
<totfact> 0.70143749E+03</totfact>
</mgrwt>
</event>
<event>
 6    3  0.3813045E-003  0.1282077E+03  0.7818608E-02  0.1230140E+00
          4   -1    0    0  502    0 -0.00000000000E+00  0.00000000000E+00  0.42342342999E+02  0.42361384663E+02  0.12700000000E+01 0.  1.
         21   -1    0    0  501  502  0.00000000000E+00 -0.00000000000E+00 -0.14802178249E+03  0.14802178249E+03  0.00000000000E+00 0.  1.
         25    2    1    2    0    0  0.21097494140E+02 -0.19156949180E+02 -0.96331145794E+02  0.16036489845E+03  0.12500047217E+03 0.  0.
    9000005    1    3    3    0    0 -0.22244906890E+02 -0.25644895660E+02 -0.10945711391E+03  0.11460521952E+03  0.10000000000E+01 0.  0.
    9000005    1    3    3    0    0  0.43342401029E+02  0.64879464805E+01  0.13125968117E+02  0.45759678927E+02  0.10000000000E+01 0.  0.
          4    1    1    2  501    0 -0.21097494140E+02  0.19156949180E+02 -0.93482936947E+01  0.30018268702E+02  0.12700000000E+01 0. -1.
<mgrwt>
<rscale>  1 0.12820769E+03</rscale>
<asrwt>0</asrwt>
<pdfrwt beam="2">  1       21 0.22772582E-01 0.12820769E+03</pdfrwt>
<pdfrwt beam="1">  1        4 0.65160904E-02 0.12820769E+03</pdfrwt>
<totfact> 0.11234721E+05</totfact>
</mgrwt>
</event>
<event>
 6    3  0.3813045E-003  0.1300924E+03  0.7818608E-02  0.1227319E+00
         -4   -1    0    0    0  501 -0.00000000000E+00  0.00000000000E+00  0.64829761717E+02  0.64842200027E+02  0.12700000000E+01 0. -1.
         21   -1    0    0  501  502  0.00000000000E+00 -0.00000000000E+00 -0.11083024024E+03  0.11083024024E+03  0.00000000000E+00 0.  1.
         25    2    1    2    0    0  0.35231448317E+02  0.76344760213E+01 -0.50020827997E+02  0.13937758823E+03  0.12499795475E+03 0.  0.
    9000005    1    3    3    0    0 -0.14736996201E+02 -0.37832174197E+02  0.17166812593E+02  0.44092538100E+02  0.10000000000E+01 0.  0.
    9000005    1    3    3    0    0  0.49968444518E+02  0.45466650219E+02 -0.67187640590E+02  0.95285050127E+02  0.10000000000E+01 0.  0.
         -4    1    1    2    0  502 -0.35231448317E+02 -0.76344760213E+01  0.40203494743E+01  0.36294852039E+02  0.12700000000E+01 0.  1.
<mgrwt>
<rscale>  1 0.13009239E+03</rscale>
<asrwt>0</asrwt>
<pdfrwt beam="2">  1       21 0.17050806E-01 0.13009239E+03</pdfrwt>
<pdfrwt beam="1">  1       -4 0.99753260E-02 0.13009239E+03</pdfrwt>
<totfact> 0.94872922E+04</totfact>
</mgrwt>
</event>
<event>
 6    3  0.3813045E-003  0.1764503E+03  0.7818608E-02  0.1171283E+00
         21   -1    0    0  501  502  0.00000000000E+00  0.00000000000E+00  0.61689157789E+03  0.61689157789E+03  0.00000000000E+00 0. -1.
         -4   -1    0    0    0  501 -0.00000000000E+00 -0.00000000000E+00 -0.38331720512E+02  0.38352753453E+02  0.12700000000E+01 0.  1.
         25    2    1    2    0    0 -0.99966329143E+02  0.74266613711E+02  0.40359764730E+03  0.44048356973E+03  0.12500366962E+03 0.  0.
    9000005    1    3    3    0    0 -0.48446069535E+02  0.21045432693E+02  0.32415907067E+02  0.61981633744E+02  0.10000000000E+01 0.  0.
    9000005    1    3    3    0    0 -0.51520259608E+02  0.53221181018E+02  0.37118174024E+03  0.37850193599E+03  0.10000000000E+01 0.  0.
         -4    1    1    2    0  502  0.99966329143E+02 -0.74266613711E+02  0.17496221007E+03  0.21476076161E+03  0.12700000000E+01 0. -1.
<mgrwt>
<rscale>  1 0.17645032E+03</rscale>
<asrwt>0</asrwt>
<pdfrwt beam="1">  1       21 0.94906390E-01 0.17645032E+03</pdfrwt>
<pdfrwt beam="2">  1       -4 0.58989067E-02 0.17645032E+03</pdfrwt>
<totfact> 0.71136279E+03</totfact>
</mgrwt>
</event>
<event>
 6    3  0.3813045E-003  0.1317554E+03  0.7818608E-02  0.1224874E+00
         21   -1    0    0  501  502  0.00000000000E+00  0.00000000000E+00  0.13461944792E+04  0.13461944792E+04  0.00000000000E+00 0.  1.
          4   -1    0    0  502    0 -0.00000000000E+00 -0.00000000000E+00 -0.23161161268E+02  0.23195954201E+02  0.12700000000E+01 0. -1.
         25    2    1    2    0    0  0.14621215368E+02  0.39008209366E+02  0.16751833875E+03  0.21312407121E+03  0.12499622223E+03 0.  0.
    9000005    1    3    3    0    0  0.10694023085E+02  0.57767150119E+01 -0.19572769617E+02  0.23061350276E+02  0.10000000000E+01 0.  0.
    9000005    1    3    3    0    0  0.39271922831E+01  0.33231494354E+02  0.18709110837E+03  0.19006272093E+03  0.10000000000E+01 0.  0.
          4    1    1    2  501    0 -0.14621215368E+02 -0.39008209366E+02  0.11555149792E+04  0.11562663622E+04  0.12700000000E+01 0.  1.
<mgrwt>
<rscale>  1 0.13175536E+03</rscale>
<asrwt>0</asrwt>
<pdfrwt beam="1">  1       21 0.20710678E+00 0.13175536E+03</pdfrwt>
<pdfrwt beam="2">  1        4 0.35659791E-02 0.13175536E+03</pdfrwt>
<totfact> 0.21093439E+03</totfact>
</mgrwt>
</event>
<event>
 6    3  0.3813045E-003  0.1277943E+03  0.7818608E-02  0.1230766E+00
         21   -1    0    0  501  502  0.00000000000E+00  0.00000000000E+00  0.42894659472E+01  0.42894659472E+01  0.00000000000E+00 0. -1.
         -4   -1    0    0    0  501 -0.00000000000E+00 -0.00000000000E+00 -0.26998715930E+04  0.26998718917E+04  0.12700000000E+01 0.  1.
         25    2    1    2    0    0  0.25484027721E+02 -0.75123625295E+01 -0.26337790026E+04  0.26368775532E+04  0.12500209736E+03 0.  0.
    9000005    1    3    3    0    0  0.62955627437E+02 -0.42457114647E+02 -0.14442715180E+04  0.14462666543E+04  0.10000000000E+01 0.  0.
    9000005    1    3    3    0    0 -0.37471599715E+02  0.34944752118E+02 -0.11895074846E+04  0.11906108988E+04  0.10000000000E+01 0.  0.
         -4    1    1    2    0  502 -0.25484027721E+02  0.75123625295E+01 -0.61803124455E+02  0.67283804530E+02  0.12700000000E+01 0. -1.
<mgrwt>
<rscale>  1 0.12779435E+03</rscale>
<asrwt>0</asrwt>
<pdfrwt beam="1">  1       21 0.65991689E-03 0.12779435E+03</pdfrwt>
<pdfrwt beam="2">  1       -4 0.41537994E+00 0.12779435E+03</pdfrwt>
<totfact> 0.21469843E+03</totfact>
</mgrwt>
</event>
<event>
 6    3  0.3813045E-003  0.1300164E+03  0.7818608E-02  0.1227431E+00
         -4   -1    0    0    0  501 -0.00000000000E+00  0.00000000000E+00  0.83291956089E+01  0.84254613815E+01  0.12700000000E+01 0. -1.
         21   -1    0    0  501  502  0.00000000000E+00 -0.00000000000E+00 -0.13563112583E+04  0.13563112583E+04  0.00000000000E+00 0.  1.
         25    2    1    2    0    0 -0.31442593084E+02 -0.17082141013E+02 -0.52093096946E+03  0.53691091680E+03  0.12499528565E+03 0.  0.
    9000005    1    3    3    0    0  0.11202213207E+02  0.43553461010E+02 -0.31180075115E+03  0.31502873197E+03  0.10000000000E+01 0.  0.
    9000005    1    3    3    0    0 -0.42644806291E+02 -0.60635602023E+02 -0.20913021831E+03  0.22188218483E+03  0.10000000000E+01 0.  0.
         -4    1    1    2    0  502  0.31442593084E+02  0.17082141013E+02 -0.82705109326E+03  0.82782580291E+03  0.12700000000E+01 0.  1.
<mgrwt>
<rscale>  1 0.13001637E+03</rscale>
<asrwt>0</asrwt>
<pdfrwt beam="2">  1       21 0.20866326E+00 0.13001637E+03</pdfrwt>
<pdfrwt beam="1">  1       -4 0.12888656E-02 0.13001637E+03</pdfrwt>
<totfact> 0.99361879E+03</totfact>
</mgrwt>
</event>
<event>
 6    3  0.3813045E-003  0.1272182E+03  0.7818608E-02  0.1231643E+00
         -4   -1    0    0    0  501 -0.00000000000E+00  0.00000000000E+00  0.31117174600E+03  0.31117433765E+03  0.12700000000E+01 0.  1.
         21   -1    0    0  501  502  0.00000000000E+00 -0.00000000000E+00 -0.33465431861E+02  0.33465431861E+02  0.00000000000E+00 0. -1.
         25    2    1    2    0    0  0.10826534881E+02 -0.21029711300E+02  0.29091746700E+03  0.31751763694E+03  0.12500005819E+03 0.  0.
    9000005    1    3    3    0    0 -0.29575215235E+02  0.27067984489E+02  0.32636060756E+02  0.51705721174E+02  0.10000000000E+01 0.  0.
    9000005    1    3    3    0    0  0.40401750116E+02 -0.48097695789E+02  0.25828140625E+03  0.26581191577E+03  0.10000000000E+01 0.  0.
         -4    1    1    2    0  502 -0.10826534881E+02  0.21029711300E+02 -0.13211152861E+02  0.27122132564E+02  0.12700000000E+01 0. -1.
<mgrwt>
<rscale>  1 0.12721823E+03</rscale>
<asrwt>0</asrwt>
<pdfrwt beam="2">  1       21 0.51485282E-02 0.12721823E+03</pdfrwt>
<pdfrwt beam="1">  1       -4 0.47874627E-01 0.12721823E+03</pdfrwt>
<totfact> 0.43523151E+04</totfact>
</mgrwt>
</event>
<event>
 6    3  0.3813045E-003  0.1267348E+03  0.7818608E-02  0.1232383E+00
         -4   -1    0    0    0  501 -0.00000000000E+00  0.00000000000E+00  0.16282291580E+03  0.16282786865E+03  0.12700000000E+01 0. -1.
         21   -1    0    0  501  502  0.00000000000E+00 -0.00000000000E+00 -0.41130291570E+02  0.41130291570E+02  0.00000000000E+00 0. -1.
         25    2    1    2    0    0  0.17638507316E+02 -0.11227330815E+02  0.12988013164E+03  0.18146776060E+03  0.12499811856E+03 0.  0.
    9000005    1    3    3    0    0 -0.15599641960E+02  0.33172352647E+02 -0.36712654957E+01  0.36854199215E+02  0.10000000000E+01 0.  0.
    9000005    1    3    3    0    0  0.33238149276E+02 -0.44399683462E+02  0.13355139713E+03  0.14461356138E+03  0.10000000000E+01 0.  0.
         -4    1    1    2    0  502 -0.17638507316E+02  0.11227330815E+02 -0.81875074114E+01  0.22490399622E+02  0.12700000000E+01 0.  1.
<mgrwt>
<rscale>  1 0.12673476E+03</rscale>
<asrwt>0</asrwt>
<pdfrwt beam="2">  1       21 0.63277373E-02 0.12673476E+03</pdfrwt>
<pdfrwt beam="1">  1       -4 0.25051568E-01 0.12673476E+03</pdfrwt>
<totfact> 0.10692833E+05</totfact>
</mgrwt>
</event>
<event>
 6    3  0.3813045E-003  0.1508768E+03  0.7818608E-02  0.1199400E+00
         21   -1    0    0  501  502  0.00000000000E+00  0.00000000000E+00  0.64732217001E+02  0.64732217001E+02  0.00000000000E+00 0.  1.
          4   -1    0    0  502    0 -0.00000000000E+00 -0.00000000000E+00 -0.22950255013E+03  0.22950606401E+03  0.12700000000E+01 0. -1.
         25    2    1    2    0    0  0.55555500093E+02 -0.63660134729E+02 -0.67209298858E+02  0.16516932792E+03  0.12499916275E+03 0.  0.
    9000005    1    3    3    0    0  0.10137957562E+02  0.35668029950E+02 -0.35720679197E+02  0.51497120952E+02  0.10000000000E+01 0.  0.
    9000005    1    3    3    0    0  0.45417542530E+02 -0.99328164679E+02 -0.31488619661E+02  0.11367220696E+03  0.10000000000E+01 0.  0.
          4    1    1    2  501    0 -0.55555500093E+02  0.63660134729E+02 -0.97561034273E+02  0.12906895309E+03  0.12700000000E+01 0.  1.
<mgrwt>
<rscale>  1 0.15087683E+03</rscale>
<asrwt>0</asrwt>
<pdfrwt beam="1">  1       21 0.99588027E-02 0.15087683E+03</pdfrwt>
<pdfrwt beam="2">  1        4 0.35309313E-01 0.15087683E+03</pdfrwt>
<totfact> 0.26108653E+04</totfact>
</mgrwt>
</event>
<event>
 6    3  0.3813045E-003  0.1296224E+03  0.7818608E-02  0.1228017E+00
          4   -1    0    0  502    0 -0.00000000000E+00  0.00000000000E+00  0.12188662073E+03  0.12189323694E+03  0.12700000000E+01 0.  1.
         21   -1    0    0  501  502  0.00000000000E+00 -0.00000000000E+00 -0.15735501764E+03  0.15735501764E+03  0.00000000000E+00 0. -1.
         25    2    1    2    0    0  0.34103001708E+02 -0.38162717420E+01  0.84320342274E+02  0.15463471763E+03  0.12499758845E+03 0.  0.
    9000005    1    3    3    0    0 -0.34740609555E+02 -0.31764907342E+02  0.73600420062E+01  0.47655949357E+02  0.10000000000E+01 0.  0.
    9000005    1    3    3    0    0  0.68843611263E+02  0.27948635600E+02  0.76960300268E+02  0.10697876827E+03  0.10000000000E+01 0.  0.
          4    1    1    2  501    0 -0.34103001708E+02  0.38162717420E+01 -0.11978873919E+03  0.12461353695E+03  0.12700000000E+01 0. -1.
<mgrwt>
<rscale>  1 0.12962244E+03</rscale>
<asrwt>0</asrwt>
<pdfrwt beam="2">  1       21 0.24208464E-01 0.12962244E+03</pdfrwt>
<pdfrwt beam="1">  1        4 0.18752691E-01 0.12962244E+03</pdfrwt>
<totfact> 0.16617797E+04</totfact>
</mgrwt>
</event>
<event>
 6    3  0.3813045E-003  0.1407272E+03  0.7818608E-02  0.1212354E+00
         -4   -1    0    0    0  501 -0.00000000000E+00  0.00000000000E+00  0.39643825717E+02  0.39664162887E+02  0.12700000000E+01 0.  1.
         21   -1    0    0  501  502  0.00000000000E+00 -0.00000000000E+00 -0.26868582792E+03  0.26868582792E+03  0.00000000000E+00 0. -1.
         25    2    1    2    0    0 -0.50131178913E+02  0.40827887213E+02 -0.14204904899E+03  0.19995516490E+03  0.12499633666E+03 0.  0.
    9000005    1    3    3    0    0 -0.66671718988E+02 -0.24254175260E+01 -0.13821529256E+03  0.15347790675E+03  0.10000000000E+01 0.  0.
    9000005    1    3    3    0    0  0.16540540075E+02  0.43253304739E+02 -0.38337564250E+01  0.46477258150E+02  0.10000000000E+01 0.  0.
         -4    1    1    2    0  502  0.50131178913E+02 -0.40827887213E+02 -0.86992953215E+02  0.10839482590E+03  0.12700000000E+01 0. -1.
<mgrwt>
<rscale>  1 0.14072717E+03</rscale>
<asrwt>0</asrwt>
<pdfrwt beam="2">  1       21 0.41336280E-01 0.14072717E+03</pdfrwt>
<pdfrwt beam="1">  1       -4 0.61008456E-02 0.14072717E+03</pdfrwt>
<totfact> 0.39835486E+04</totfact>
</mgrwt>
</event>
<event>
 6    3  0.3813045E-003  0.1420641E+03  0.7818608E-02  0.1210578E+00
         -4   -1    0    0    0  501 -0.00000000000E+00  0.00000000000E+00  0.20821072720E+03  0.20821460040E+03  0.12700000000E+01 0.  1.
         21   -1    0    0  501  502  0.00000000000E+00 -0.00000000000E+00 -0.52895062561E+02  0.52895062561E+02  0.00000000000E+00 0.  1.
         25    2    1    2    0    0  0.66840928894E+02 -0.94670729883E+01  0.11182206370E+03  0.18079377743E+03  0.12499952312E+03 0.  0.
    9000005    1    3    3    0    0  0.24890652472E+02  0.25674883461E+02  0.12021089237E+03  0.12542090283E+03  0.10000000000E+01 0.  0.
    9000005    1    3    3    0    0  0.41950276422E+02 -0.35141956449E+02 -0.83888286734E+01  0.55372874600E+02  0.10000000000E+01 0.  0.
         -4    1    1    2    0  502 -0.66840928894E+02  0.94670729883E+01  0.43493600936E+02  0.80315885532E+02  0.12700000000E+01 0. -1.
<mgrwt>
<rscale>  1 0.14206413E+03</rscale>
<asrwt>0</asrwt>
<pdfrwt beam="2">  1       21 0.81377021E-02 0.14206413E+03</pdfrwt>
<pdfrwt beam="1">  1       -4 0.32033890E-01 0.14206413E+03</pdfrwt>
<totfact> 0.44463840E+04</totfact>
</mgrwt>
</event>
<event>
 6    3  0.3813045E-003  0.1271939E+03  0.7818608E-02  0.1231680E+00
         21   -1    0    0  501  502  0.00000000000E+00  0.00000000000E+00  0.99467322154E+02  0.99467322154E+02  0.00000000000E+00 0. -1.
          4   -1    0    0  502    0 -0.00000000000E+00 -0.00000000000E+00 -0.58489903132E+02  0.58503689357E+02  0.12700000000E+01 0. -1.
         25    2    1    2    0    0 -0.23366173165E+02  0.25825493454E+01  0.43184782209E+02  0.13432501900E+03  0.12500255080E+03 0.  0.
    9000005    1    3    3    0    0 -0.61370276148E+02  0.18449920855E+02 -0.12257565792E+02  0.65253032828E+02  0.10000000000E+01 0.  0.
    9000005    1    3    3    0    0  0.38004102984E+02 -0.15867371510E+02  0.55442348001E+02  0.69071986175E+02  0.10000000000E+01 0.  0.
          4    1    1    2  501    0  0.23366173165E+02 -0.25825493454E+01 -0.22073631864E+01  0.23645992509E+02  0.12700000000E+01 0.  1.
<mgrwt>
<rscale>  1 0.12719389E+03</rscale>
<asrwt>0</asrwt>
<pdfrwt beam="1">  1       21 0.15302665E-01 0.12719389E+03</pdfrwt>
<pdfrwt beam="2">  1        4 0.90001308E-02 0.12719389E+03</pdfrwt>
<totfact> 0.13671981E+05</totfact>
</mgrwt>
</event>
<event>
 6    3  0.3813045E-003  0.1473105E+03  0.7818608E-02  0.1203817E+00
         21   -1    0    0  501  502  0.00000000000E+00  0.00000000000E+00  0.99004152404E+02  0.99004152404E+02  0.00000000000E+00 0. -1.
         -4   -1    0    0    0  501 -0.00000000000E+00 -0.00000000000E+00 -0.16843226314E+03  0.16843705105E+03  0.12700000000E+01 0.  1.
         25    2    1    2    0    0  0.23889900676E+02 -0.74196846676E+02 -0.10584807215E+03  0.18139513498E+03  0.12499792481E+03 0.  0.
    9000005    1    3    3    0    0 -0.10515451015E+02  0.23460297765E+02 -0.65313651735E+02  0.70198528362E+02  0.10000000000E+01 0.  0.
    9000005    1    3    3    0    0  0.34405351691E+02 -0.97657144441E+02 -0.40534420413E+02  0.11119660662E+03  0.10000000000E+01 0.  0.
         -4    1    1    2    0  502 -0.23889900676E+02  0.74196846676E+02  0.36419961409E+02  0.86046068475E+02  0.12700000000E+01 0. -1.
<mgrwt>
<rscale>  1 0.14731049E+03</rscale>
<asrwt>0</asrwt>
<pdfrwt beam="1">  1       21 0.15231408E-01 0.14731049E+03</pdfrwt>
<pdfrwt beam="2">  1       -4 0.25913650E-01 0.14731049E+03</pdfrwt>
<totfact> 0.21959083E+04</totfact>
</mgrwt>
</event>
<event>
 6    3  0.3813045E-003  0.1274460E+03  0.7818608E-02  0.1231295E+00
          4   -1    0    0  502    0 -0.00000000000E+00  0.00000000000E+00  0.48831627745E+03  0.48831792893E+03  0.12700000000E+01 0. -1.
         21   -1    0    0  501  502  0.00000000000E+00 -0.00000000000E+00 -0.13391348187E+02  0.13391348187E+02  0.00000000000E+00 0. -1.
         25    2    1    2    0    0 -0.19824789108E+02  0.14990287265E+02  0.44446172912E+03  0.46237290161E+03  0.12499896207E+03 0.  0.
    9000005    1    3    3    0    0  0.22288235812E+02 -0.31899885594E+02  0.32480061843E+03  0.32712506765E+03  0.10000000000E+01 0.  0.
    9000005    1    3    3    0    0 -0.42113024920E+02  0.46890172859E+02  0.11966111069E+03  0.13524783396E+03  0.10000000000E+01 0.  0.
          4    1    1    2  501    0  0.19824789108E+02 -0.14990287265E+02  0.30463200140E+02  0.39336375510E+02  0.12700000000E+01 0.  1.
<mgrwt>
<rscale>  1 0.12744596E+03</rscale>
<asrwt>0</asrwt>
<pdfrwt beam="2">  1       21 0.20602078E-02 0.12744596E+03</pdfrwt>
<pdfrwt beam="1">  1        4 0.75130327E-01 0.12744596E+03</pdfrwt>
<totfact> 0.76385598E+04</totfact>
</mgrwt>
</event>
<event>
 6    3  0.3813045E-003  0.1443338E+03  0.7818608E-02  0.1207614E+00
         -4   -1    0    0    0  501 -0.00000000000E+00  0.00000000000E+00  0.76664849160E+03  0.76664954352E+03  0.12700000000E+01 0.  1.
         21   -1    0    0  501  502  0.00000000000E+00 -0.00000000000E+00 -0.21759114904E+02  0.21759114904E+02  0.00000000000E+00 0. -1.
         25    2    1    2    0    0 -0.30631600716E+02 -0.65340358596E+02  0.66610007577E+03  0.68155818222E+03  0.12499834954E+03 0.  0.
    9000005    1    3    3    0    0  0.20560520438E+02  0.19676790976E+02  0.32688497471E+03  0.32812299187E+03  0.10000000000E+01 0.  0.
    9000005    1    3    3    0    0 -0.51192121153E+02 -0.85017149572E+02  0.33921510106E+03  0.35343519035E+03  0.10000000000E+01 0.  0.
         -4    1    1    2    0  502  0.30631600716E+02  0.65340358596E+02  0.78789300931E+02  0.10685047620E+03  0.12700000000E+01 0. -1.
<mgrwt>
<rscale>  1 0.14433380E+03</rscale>
<asrwt>0</asrwt>
<pdfrwt beam="2">  1       21 0.33475567E-02 0.14433380E+03</pdfrwt>
<pdfrwt beam="1">  1       -4 0.11794883E+00 0.14433380E+03</pdfrwt>
<totfact> 0.12523050E+04</totfact>
</mgrwt>
</event>
<event>
 6    3  0.3813045E-003  0.1288843E+03  0.7818608E-02  0.1229121E+00
         21   -1    0    0  501  502  0.00000000000E+00  0.00000000000E+00  0.51438165951E+03  0.51438165951E+03  0.00000000000E+00 0.  1.
          4   -1    0    0  502    0 -0.00000000000E+00 -0.00000000000E+00 -0.18650740930E+02  0.18693930492E+02  0.12700000000E+01 0. -1.
         25    2    1    2    0    0 -0.28706641855E+02 -0.12738124865E+02  0.21559557842E+03  0.25118243148E+03  0.12499931736E+03 0.  0.
    9000005    1    3    3    0    0  0.29374329498E+02  0.26667280437E+02  0.22269227074E+02  0.45507291216E+02  0.10000000000E+01 0.  0.
    9000005    1    3    3    0    0 -0.58080971353E+02 -0.39405405301E+02  0.19332635134E+03  0.20567514027E+03  0.10000000000E+01 0.  0.
          4    1    1    2  501    0  0.28706641855E+02  0.12738124865E+02  0.28013534016E+03  0.28189315852E+03  0.12700000000E+01 0.  1.
<mgrwt>
<rscale>  1 0.12888429E+03</rscale>
<asrwt>0</asrwt>
<pdfrwt beam="1">  1       21 0.79135629E-01 0.12888429E+03</pdfrwt>
<pdfrwt beam="2">  1        4 0.28727880E-02 0.12888429E+03</pdfrwt>
<totfact> 0.33226239E+04</totfact>
</mgrwt>
</event>
<event>
 6    3  0.3813045E-003  0.1299427E+03  0.7818608E-02  0.1227541E+00
          4   -1    0    0  502    0 -0.00000000000E+00  0.00000000000E+00  0.31426417724E+03  0.31426674338E+03  0.12700000000E+01 0.  1.
         21   -1    0    0  501  502  0.00000000000E+00 -0.00000000000E+00 -0.33309191436E+02  0.33309191436E+02  0.00000000000E+00 0.  1.
         25    2    1    2    0    0  0.19373030470E+02 -0.29749480041E+02  0.28360154586E+03  0.31195342715E+03  0.12499903209E+03 0.  0.
    9000005    1    3    3    0    0  0.47849502892E+02  0.30751151356E+02  0.84030434748E+02  0.10147572222E+03  0.10000000000E+01 0.  0.
    9000005    1    3    3    0    0 -0.28476472422E+02 -0.60500631397E+02  0.19957111112E+03  0.21047770493E+03  0.10000000000E+01 0.  0.
          4    1    1    2  501    0 -0.19373030470E+02  0.29749480041E+02 -0.26465600580E+01  0.35622507666E+02  0.12700000000E+01 0. -1.
<mgrwt>
<rscale>  1 0.12994269E+03</rscale>
<asrwt>0</asrwt>
<pdfrwt beam="2">  1       21 0.51244912E-02 0.12994269E+03</pdfrwt>
<pdfrwt beam="1">  1        4 0.48350393E-01 0.12994269E+03</pdfrwt>
<totfact> 0.43116934E+04</totfact>
</mgrwt>
</event>
<event>
 6    3  0.3813045E-003  0.1279297E+03  0.7818608E-02  0.1230560E+00
          4   -1    0    0  502    0 -0.00000000000E+00  0.00000000000E+00  0.11590707538E+03  0.11591403290E+03  0.12700000000E+01 0.  1.
         21   -1    0    0  501  502  0.00000000000E+00 -0.00000000000E+00 -0.53879364027E+02  0.53879364027E+02  0.00000000000E+00 0.  1.
         25    2    1    2    0    0  0.45256222205E+01 -0.26894587587E+02  0.38080729324E+02  0.13347713409E+03  0.12498881263E+03 0.  0.
    9000005    1    3    3    0    0 -0.13423072432E+02 -0.74494523249E+02  0.32173079537E+02  0.82253996344E+02  0.10000000000E+01 0.  0.
    9000005    1    3    3    0    0  0.17948694652E+02  0.47599935662E+02  0.59076497867E+01  0.51223137748E+02  0.10000000000E+01 0.  0.
          4    1    1    2  501    0 -0.45256222205E+01  0.26894587587E+02  0.23946982030E+02  0.36316262836E+02  0.12700000000E+01 0. -1.
<mgrwt>
<rscale>  1 0.12792968E+03</rscale>
<asrwt>0</asrwt>
<pdfrwt beam="2">  1       21 0.82891330E-02 0.12792968E+03</pdfrwt>
<pdfrwt beam="1">  1        4 0.17833544E-01 0.12792968E+03</pdfrwt>
<totfact> 0.12463694E+05</totfact>
</mgrwt>
</event>
<event>
 6    3  0.3813045E-003  0.1276141E+03  0.7818608E-02  0.1231040E+00
          4   -1    0    0  502    0 -0.00000000000E+00  0.00000000000E+00  0.56141296564E+03  0.56141440211E+03  0.12700000000E+01 0.  1.
         21   -1    0    0  501  502  0.00000000000E+00 -0.00000000000E+00 -0.10488726865E+02  0.10488726865E+02  0.00000000000E+00 0. -1.
         25    2    1    2    0    0  0.39566869849E+01  0.25376070388E+02  0.46763636440E+03  0.48473614417E+03  0.12500303932E+03 0.  0.
    9000005    1    3    3    0    0 -0.39978719621E+02 -0.29217208401E+02  0.11513955492E+03  0.12533977978E+03  0.10000000000E+01 0.  0.
    9000005    1    3    3    0    0  0.43935406606E+02  0.54593278789E+02  0.35249680948E+03  0.35939636439E+03  0.10000000000E+01 0.  0.
          4    1    1    2  501    0 -0.39566869849E+01 -0.25376070388E+02  0.83287874382E+02  0.87166984801E+02  0.12700000000E+01 0. -1.
<mgrwt>
<rscale>  1 0.12761411E+03</rscale>
<asrwt>0</asrwt>
<pdfrwt beam="2">  1       21 0.16136507E-02 0.12761411E+03</pdfrwt>
<pdfrwt beam="1">  1        4 0.86377227E-01 0.12761411E+03</pdfrwt>
<totfact> 0.83127803E+04</totfact>
</mgrwt>
</event>
<event>
 6    3  0.3813045E-003  0.1277787E+03  0.7818608E-02  0.1230790E+00
         -4   -1    0    0    0  501 -0.00000000000E+00  0.00000000000E+00  0.96872256344E+02  0.96880580867E+02  0.12700000000E+01 0.  1.
         21   -1    0    0  501  502  0.00000000000E+00 -0.00000000000E+00 -0.62013318454E+02  0.62013318454E+02  0.00000000000E+00 0.  1.
         25    2    1    2    0    0 -0.76332271828E+01  0.25385988709E+02  0.34492301291E+02  0.13235219813E+03  0.12499868367E+03 0.  0.
    9000005    1    3    3    0    0 -0.23152120973E+02 -0.35884163733E+02  0.51481861035E+02  0.66896008311E+02  0.10000000000E+01 0.  0.
    9000005    1    3    3    0    0  0.15518893791E+02  0.61270152442E+02 -0.16989559743E+02  0.65456189814E+02  0.10000000000E+01 0.  0.
         -4    1    1    2    0  502  0.76332271828E+01 -0.25385988709E+02  0.36663659876E+00  0.26541701196E+02  0.12700000000E+01 0. -1.
<mgrwt>
<rscale>  1 0.12777866E+03</rscale>
<asrwt>0</asrwt>
<pdfrwt beam="2">  1       21 0.95405107E-02 0.12777866E+03</pdfrwt>
<pdfrwt beam="1">  1       -4 0.14905065E-01 0.12777866E+03</pdfrwt>
<totfact> 0.13383723E+05</totfact>
</mgrwt>
</event>
<event>
 6    3  0.3813045E-003  0.1271697E+03  0.7818608E-02  0.1231717E+00
         -4   -1    0    0    0  501 -0.00000000000E+00  0.00000000000E+00  0.39521400086E+02  0.39541800222E+02  0.12700000000E+01 0. -1.
         21   -1    0    0  501  502  0.00000000000E+00 -0.00000000000E+00 -0.28883027598E+03  0.28883027598E+03  0.00000000000E+00 0.  1.
         25    2    1    2    0    0  0.89021830002E+01  0.21622759095E+02 -0.65442607291E+02  0.14302049082E+03  0.12500133348E+03 0.  0.
    9000005    1    3    3    0    0  0.33461373190E+02  0.67094159135E+02 -0.32473978356E+02  0.81711987836E+02  0.10000000000E+01 0.  0.
    9000005    1    3    3    0    0 -0.24559190190E+02 -0.45471400041E+02 -0.32968628935E+02  0.61308502985E+02  0.10000000000E+01 0.  0.
         -4    1    1    2    0  502 -0.89021830002E+01 -0.21622759095E+02 -0.18386626860E+03  0.18535158538E+03  0.12700000000E+01 0.  1.
<mgrwt>
<rscale>  1 0.12716967E+03</rscale>
<asrwt>0</asrwt>
<pdfrwt beam="2">  1       21 0.44435426E-01 0.12716967E+03</pdfrwt>
<pdfrwt beam="1">  1       -4 0.60819996E-02 0.12716967E+03</pdfrwt>
<totfact> 0.34237434E+04</totfact>
</mgrwt>
</event>
<event>
 6    3  0.3813045E-003  0.1278428E+03  0.7818608E-02  0.1230692E+00
          4   -1    0    0  502    0 -0.00000000000E+00  0.00000000000E+00  0.17324777447E+03  0.17325242930E+03  0.12700000000E+01 0. -1.
         21   -1    0    0  501  502  0.00000000000E+00 -0.00000000000E+00 -0.38186429888E+02  0.38186429888E+02  0.00000000000E+00 0. -1.
         25    2    1    2    0    0  0.26302021994E+02 -0.52264282624E+01  0.13305231883E+03  0.18451747368E+03  0.12499866653E+03 0.  0.
    9000005    1    3    3    0    0 -0.29831170209E+02 -0.30088382533E+02  0.52178076508E+01  0.42701697814E+02  0.10000000000E+01 0.  0.
    9000005    1    3    3    0    0  0.56133192203E+02  0.24861954270E+02  0.12783451118E+03  0.14181577587E+03  0.10000000000E+01 0.  0.
          4    1    1    2  501    0 -0.26302021994E+02  0.52264282624E+01  0.20090257566E+01  0.26921385511E+02  0.12700000000E+01 0.  1.
<mgrwt>
<rscale>  1 0.12784279E+03</rscale>
<asrwt>0</asrwt>
<pdfrwt beam="2">  1       21 0.58748355E-02 0.12784279E+03</pdfrwt>
<pdfrwt beam="1">  1        4 0.26655486E-01 0.12784279E+03</pdfrwt>
<totfact> 0.10826375E+05</totfact>
</mgrwt>
</event>
<event>
 6    3  0.3813045E-003  0.1290429E+03  0.7818608E-02  0.1228883E+00
          4   -1    0    0  502    0 -0.00000000000E+00  0.00000000000E+00  0.68407896441E+02  0.68419684269E+02  0.12700000000E+01 0.  1.
         21   -1    0    0  501  502  0.00000000000E+00 -0.00000000000E+00 -0.10170186093E+03  0.10170186093E+03  0.00000000000E+00 0.  1.
         25    2    1    2    0    0  0.31218415528E+02  0.72013122917E+01 -0.80150606421E+01  0.12929160219E+03  0.12500251530E+03 0.  0.
    9000005    1    3    3    0    0 -0.23930960470E+02 -0.11937430238E+02 -0.50454294947E+02  0.57112424115E+02  0.10000000000E+01 0.  0.
    9000005    1    3    3    0    0  0.55149375998E+02  0.19138742530E+02  0.42439234305E+02  0.72179178071E+02  0.10000000000E+01 0.  0.
          4    1    1    2  501    0 -0.31218415528E+02 -0.72013122917E+01 -0.25278903846E+02  0.40829943013E+02  0.12700000000E+01 0. -1.
<mgrwt>
<rscale>  1 0.12904293E+03</rscale>
<asrwt>0</asrwt>
<pdfrwt beam="2">  1       21 0.15646440E-01 0.12904293E+03</pdfrwt>
<pdfrwt beam="1">  1        4 0.10525808E-01 0.12904293E+03</pdfrwt>
<totfact> 0.10117739E+05</totfact>
</mgrwt>
</event>
<event>
 6    3  0.3813045E-003  0.1279893E+03  0.7818608E-02  0.1230470E+00
         -4   -1    0    0    0  501 -0.00000000000E+00  0.00000000000E+00  0.60604094081E+02  0.60617399477E+02  0.12700000000E+01 0.  1.
         21   -1    0    0  501  502  0.00000000000E+00 -0.00000000000E+00 -0.33972786709E+03  0.33972786709E+03  0.00000000000E+00 0. -1.
         25    2    1    2    0    0 -0.25587586558E+02  0.10064500114E+02 -0.84417957168E+01  0.12826740183E+03  0.12500097483E+03 0.  0.
    9000005    1    3    3    0    0 -0.12046046580E+02  0.64696204124E+02  0.14641623786E+02  0.67424648411E+02  0.10000000000E+01 0.  0.
    9000005    1    3    3    0    0 -0.13541539978E+02 -0.54631704010E+02 -0.23083419502E+02  0.60842753421E+02  0.10000000000E+01 0.  0.
         -4    1    1    2    0  502  0.25587586558E+02 -0.10064500114E+02 -0.27068197730E+03  0.27207786474E+03  0.12700000000E+01 0. -1.
<mgrwt>
<rscale>  1 0.12798931E+03</rscale>
<asrwt>0</asrwt>
<pdfrwt beam="2">  1       21 0.52265826E-01 0.12798931E+03</pdfrwt>
<pdfrwt beam="1">  1       -4 0.93249129E-02 0.12798931E+03</pdfrwt>
<totfact> 0.12141783E+04</totfact>
</mgrwt>
</event>
<event>
 6    3  0.3813045E-003  0.1266741E+03  0.7818608E-02  0.1232476E+00
          4   -1    0    0  502    0 -0.00000000000E+00  0.00000000000E+00  0.71681620774E+02  0.71692870334E+02  0.12700000000E+01 0. -1.
         21   -1    0    0  501  502  0.00000000000E+00 -0.00000000000E+00 -0.77477552882E+02  0.77477552882E+02  0.00000000000E+00 0. -1.
         25    2    1    2    0    0  0.16099494821E+02  0.12760521963E+02  0.31844017583E+01  0.12671415570E+03  0.12499724872E+03 0.  0.
    9000005    1    3    3    0    0  0.58559078632E+02 -0.20081835521E+02  0.27535271973E+02  0.67761619009E+02  0.10000000000E+01 0.  0.
    9000005    1    3    3    0    0 -0.42459583811E+02  0.32842357484E+02 -0.24350870215E+02  0.58952536694E+02  0.10000000000E+01 0.  0.
          4    1    1    2  501    0 -0.16099494821E+02 -0.12760521963E+02 -0.89803338665E+01  0.22456267513E+02  0.12700000000E+01 0.  1.
<mgrwt>
<rscale>  1 0.12667414E+03</rscale>
<asrwt>0</asrwt>
<pdfrwt beam="2">  1       21 0.11919623E-01 0.12667414E+03</pdfrwt>
<pdfrwt beam="1">  1        4 0.11029608E-01 0.12667414E+03</pdfrwt>
<totfact> 0.15167872E+05</totfact>
</mgrwt>
</event>
<event>
 6    3  0.3813045E-003  0.1279390E+03  0.7818608E-02  0.1230546E+00
         -4   -1    0    0    0  501 -0.00000000000E+00  0.00000000000E+00  0.18258866997E+02  0.18302981288E+02  0.12700000000E+01 0. -1.
         21   -1    0    0  501  502  0.00000000000E+00 -0.00000000000E+00 -0.59489966916E+03  0.59489966916E+03  0.00000000000E+00 0.  1.
         25    2    1    2    0    0  0.27191069853E+02  0.20024638022E+01 -0.21250885499E+03  0.24804918683E+03  0.12500008598E+03 0.  0.
    9000005    1    3    3    0    0  0.72149414621E+02  0.23320809514E+02 -0.15062662623E+03  0.16863801088E+03  0.10000000000E+01 0.  0.
    9000005    1    3    3    0    0 -0.44958344768E+02 -0.21318345711E+02 -0.61882228761E+02  0.79411175942E+02  0.10000000000E+01 0.  0.
         -4    1    1    2    0  502 -0.27191069853E+02 -0.20024638022E+01 -0.36413194717E+03  0.36515346362E+03  0.12700000000E+01 0.  1.
<mgrwt>
<rscale>  1 0.12793899E+03</rscale>
<asrwt>0</asrwt>
<pdfrwt beam="2">  1       21 0.91523003E-01 0.12793899E+03</pdfrwt>
<pdfrwt beam="1">  1       -4 0.28125549E-02 0.12793899E+03</pdfrwt>
<totfact> 0.24703181E+04</totfact>
</mgrwt>
</event>
<event>
 6    3  0.3813045E-003  0.1362835E+03  0.7818608E-02  0.1218419E+00
         21   -1    0    0  501  502  0.00000000000E+00  0.00000000000E+00  0.16369360143E+03  0.16369360143E+03  0.00000000000E+00 0. -1.
         -4   -1    0    0    0  501 -0.00000000000E+00 -0.00000000000E+00 -0.79236532260E+02  0.79246709362E+02  0.12700000000E+01 0.  1.
         25    2    1    2    0    0  0.50863058146E+02  0.19104266679E+02 -0.70997303928E+01  0.13646832323E+03  0.12498469260E+03 0.  0.
    9000005    1    3    3    0    0  0.15427420701E+02  0.69460003031E+02 -0.19208960803E+02  0.73706726326E+02  0.10000000000E+01 0.  0.
    9000005    1    3    3    0    0  0.35435637445E+02 -0.50355736352E+02  0.12109230410E+02  0.62761596903E+02  0.10000000000E+01 0.  0.
         -4    1    1    2    0  502 -0.50863058146E+02 -0.19104266679E+02  0.91556799558E+02  0.10647198756E+03  0.12700000000E+01 0. -1.
<mgrwt>
<rscale>  1 0.13628352E+03</rscale>
<asrwt>0</asrwt>
<pdfrwt beam="1">  1       21 0.25183631E-01 0.13628352E+03</pdfrwt>
<pdfrwt beam="2">  1       -4 0.12191398E-01 0.13628352E+03</pdfrwt>
<totfact> 0.32892496E+04</totfact>
</mgrwt>
</event>
<event>
 6    3  0.3813045E-003  0.1284364E+03  0.7818608E-02  0.1229794E+00
         21   -1    0    0  501  502  0.00000000000E+00  0.00000000000E+00  0.16199724069E+02  0.16199724069E+02  0.00000000000E+00 0.  1.
          4   -1    0    0  502    0 -0.00000000000E+00 -0.00000000000E+00 -0.39532936287E+03  0.39533140281E+03  0.12700000000E+01 0.  1.
         25    2    1    2    0    0 -0.12767018758E+02 -0.26611003984E+02 -0.33116182034E+03  0.35519581993E+03  0.12499910778E+03 0.  0.
    9000005    1    3    3    0    0  0.30534424442E+02  0.38961239025E+02 -0.11562325624E+03  0.12577784624E+03  0.10000000000E+01 0.  0.
    9000005    1    3    3    0    0 -0.43301443200E+02 -0.65572243008E+02 -0.21553856410E+03  0.22941797369E+03  0.10000000000E+01 0.  0.
          4    1    1    2  501    0  0.12767018758E+02  0.26611003984E+02 -0.47967818467E+02  0.56335306953E+02  0.12700000000E+01 0. -1.
<mgrwt>
<rscale>  1 0.12843644E+03</rscale>
<asrwt>0</asrwt>
<pdfrwt beam="1">  1       21 0.24922654E-02 0.12843644E+03</pdfrwt>
<pdfrwt beam="2">  1        4 0.60823884E-01 0.12843644E+03</pdfrwt>
<totfact> 0.88297760E+04</totfact>
</mgrwt>
</event>
<event>
 6    3  0.3813045E-003  0.1637375E+03  0.7818608E-02  0.1184541E+00
         -4   -1    0    0    0  501 -0.00000000000E+00  0.00000000000E+00  0.74002446679E+03  0.74002555655E+03  0.12700000000E+01 0.  1.
         21   -1    0    0  501  502  0.00000000000E+00 -0.00000000000E+00 -0.26641729140E+02  0.26641729140E+02  0.00000000000E+00 0. -1.
         25    2    1    2    0    0  0.10061038662E+03 -0.32603276458E+02  0.53277408242E+03  0.55736720739E+03  0.12499822977E+03 0.  0.
    9000005    1    3    3    0    0  0.70515606983E+02 -0.43412747830E+02  0.51324857320E+03  0.51988673323E+03  0.10000000000E+01 0.  0.
    9000005    1    3    3    0    0  0.30094779638E+02  0.10809471372E+02  0.19525509224E+02  0.37480474160E+02  0.10000000000E+01 0.  0.
         -4    1    1    2    0  502 -0.10061038662E+03  0.32603276458E+02  0.18060865523E+03  0.20930007830E+03  0.12700000000E+01 0. -1.
<mgrwt>
<rscale>  1 0.16373754E+03</rscale>
<asrwt>0</asrwt>
<pdfrwt beam="2">  1       21 0.40987281E-02 0.16373754E+03</pdfrwt>
<pdfrwt beam="1">  1       -4 0.11385231E+00 0.16373754E+03</pdfrwt>
<totfact> 0.98373140E+03</totfact>
</mgrwt>
</event>
<event>
 6    3  0.3813045E-003  0.1308943E+03  0.7818608E-02  0.1226135E+00
         21   -1    0    0  501  502  0.00000000000E+00  0.00000000000E+00  0.13917972573E+02  0.13917972573E+02  0.00000000000E+00 0. -1.
          4   -1    0    0  502    0 -0.00000000000E+00 -0.00000000000E+00 -0.95229133352E+03  0.95229218037E+03  0.12700000000E+01 0. -1.
         25    2    1    2    0    0 -0.26060442750E+02 -0.28786661396E+02 -0.90665672574E+03  0.91605662466E+03  0.12500201079E+03 0.  0.
    9000005    1    3    3    0    0  0.41915219690E+02  0.12637819912E+01 -0.55751329547E+03  0.55908904247E+03  0.10000000000E+01 0.  0.
    9000005    1    3    3    0    0 -0.67975662440E+02 -0.30050443387E+02 -0.34914343027E+03  0.35696758219E+03  0.10000000000E+01 0.  0.
          4    1    1    2  501    0  0.26060442750E+02  0.28786661396E+02 -0.31716635207E+02  0.50153528286E+02  0.12700000000E+01 0.  1.
<mgrwt>
<rscale>  1 0.13089431E+03</rscale>
<asrwt>0</asrwt>
<pdfrwt beam="1">  1       21 0.21412271E-02 0.13089431E+03</pdfrwt>
<pdfrwt beam="2">  1        4 0.14651084E+00 0.13089431E+03</pdfrwt>
<totfact> 0.15110760E+04</totfact>
</mgrwt>
</event>
<event>
 6    3  0.3813045E-003  0.1269337E+03  0.7818608E-02  0.1232078E+00
         -4   -1    0    0    0  501 -0.00000000000E+00  0.00000000000E+00  0.89512330927E+03  0.89512421020E+03  0.12700000000E+01 0.  1.
         21   -1    0    0  501  502  0.00000000000E+00 -0.00000000000E+00 -0.12997706736E+02  0.12997706736E+02  0.00000000000E+00 0.  1.
         25    2    1    2    0    0 -0.76446544344E+00 -0.21917273929E+02  0.87623123433E+03  0.88537751586E+03  0.12502487063E+03 0.  0.
    9000005    1    3    3    0    0  0.26296270203E+01  0.44302795981E+02  0.15880480771E+03  0.16489275188E+03  0.10000000000E+01 0.  0.
    9000005    1    3    3    0    0 -0.33940924638E+01 -0.66220069910E+02  0.71742642661E+03  0.72048476398E+03  0.10000000000E+01 0.  0.
         -4    1    1    2    0  502  0.76446544344E+00  0.21917273929E+02  0.58943682028E+01  0.22744401078E+02  0.12700000000E+01 0. -1.
<mgrwt>
<rscale>  1 0.12693372E+03</rscale>
<asrwt>0</asrwt>
<pdfrwt beam="2">  1       21 0.19996479E-02 0.12693372E+03</pdfrwt>
<pdfrwt beam="1">  1       -4 0.13771607E+00 0.12693372E+03</pdfrwt>
<totfact> 0.19645741E+04</totfact>
</mgrwt>
</event>
<event>
 6    3  0.3813045E-003  0.1303336E+03  0.7818608E-02  0.1226962E+00
         21   -1    0    0  501  502  0.00000000000E+00  0.00000000000E+00  0.26086164317E+02  0.26086164317E+02  0.00000000000E+00 0.  1.
          4   -1    0    0  502    0 -0.00000000000E+00 -0.00000000000E+00 -0.27110525466E+03  0.27110822932E+03  0.12700000000E+01 0.  1.
         25    2    1    2    0    0  0.25063284538E+02 -0.27047089592E+02 -0.20340570423E+03  0.24157964657E+03  0.12500852706E+03 0.  0.
    9000005    1    3    3    0    0  0.13256741998E+01  0.82680289824E+01 -0.19856274193E+03  0.19874174246E+03  0.10000000000E+01 0.  0.
    9000005    1    3    3    0    0  0.23737610338E+02 -0.35315118575E+02 -0.48429623028E+01  0.42837904108E+02  0.10000000000E+01 0.  0.
          4    1    1    2  501    0 -0.25063284538E+02  0.27047089592E+02 -0.41613386111E+02  0.55614747063E+02  0.12700000000E+01 0. -1.
<mgrwt>
<rscale>  1 0.13033359E+03</rscale>
<asrwt>0</asrwt>
<pdfrwt beam="1">  1       21 0.40132559E-02 0.13033359E+03</pdfrwt>
<pdfrwt beam="2">  1        4 0.41711109E-01 0.13033359E+03</pdfrwt>
<totfact> 0.87229404E+04</totfact>
</mgrwt>
</event>
<event>
 6    3  0.3813045E-003  0.1269723E+03  0.7818608E-02  0.1232019E+00
         21   -1    0    0  501  502  0.00000000000E+00  0.00000000000E+00  0.20673138844E+02  0.20673138844E+02  0.00000000000E+00 0. -1.
         -4   -1    0    0    0  501 -0.00000000000E+00 -0.00000000000E+00 -0.29944673603E+03  0.29944942916E+03  0.12700000000E+01 0. -1.
         25    2    1    2    0    0 -0.12435913348E+02 -0.18509576404E+02 -0.26508775277E+03  0.29392769070E+03  0.12499885731E+03 0.  0.
    9000005    1    3    3    0    0  0.98507063558E+01  0.62397854572E+01 -0.25995066055E+03  0.26021398359E+03  0.10000000000E+01 0.  0.
    9000005    1    3    3    0    0 -0.22286619704E+02 -0.24749361861E+02 -0.51370922274E+01  0.33713707107E+02  0.10000000000E+01 0.  0.
         -4    1    1    2    0  502  0.12435913348E+02  0.18509576404E+02 -0.13685844418E+02  0.26194877302E+02  0.12700000000E+01 0.  1.
<mgrwt>
<rscale>  1 0.12697232E+03</rscale>
<asrwt>0</asrwt>
<pdfrwt beam="1">  1       21 0.31804829E-02 0.12697232E+03</pdfrwt>
<pdfrwt beam="2">  1       -4 0.46071936E-01 0.12697232E+03</pdfrwt>
<totfact> 0.10466957E+05</totfact>
</mgrwt>
</event>
<event>
 6    3  0.3813045E-003  0.1964833E+03  0.7818608E-02  0.1152740E+00
         -4   -1    0    0    0  501 -0.00000000000E+00  0.00000000000E+00  0.88753361735E+02  0.88762447687E+02  0.12700000000E+01 0.  1.
         21   -1    0    0  501  502  0.00000000000E+00 -0.00000000000E+00 -0.36396747876E+03  0.36396747876E+03  0.00000000000E+00 0. -1.
         25    2    1    2    0    0 -0.13468375980E+03  0.69576425703E+02 -0.98151575856E+02  0.21963477302E+03  0.12500043003E+03 0.  0.
    9000005    1    3    3    0    0 -0.53681973215E+02  0.95863856870E+02 -0.42030067864E+02  0.11763995880E+03  0.10000000000E+01 0.  0.
    9000005    1    3    3    0    0 -0.81001786586E+02 -0.26287431167E+02 -0.56121507992E+02  0.10199481421E+03  0.10000000000E+01 0.  0.
         -4    1    1    2    0  502  0.13468375980E+03 -0.69576425703E+02 -0.17706254117E+03  0.23309515343E+03  0.12700000000E+01 0. -1.
<mgrwt>
<rscale>  1 0.19648334E+03</rscale>
<asrwt>0</asrwt>
<pdfrwt beam="2">  1       21 0.55994996E-01 0.19648334E+03</pdfrwt>
<pdfrwt beam="1">  1       -4 0.13655233E-01 0.19648334E+03</pdfrwt>
<totfact> 0.56149675E+03</totfact>
</mgrwt>
</event>
<event>
 6    3  0.3813045E-003  0.1276409E+03  0.7818608E-02  0.1230999E+00
          4   -1    0    0  502    0 -0.00000000000E+00  0.00000000000E+00  0.15746503992E+04  0.15746509113E+04  0.12700000000E+01 0.  1.
         21   -1    0    0  501  502  0.00000000000E+00 -0.00000000000E+00 -0.46489169214E+01  0.46489169214E+01  0.00000000000E+00 0. -1.
         25    2    1    2    0    0 -0.24091768128E+02 -0.93358416826E+01  0.14843310987E+04  0.14898090536E+04  0.12499853730E+03 0.  0.
    9000005    1    3    3    0    0 -0.35615026369E+02 -0.25254932187E+02  0.14465648695E+04  0.14472239506E+04  0.10000000000E+01 0.  0.
    9000005    1    3    3    0    0  0.11523258241E+02  0.15919090504E+02  0.37766229269E+02  0.42585102984E+02  0.10000000000E+01 0.  0.
          4    1    1    2  501    0  0.24091768128E+02  0.93358416826E+01  0.85670383538E+02  0.89490774647E+02  0.12700000000E+01 0. -1.
<mgrwt>
<rscale>  1 0.12764092E+03</rscale>
<asrwt>0</asrwt>
<pdfrwt beam="2">  1       21 0.71521925E-03 0.12764092E+03</pdfrwt>
<pdfrwt beam="1">  1        4 0.24226686E+00 0.12764092E+03</pdfrwt>
<totfact> 0.20951445E+04</totfact>
</mgrwt>
</event>
<event>
 6    3  0.3813045E-003  0.1589137E+03  0.7818608E-02  0.1189929E+00
         21   -1    0    0  501  502  0.00000000000E+00  0.00000000000E+00  0.97975613716E+02  0.97975613716E+02  0.00000000000E+00 0. -1.
         -4   -1    0    0    0  501 -0.00000000000E+00 -0.00000000000E+00 -0.18818042388E+03  0.18818470935E+03  0.12700000000E+01 0.  1.
         25    2    1    2    0    0 -0.51856308017E+02 -0.83300908988E+02 -0.99653912123E+02  0.18757525043E+03  0.12500181699E+03 0.  0.
    9000005    1    3    3    0    0 -0.42900139439E+02 -0.45185553954E+02 -0.12586592420E+03  0.14044709725E+03  0.10000000000E+01 0.  0.
    9000005    1    3    3    0    0 -0.89561685781E+01 -0.38115355034E+02  0.26212012077E+02  0.47128153179E+02  0.10000000000E+01 0.  0.
         -4    1    1    2    0  502  0.51856308017E+02  0.83300908988E+02  0.94491019572E+01  0.98585072639E+02  0.12700000000E+01 0. -1.
<mgrwt>
<rscale>  1 0.15891373E+03</rscale>
<asrwt>0</asrwt>
<pdfrwt beam="1">  1       21 0.15073171E-01 0.15891373E+03</pdfrwt>
<pdfrwt beam="2">  1       -4 0.28951797E-01 0.15891373E+03</pdfrwt>
<totfact> 0.18316268E+04</totfact>
</mgrwt>
</event>
<event>
 6    3  0.3813045E-003  0.1305617E+03  0.7818608E-02  0.1226625E+00
          4   -1    0    0  502    0 -0.00000000000E+00  0.00000000000E+00  0.26135923346E+02  0.26166761152E+02  0.12700000000E+01 0.  1.
         21   -1    0    0  501  502  0.00000000000E+00 -0.00000000000E+00 -0.27361658102E+03  0.27361658102E+03  0.00000000000E+00 0.  1.
         25    2    1    2    0    0  0.36221259925E+02  0.10478342802E+02 -0.17840753840E+03  0.22107829758E+03  0.12499835424E+03 0.  0.
    9000005    1    3    3    0    0 -0.39802208893E+02 -0.17985353588E+02 -0.33785651360E+02  0.55228244715E+02  0.10000000000E+01 0.  0.
    9000005    1    3    3    0    0  0.76023468818E+02  0.28463696390E+02 -0.14462188704E+03  0.16585005287E+03  0.10000000000E+01 0.  0.
          4    1    1    2  501    0 -0.36221259925E+02 -0.10478342802E+02 -0.69073119266E+02  0.78705044588E+02  0.12700000000E+01 0. -1.
<mgrwt>
<rscale>  1 0.13056172E+03</rscale>
<asrwt>0</asrwt>
<pdfrwt beam="2">  1       21 0.42094862E-01 0.13056172E+03</pdfrwt>
<pdfrwt beam="1">  1        4 0.40235098E-02 0.13056172E+03</pdfrwt>
<totfact> 0.74359081E+04</totfact>
</mgrwt>
</event>
<event>
 6    3  0.3813045E-003  0.1266629E+03  0.7818608E-02  0.1232493E+00
         21   -1    0    0  501  502  0.00000000000E+00  0.00000000000E+00  0.14750652922E+02  0.14750652922E+02  0.00000000000E+00 0.  1.
          4   -1    0    0  502    0 -0.00000000000E+00 -0.00000000000E+00 -0.56037768081E+03  0.56037911992E+03  0.12700000000E+01 0. -1.
         25    2    1    2    0    0 -0.15948192857E+02 -0.12796288136E+02 -0.26456982396E+03  0.29332690802E+03  0.12500157348E+03 0.  0.
    9000005    1    3    3    0    0 -0.16976608297E+02 -0.67941806072E+02 -0.16969678402E+03  0.18358184210E+03  0.10000000000E+01 0.  0.
    9000005    1    3    3    0    0  0.10284154401E+01  0.55145517936E+02 -0.94873039939E+02  0.10974506592E+03  0.10000000000E+01 0.  0.
          4    1    1    2  501    0  0.15948192857E+02  0.12796288136E+02 -0.28105720393E+03  0.28180286483E+03  0.12700000000E+01 0.  1.
<mgrwt>
<rscale>  1 0.12666287E+03</rscale>
<asrwt>0</asrwt>
<pdfrwt beam="1">  1       21 0.22693318E-02 0.12666287E+03</pdfrwt>
<pdfrwt beam="2">  1        4 0.86216245E-01 0.12666287E+03</pdfrwt>
<totfact> 0.48151725E+04</totfact>
</mgrwt>
</event>
<event>
 6    3  0.3813045E-003  0.1266336E+03  0.7818608E-02  0.1232538E+00
          4   -1    0    0  502    0 -0.00000000000E+00  0.00000000000E+00  0.23616960135E+03  0.23617301603E+03  0.12700000000E+01 0.  1.
         21   -1    0    0  501  502  0.00000000000E+00 -0.00000000000E+00 -0.28858832804E+02  0.28858832804E+02  0.00000000000E+00 0.  1.
         25    2    1    2    0    0  0.17628266124E+02  0.98440058237E+01  0.20937994311E+03  0.24469580693E+03  0.12501366779E+03 0.  0.
    9000005    1    3    3    0    0 -0.29042007312E+02  0.28897136525E+02  0.14613463592E+02  0.43509033616E+02  0.10000000000E+01 0.  0.
    9000005    1    3    3    0    0  0.46670273436E+02 -0.19053130701E+02  0.19476647952E+03  0.20118677331E+03  0.10000000000E+01 0.  0.
          4    1    1    2  501    0 -0.17628266124E+02 -0.98440058237E+01 -0.20691745621E+01  0.20336041910E+02  0.12700000000E+01 0. -1.
<mgrwt>
<rscale>  1 0.12663363E+03</rscale>
<asrwt>0</asrwt>
<pdfrwt beam="2">  1       21 0.44398206E-02 0.12663363E+03</pdfrwt>
<pdfrwt beam="1">  1        4 0.36336196E-01 0.12663363E+03</pdfrwt>
<totfact> 0.96174547E+04</totfact>
</mgrwt>
</event>
<event>
 6    3  0.3813045E-003  0.1327970E+03  0.7818608E-02  0.1223364E+00
          4   -1    0    0  502    0 -0.00000000000E+00  0.00000000000E+00  0.25759575001E+02  0.25790862805E+02  0.12700000000E+01 0.  1.
         21   -1    0    0  501  502  0.00000000000E+00 -0.00000000000E+00 -0.33237183870E+03  0.33237183870E+03  0.00000000000E+00 0.  1.
         25    2    1    2    0    0  0.43412489818E+02  0.11208910277E+02 -0.17888696985E+03  0.22279044611E+03  0.12499900381E+03 0.  0.
    9000005    1    3    3    0    0  0.60929465779E+02 -0.43657238823E+02 -0.10763090195E+03  0.13116312498E+03  0.10000000000E+01 0.  0.
    9000005    1    3    3    0    0 -0.17516975961E+02  0.54866149100E+02 -0.71256067904E+02  0.91627321128E+02  0.10000000000E+01 0.  0.
          4    1    1    2  501    0 -0.43412489818E+02 -0.11208910277E+02 -0.12772529385E+03  0.13537225540E+03  0.12700000000E+01 0. -1.
<mgrwt>
<rscale>  1 0.13279697E+03</rscale>
<asrwt>0</asrwt>
<pdfrwt beam="2">  1       21 0.51134129E-01 0.13279697E+03</pdfrwt>
<pdfrwt beam="1">  1        4 0.39656049E-02 0.13279697E+03</pdfrwt>
<totfact> 0.51244292E+04</totfact>
</mgrwt>
</event>
<event>
 6    3  0.3813045E-003  0.1376742E+03  0.7818608E-02  0.1216493E+00
         -4   -1    0    0    0  501 -0.00000000000E+00  0.00000000000E+00  0.19690983980E+02  0.19731896769E+02  0.12700000000E+01 0. -1.
         21   -1    0    0  501  502  0.00000000000E+00 -0.00000000000E+00 -0.48444234032E+03  0.48444234032E+03  0.00000000000E+00 0.  1.
         25    2    1    2    0    0  0.13073122306E+02  0.56229049966E+02 -0.33113341111E+03  0.35861331934E+03  0.12498625633E+03 0.  0.
    9000005    1    3    3    0    0  0.13780236557E+02 -0.36984278608E+02 -0.14723642596E+03  0.15243784607E+03  0.10000000000E+01 0.  0.
    9000005    1    3    3    0    0 -0.70711425034E+00  0.93213328574E+02 -0.18389698515E+03  0.20617547327E+03  0.10000000000E+01 0.  0.
         -4    1    1    2    0  502 -0.13073122306E+02 -0.56229049966E+02 -0.13361794523E+03  0.14556091774E+03  0.12700000000E+01 0.  1.
<mgrwt>
<rscale>  1 0.13767417E+03</rscale>
<asrwt>0</asrwt>
<pdfrwt beam="2">  1       21 0.74529591E-01 0.13767417E+03</pdfrwt>
<pdfrwt beam="1">  1       -4 0.30326573E-02 0.13767417E+03</pdfrwt>
<totfact> 0.35085801E+04</totfact>
</mgrwt>
</event>
<event>
 6    3  0.3813045E-003  0.1321359E+03  0.7818608E-02  0.1224320E+00
         21   -1    0    0  501  502  0.00000000000E+00  0.00000000000E+00  0.79862783920E+02  0.79862783920E+02  0.00000000000E+00 0. -1.
         -4   -1    0    0    0  501 -0.00000000000E+00 -0.00000000000E+00 -0.12765711645E+03  0.12766343360E+03  0.12700000000E+01 0.  1.
         25    2    1    2    0    0  0.12883280292E+02  0.40846954519E+02 -0.79512732824E+02  0.15421465760E+03  0.12500173331E+03 0.  0.
    9000005    1    3    3    0    0  0.19174789394E+02 -0.36397940627E+02  0.26826235369E+01  0.41239290722E+02  0.10000000000E+01 0.  0.
    9000005    1    3    3    0    0 -0.62915091017E+01  0.77244895146E+02 -0.82195356361E+02  0.11297536687E+03  0.10000000000E+01 0.  0.
         -4    1    1    2    0  502 -0.12883280292E+02 -0.40846954519E+02  0.31718400298E+02  0.53311559928E+02  0.12700000000E+01 0. -1.
<mgrwt>
<rscale>  1 0.13213586E+03</rscale>
<asrwt>0</asrwt>
<pdfrwt beam="1">  1       21 0.12286582E-01 0.13213586E+03</pdfrwt>
<pdfrwt beam="2">  1       -4 0.19640819E-01 0.13213586E+03</pdfrwt>
<totfact> 0.52906406E+04</totfact>
</mgrwt>
</event>
<event>
 6    3  0.3813045E-003  0.1271739E+03  0.7818608E-02  0.1231710E+00
         21   -1    0    0  501  502  0.00000000000E+00  0.00000000000E+00  0.43179753024E+03  0.43179753024E+03  0.00000000000E+00 0. -1.
          4   -1    0    0  502    0 -0.00000000000E+00 -0.00000000000E+00 -0.62575318252E+02  0.62588204594E+02  0.12700000000E+01 0.  1.
         25    2    1    2    0    0 -0.73227385280E+01 -0.22235484619E+02  0.27902061896E+01  0.12720448933E+03  0.12500063032E+03 0.  0.
    9000005    1    3    3    0    0 -0.13748780997E+02  0.36121412842E+02  0.41621457811E+02  0.56807844484E+02  0.10000000000E+01 0.  0.
    9000005    1    3    3    0    0  0.64260424689E+01 -0.58356897462E+02 -0.38831251621E+02  0.70396644846E+02  0.10000000000E+01 0.  0.
          4    1    1    2  501    0  0.73227385280E+01  0.22235484619E+02  0.36643200580E+03  0.36718124551E+03  0.12700000000E+01 0. -1.
<mgrwt>
<rscale>  1 0.12717388E+03</rscale>
<asrwt>0</asrwt>
<pdfrwt beam="1">  1       21 0.66430388E-01 0.12717388E+03</pdfrwt>
<pdfrwt beam="2">  1        4 0.96281072E-02 0.12717388E+03</pdfrwt>
<totfact> 0.69233258E+03</totfact>
</mgrwt>
</event>
<event>
 6    3  0.3813045E-003  0.1270775E+03  0.7818608E-02  0.1231858E+00
         21   -1    0    0  501  502  0.00000000000E+00  0.00000000000E+00  0.26163936302E+02  0.26163936302E+02  0.00000000000E+00 0. -1.
          4   -1    0    0  502    0 -0.00000000000E+00 -0.00000000000E+00 -0.28890917788E+03  0.28891196923E+03  0.12700000000E+01 0. -1.
         25    2    1    2    0    0 -0.17847150960E+02 -0.13943052224E+02 -0.26332543524E+03  0.29238495959E+03  0.12504299361E+03 0.  0.
    9000005    1    3    3    0    0 -0.45553070960E+02  0.11006166292E+02 -0.24744841424E+03  0.25184903351E+03  0.10000000000E+01 0.  0.
    9000005    1    3    3    0    0  0.27705919999E+02 -0.24949218515E+02 -0.15877020997E+02  0.40535926082E+02  0.10000000000E+01 0.  0.
          4    1    1    2  501    0  0.17847150960E+02  0.13943052224E+02  0.58019366307E+00  0.22690945934E+02  0.12700000000E+01 0.  1.
<mgrwt>
<rscale>  1 0.12707746E+03</rscale>
<asrwt>0</asrwt>
<pdfrwt beam="1">  1       21 0.40252212E-02 0.12707746E+03</pdfrwt>
<pdfrwt beam="2">  1        4 0.44450149E-01 0.12707746E+03</pdfrwt>
<totfact> 0.76212627E+04</totfact>
</mgrwt>
</event>
<event>
 6    3  0.3813045E-003  0.1266015E+03  0.7818608E-02  0.1232587E+00
          4   -1    0    0  502    0 -0.00000000000E+00  0.00000000000E+00  0.44143378990E+03  0.44143561679E+03  0.12700000000E+01 0. -1.
         21   -1    0    0  501  502  0.00000000000E+00 -0.00000000000E+00 -0.13535047940E+02  0.13535047940E+02  0.00000000000E+00 0. -1.
         25    2    1    2    0    0  0.95500750495E+01 -0.17669887752E+02  0.40575735087E+03  0.42504938524E+03  0.12499809295E+03 0.  0.
    9000005    1    3    3    0    0 -0.49448075488E+01  0.33801652968E+01 -0.82548327102E+01  0.10247873057E+02  0.10000000000E+01 0.  0.
    9000005    1    3    3    0    0  0.14494882598E+02 -0.21050053049E+02  0.41401218358E+03  0.41480151218E+03  0.10000000000E+01 0.  0.
          4    1    1    2  501    0 -0.95500750495E+01  0.17669887752E+02  0.22141391090E+02  0.29921279485E+02  0.12700000000E+01 0.  1.
<mgrwt>
<rscale>  1 0.12660155E+03</rscale>
<asrwt>0</asrwt>
<pdfrwt beam="2">  1       21 0.20823154E-02 0.12660155E+03</pdfrwt>
<pdfrwt beam="1">  1        4 0.67917603E-01 0.12660155E+03</pdfrwt>
<totfact> 0.93299981E+04</totfact>
</mgrwt>
</event>
<event>
 6    3  0.3813045E-003  0.1341870E+03  0.7818608E-02  0.1221372E+00
         21   -1    0    0  501  502  0.00000000000E+00  0.00000000000E+00  0.13123443370E+03  0.13123443370E+03  0.00000000000E+00 0. -1.
         -4   -1    0    0    0  501 -0.00000000000E+00 -0.00000000000E+00 -0.90287449642E+03  0.90287538963E+03  0.12700000000E+01 0.  1.
         25    2    1    2    0    0 -0.19427016504E+02  0.44766482078E+02 -0.89314301904E+03  0.90316698014E+03  0.12499877867E+03 0.  0.
    9000005    1    3    3    0    0  0.21562189140E+02  0.60967045790E+02 -0.76347392587E+03  0.76620842083E+03  0.10000000000E+01 0.  0.
    9000005    1    3    3    0    0 -0.40989205644E+02 -0.16200563712E+02 -0.12966909317E+03  0.13695855931E+03  0.10000000000E+01 0.  0.
         -4    1    1    2    0  502  0.19427016504E+02 -0.44766482078E+02  0.12150295631E+03  0.13094284318E+03  0.12700000000E+01 0. -1.
<mgrwt>
<rscale>  1 0.13418696E+03</rscale>
<asrwt>0</asrwt>
<pdfrwt beam="1">  1       21 0.20189913E-01 0.13418696E+03</pdfrwt>
<pdfrwt beam="2">  1       -4 0.13890431E+00 0.13418696E+03</pdfrwt>
<totfact> 0.36867983E+02</totfact>
</mgrwt>
</event>
<event>
 6    3  0.3813045E-003  0.1278553E+03  0.7818608E-02  0.1230673E+00
         21   -1    0    0  501  502  0.00000000000E+00  0.00000000000E+00  0.11308748483E+02  0.11308748483E+02  0.00000000000E+00 0.  1.
          4   -1    0    0  502    0 -0.00000000000E+00 -0.00000000000E+00 -0.55449594519E+03  0.55449739958E+03  0.12700000000E+01 0.  1.
         25    2    1    2    0    0  0.36528084926E+01  0.26672300777E+02 -0.48678175512E+03  0.50329261848E+03  0.12498891177E+03 0.  0.
    9000005    1    3    3    0    0 -0.42763968116E+01  0.44745302482E+02 -0.48043941534E+03  0.48253855957E+03  0.10000000000E+01 0.  0.
    9000005    1    3    3    0    0  0.79292053042E+01 -0.18073001705E+02 -0.63423397786E+01  0.20754058910E+02  0.10000000000E+01 0.  0.
          4    1    1    2  501    0 -0.36528084926E+01 -0.26672300777E+02 -0.56405441591E+02  0.62513529574E+02  0.12700000000E+01 0. -1.
<mgrwt>
<rscale>  1 0.12785532E+03</rscale>
<asrwt>0</asrwt>
<pdfrwt beam="1">  1       21 0.17398073E-02 0.12785532E+03</pdfrwt>
<pdfrwt beam="2">  1        4 0.85312676E-01 0.12785532E+03</pdfrwt>
<totfact> 0.75772385E+04</totfact>
</mgrwt>
</event>
<event>
 6    3  0.3813045E-003  0.1365086E+03  0.7818608E-02  0.1218106E+00
         -4   -1    0    0    0  501 -0.00000000000E+00  0.00000000000E+00  0.20134594249E+03  0.20134994775E+03  0.12700000000E+01 0. -1.
         21   -1    0    0  501  502  0.00000000000E+00 -0.00000000000E+00 -0.76843875928E+02  0.76843875928E+02  0.00000000000E+00 0.  1.
         25    2    1    2    0    0 -0.46967338052E+02 -0.28210065912E+02  0.16195823991E+03  0.21181373265E+03  0.12503138488E+03 0.  0.
    9000005    1    3    3    0    0 -0.74156408966E+02 -0.14199024056E+02  0.16460300579E+03  0.18109647923E+03  0.10000000000E+01 0.  0.
    9000005    1    3    3    0    0  0.27189070914E+02 -0.14011041856E+02 -0.26447658856E+01  0.30717253420E+02  0.10000000000E+01 0.  0.
         -4    1    1    2    0  502  0.46967338052E+02  0.28210065912E+02 -0.37456173344E+02  0.66380091021E+02  0.12700000000E+01 0.  1.
<mgrwt>
<rscale>  1 0.13650856E+03</rscale>
<asrwt>0</asrwt>
<pdfrwt beam="2">  1       21 0.11822135E-01 0.13650856E+03</pdfrwt>
<pdfrwt beam="1">  1       -4 0.30977414E-01 0.13650856E+03</pdfrwt>
<totfact> 0.24540152E+04</totfact>
</mgrwt>
</event>
<event>
 6    3  0.3813045E-003  0.1309777E+03  0.7818608E-02  0.1226012E+00
         -4   -1    0    0    0  501 -0.00000000000E+00  0.00000000000E+00  0.80140221544E+02  0.80150283899E+02  0.12700000000E+01 0. -1.
         21   -1    0    0  501  502  0.00000000000E+00 -0.00000000000E+00 -0.10554072941E+03  0.10554072941E+03  0.00000000000E+00 0.  1.
         25    2    1    2    0    0  0.22119568319E+02 -0.32270898354E+02  0.12032201044E+02  0.13152915607E+03  0.12499783539E+03 0.  0.
    9000005    1    3    3    0    0 -0.10569510882E+01 -0.38166583057E+02 -0.51223922728E+02  0.63895973797E+02  0.10000000000E+01 0.  0.
    9000005    1    3    3    0    0  0.23176519407E+02  0.58956847027E+01  0.63256123772E+02  0.67633182275E+02  0.10000000000E+01 0.  0.
         -4    1    1    2    0  502 -0.22119568319E+02  0.32270898354E+02 -0.37432708914E+02  0.54161857242E+02  0.12700000000E+01 0.  1.
<mgrwt>
<rscale>  1 0.13097765E+03</rscale>
<asrwt>0</asrwt>
<pdfrwt beam="2">  1       21 0.16237035E-01 0.13097765E+03</pdfrwt>
<pdfrwt beam="1">  1       -4 0.12330627E-01 0.13097765E+03</pdfrwt>
<totfact> 0.72421082E+04</totfact>
</mgrwt>
</event>
<event>
 6    3  0.3813045E-003  0.1280395E+03  0.7818608E-02  0.1230394E+00
          4   -1    0    0  502    0 -0.00000000000E+00  0.00000000000E+00  0.12630506814E+03  0.12631145291E+03  0.12700000000E+01 0.  1.
         21   -1    0    0  501  502  0.00000000000E+00 -0.00000000000E+00 -0.56890718370E+02  0.56890718370E+02  0.00000000000E+00 0.  1.
         25    2    1    2    0    0 -0.80550280058E+01 -0.26609310450E+02  0.82636062171E+02  0.15239039662E+03  0.12498470040E+03 0.  0.
    9000005    1    3    3    0    0  0.36065965405E+02  0.75528644376E+01  0.88891300291E+02  0.96231298906E+02  0.10000000000E+01 0.  0.
    9000005    1    3    3    0    0 -0.44120993411E+02 -0.34162174887E+02 -0.62552381197E+01  0.56159097718E+02  0.10000000000E+01 0.  0.
          4    1    1    2  501    0  0.80550280058E+01  0.26609310450E+02 -0.13221712403E+02  0.30811774659E+02  0.12700000000E+01 0. -1.
<mgrwt>
<rscale>  1 0.12803950E+03</rscale>
<asrwt>0</asrwt>
<pdfrwt beam="2">  1       21 0.87524183E-02 0.12803950E+03</pdfrwt>
<pdfrwt beam="1">  1        4 0.19433130E-01 0.12803950E+03</pdfrwt>
<totfact> 0.97349522E+04</totfact>
</mgrwt>
</event>
<event>
 6    3  0.3813045E-003  0.1294241E+03  0.7818608E-02  0.1228313E+00
         21   -1    0    0  501  502  0.00000000000E+00  0.00000000000E+00  0.73494274987E+02  0.73494274987E+02  0.00000000000E+00 0.  1.
         -4   -1    0    0    0  501 -0.00000000000E+00 -0.00000000000E+00 -0.10805363294E+03  0.10806109611E+03  0.12700000000E+01 0.  1.
         25    2    1    2    0    0 -0.66302041396E+01 -0.32880027078E+02 -0.56747958627E+02  0.14131853862E+03  0.12500217103E+03 0.  0.
    9000005    1    3    3    0    0  0.10283531226E+02 -0.70824057396E+02 -0.67513712185E+02  0.98391561902E+02  0.10000000000E+01 0.  0.
    9000005    1    3    3    0    0 -0.16913735366E+02  0.37944030318E+02  0.10765753559E+02  0.42926976722E+02  0.10000000000E+01 0.  0.
         -4    1    1    2    0  502  0.66302041396E+01  0.32880027078E+02  0.22188600671E+02  0.40236832471E+02  0.12700000000E+01 0. -1.
<mgrwt>
<rscale>  1 0.12942410E+03</rscale>
<asrwt>0</asrwt>
<pdfrwt beam="1">  1       21 0.11306812E-01 0.12942410E+03</pdfrwt>
<pdfrwt beam="2">  1       -4 0.16625054E-01 0.12942410E+03</pdfrwt>
<totfact> 0.82204782E+04</totfact>
</mgrwt>
</event>
<event>
 6    3  0.3813045E-003  0.1268475E+03  0.7818608E-02  0.1232210E+00
         21   -1    0    0  501  502  0.00000000000E+00  0.00000000000E+00  0.88883572419E+02  0.88883572419E+02  0.00000000000E+00 0.  1.
          4   -1    0    0  502    0 -0.00000000000E+00 -0.00000000000E+00 -0.15974028811E+03  0.15974533654E+03  0.12700000000E+01 0. -1.
         25    2    1    2    0    0  0.12962476323E+02 -0.17232905083E+02 -0.13242824017E+03  0.18337812862E+03  0.12500120180E+03 0.  0.
    9000005    1    3    3    0    0 -0.30456680506E+02 -0.54027291510E+02 -0.10053517573E+03  0.11813077150E+03  0.10000000000E+01 0.  0.
    9000005    1    3    3    0    0  0.43419156829E+02  0.36794386427E+02 -0.31893064437E+02  0.65247357122E+02  0.10000000000E+01 0.  0.
          4    1    1    2  501    0 -0.12962476323E+02  0.17232905083E+02  0.61571524469E+02  0.65250780344E+02  0.12700000000E+01 0.  1.
<mgrwt>
<rscale>  1 0.12684754E+03</rscale>
<asrwt>0</asrwt>
<pdfrwt beam="1">  1       21 0.13674396E-01 0.12684754E+03</pdfrwt>
<pdfrwt beam="2">  1        4 0.24576515E-01 0.12684754E+03</pdfrwt>
<totfact> 0.28951191E+04</totfact>
</mgrwt>
</event>
<event>
 6    3  0.3813045E-003  0.1268767E+03  0.7818608E-02  0.1232165E+00
         21   -1    0    0  501  502  0.00000000000E+00  0.00000000000E+00  0.24513705154E+03  0.24513705154E+03  0.00000000000E+00 0.  1.
         -4   -1    0    0    0  501 -0.00000000000E+00 -0.00000000000E+00 -0.24418668106E+02  0.24451671764E+02  0.12700000000E+01 0.  1.
         25    2    1    2    0    0 -0.18637207610E+02 -0.11205004018E+02  0.15472887480E+03  0.20009681174E+03  0.12499924700E+03 0.  0.
    9000005    1    3    3    0    0  0.26148234771E+02  0.26907098205E+02  0.13168278813E+03  0.13692727560E+03  0.10000000000E+01 0.  0.
    9000005    1    3    3    0    0 -0.44785442381E+02 -0.38112102222E+02  0.23046086672E+02  0.63169536138E+02  0.10000000000E+01 0.  0.
         -4    1    1    2    0  502  0.18637207610E+02  0.11205004018E+02  0.65989508639E+02  0.69491911565E+02  0.12700000000E+01 0. -1.
<mgrwt>
<rscale>  1 0.12687675E+03</rscale>
<asrwt>0</asrwt>
<pdfrwt beam="1">  1       21 0.37713391E-01 0.12687675E+03</pdfrwt>
<pdfrwt beam="2">  1       -4 0.37595101E-02 0.12687675E+03</pdfrwt>
<totfact> 0.10275999E+05</totfact>
</mgrwt>
</event>
<event>
 6    3  0.3813045E-003  0.1305832E+03  0.7818608E-02  0.1226593E+00
         21   -1    0    0  501  502  0.00000000000E+00  0.00000000000E+00  0.37455065661E+02  0.37455065661E+02  0.00000000000E+00 0. -1.
         -4   -1    0    0    0  501 -0.00000000000E+00 -0.00000000000E+00 -0.18935502792E+03  0.18935928680E+03  0.12700000000E+01 0. -1.
         25    2    1    2    0    0  0.19437151439E+02  0.32395944220E+02 -0.11539301385E+03  0.17426275648E+03  0.12499864237E+03 0.  0.
    9000005    1    3    3    0    0 -0.59307179088E+01 -0.45052633111E+02 -0.22608678385E+02  0.50764805756E+02  0.10000000000E+01 0.  0.
    9000005    1    3    3    0    0  0.25367869348E+02  0.77448577331E+02 -0.92784335469E+02  0.12349795073E+03  0.10000000000E+01 0.  0.
         -4    1    1    2    0  502 -0.19437151439E+02 -0.32395944220E+02 -0.36506948402E+02  0.52551595976E+02  0.12700000000E+01 0.  1.
<mgrwt>
<rscale>  1 0.13058316E+03</rscale>
<asrwt>0</asrwt>
<pdfrwt beam="1">  1       21 0.57623176E-02 0.13058316E+03</pdfrwt>
<pdfrwt beam="2">  1       -4 0.29133528E-01 0.13058316E+03</pdfrwt>
<totfact> 0.95031363E+04</totfact>
</mgrwt>
</event>
<event>
 6    3  0.3813045E-003  0.1332678E+03  0.7818608E-02  0.1222686E+00
         -4   -1    0    0    0  501 -0.00000000000E+00  0.00000000000E+00  0.11312509019E+04  0.11312516148E+04  0.12700000000E+01 0. -1.
         21   -1    0    0  501  502  0.00000000000E+00 -0.00000000000E+00 -0.75052119844E+01  0.75052119844E+01  0.00000000000E+00 0. -1.
         25    2    1    2    0    0  0.36245595949E+02  0.28689581549E+02  0.70676438109E+03  0.71921915250E+03  0.12499385440E+03 0.  0.
    9000005    1    3    3    0    0 -0.50798043298E+00  0.10673419236E+02 -0.52561613060E+00  0.10745054426E+02  0.10000000000E+01 0.  0.
    9000005    1    3    3    0    0  0.36753576382E+02  0.18016162313E+02  0.70728999722E+03  0.70847409808E+03  0.10000000000E+01 0.  0.
         -4    1    1    2    0  502 -0.36245595949E+02 -0.28689581549E+02  0.41698130884E+03  0.41953767428E+03  0.12700000000E+01 0.  1.
<mgrwt>
<rscale>  1 0.13326777E+03</rscale>
<asrwt>0</asrwt>
<pdfrwt beam="2">  1       21 0.11546489E-02 0.13326777E+03</pdfrwt>
<pdfrwt beam="1">  1       -4 0.17404678E+00 0.13326777E+03</pdfrwt>
<totfact> 0.25996937E+04</totfact>
</mgrwt>
</event>
<event>
 6    3  0.3813045E-003  0.1273238E+03  0.7818608E-02  0.1231482E+00
         -4   -1    0    0    0  501 -0.00000000000E+00  0.00000000000E+00  0.12429987866E+03  0.12430636643E+03  0.12700000000E+01 0. -1.
         21   -1    0    0  501  502  0.00000000000E+00 -0.00000000000E+00 -0.90081957347E+02  0.90081957347E+02  0.00000000000E+00 0.  1.
         25    2    1    2    0    0  0.52478354529E+01  0.23651903839E+02  0.88413394577E+02  0.15501059602E+03  0.12499761680E+03 0.  0.
    9000005    1    3    3    0    0  0.63764928886E+02  0.19271860535E+01  0.34540735217E+02  0.72551654642E+02  0.10000000000E+01 0.  0.
    9000005    1    3    3    0    0 -0.58517093433E+02  0.21724717785E+02  0.53872659360E+02  0.82458941378E+02  0.10000000000E+01 0.  0.
         -4    1    1    2    0  502 -0.52478354529E+01 -0.23651903839E+02 -0.54195473260E+02  0.59377727760E+02  0.12700000000E+01 0.  1.
<mgrwt>
<rscale>  1 0.12732383E+03</rscale>
<asrwt>0</asrwt>
<pdfrwt beam="2">  1       21 0.13858763E-01 0.12732383E+03</pdfrwt>
<pdfrwt beam="1">  1       -4 0.19124246E-01 0.12732383E+03</pdfrwt>
<totfact> 0.44562280E+04</totfact>
</mgrwt>
</event>
<event>
 6    3  0.3813045E-003  0.1296224E+03  0.7818608E-02  0.1228017E+00
         21   -1    0    0  501  502  0.00000000000E+00  0.00000000000E+00  0.41715677303E+02  0.41715677303E+02  0.00000000000E+00 0. -1.
         -4   -1    0    0    0  501 -0.00000000000E+00 -0.00000000000E+00 -0.21588239837E+03  0.21588613394E+03  0.12700000000E+01 0. -1.
         25    2    1    2    0    0 -0.29479304709E+02  0.17585598845E+02 -0.18095203770E+03  0.22258844073E+03  0.12499476511E+03 0.  0.
    9000005    1    3    3    0    0 -0.37481573801E+02  0.29390896469E+02 -0.19607348673E+03  0.20177835703E+03  0.10000000000E+01 0.  0.
    9000005    1    3    3    0    0  0.80022690916E+01 -0.11805297624E+02  0.15121449028E+02  0.20810083693E+02  0.10000000000E+01 0.  0.
         -4    1    1    2    0  502  0.29479304709E+02 -0.17585598845E+02  0.67853166308E+01  0.35013370512E+02  0.12700000000E+01 0.  1.
<mgrwt>
<rscale>  1 0.12962243E+03</rscale>
<asrwt>0</asrwt>
<pdfrwt beam="1">  1       21 0.64177966E-02 0.12962243E+03</pdfrwt>
<pdfrwt beam="2">  1       -4 0.33214451E-01 0.12962243E+03</pdfrwt>
<totfact> 0.61655397E+04</totfact>
</mgrwt>
</event>
<event>
 6    3  0.3813045E-003  0.1269926E+03  0.7818608E-02  0.1231988E+00
          4   -1    0    0  502    0 -0.00000000000E+00  0.00000000000E+00  0.38834109249E+03  0.38834316913E+03  0.12700000000E+01 0.  1.
         21   -1    0    0  501  502  0.00000000000E+00 -0.00000000000E+00 -0.29322813775E+02  0.29322813775E+02  0.00000000000E+00 0.  1.
         25    2    1    2    0    0 -0.13049786205E+02 -0.18298422546E+02  0.37102269410E+03  0.39215425861E+03  0.12498797470E+03 0.  0.
    9000005    1    3    3    0    0  0.38039783909E+02  0.25245294327E+02  0.24642577072E+03  0.25062124914E+03  0.10000000000E+01 0.  0.
    9000005    1    3    3    0    0 -0.51089570115E+02 -0.43543716873E+02  0.12459692338E+03  0.14153300947E+03  0.10000000000E+01 0.  0.
          4    1    1    2  501    0  0.13049786205E+02  0.18298422546E+02 -0.12004415393E+02  0.25511724297E+02  0.12700000000E+01 0. -1.
<mgrwt>
<rscale>  1 0.12699261E+03</rscale>
<asrwt>0</asrwt>
<pdfrwt beam="2">  1       21 0.45112024E-02 0.12699261E+03</pdfrwt>
<pdfrwt beam="1">  1        4 0.59747055E-01 0.12699261E+03</pdfrwt>
<totfact> 0.34426818E+04</totfact>
</mgrwt>
</event>
<event>
 6    3  0.3813045E-003  0.1266620E+03  0.7818608E-02  0.1232494E+00
         21   -1    0    0  501  502  0.00000000000E+00  0.00000000000E+00  0.12724273137E+03  0.12724273137E+03  0.00000000000E+00 0. -1.
         -4   -1    0    0    0  501 -0.00000000000E+00 -0.00000000000E+00 -0.16772111839E+03  0.16772592660E+03  0.12700000000E+01 0.  1.
         25    2    1    2    0    0  0.91494942849E+00 -0.20426799528E+02 -0.14264752502E+03  0.19076579366E+03  0.12500072146E+03 0.  0.
    9000005    1    3    3    0    0  0.61042160007E+02 -0.23060843366E+02 -0.87282673554E+02  0.10898262659E+03  0.10000000000E+01 0.  0.
    9000005    1    3    3    0    0 -0.60127210578E+02  0.26340438388E+01 -0.55364851462E+02  0.81783167072E+02  0.10000000000E+01 0.  0.
         -4    1    1    2    0  502 -0.91494942849E+00  0.20426799528E+02  0.10216913799E+03  0.10420286431E+03  0.12700000000E+01 0. -1.
<mgrwt>
<rscale>  1 0.12666204E+03</rscale>
<asrwt>0</asrwt>
<pdfrwt beam="1">  1       21 0.19575805E-01 0.12666204E+03</pdfrwt>
<pdfrwt beam="2">  1       -4 0.25804106E-01 0.12666204E+03</pdfrwt>
<totfact> 0.13794184E+04</totfact>
</mgrwt>
</event>
<event>
 6    3  0.3813045E-003  0.1295373E+03  0.7818608E-02  0.1228144E+00
         -4   -1    0    0    0  501 -0.00000000000E+00  0.00000000000E+00  0.22586049183E+02  0.22621726674E+02  0.12700000000E+01 0. -1.
         21   -1    0    0  501  502  0.00000000000E+00 -0.00000000000E+00 -0.29589754190E+03  0.29589754190E+03  0.00000000000E+00 0. -1.
         25    2    1    2    0    0 -0.30312927320E+02  0.15372172660E+02 -0.21434756379E+03  0.25044919388E+03  0.12499897342E+03 0.  0.
    9000005    1    3    3    0    0 -0.90325835478E+01  0.60102788258E+02 -0.49727319675E+02  0.78534954281E+02  0.10000000000E+01 0.  0.
    9000005    1    3    3    0    0 -0.21280343772E+02 -0.44730615598E+02 -0.16462024412E+03  0.17191423960E+03  0.10000000000E+01 0.  0.
         -4    1    1    2    0  502  0.30312927320E+02 -0.15372172660E+02 -0.58963928926E+02  0.68070074698E+02  0.12700000000E+01 0.  1.
<mgrwt>
<rscale>  1 0.12953733E+03</rscale>
<asrwt>0</asrwt>
<pdfrwt beam="2">  1       21 0.45522694E-01 0.12953733E+03</pdfrwt>
<pdfrwt beam="1">  1       -4 0.34777312E-02 0.12953733E+03</pdfrwt>
<totfact> 0.79836962E+04</totfact>
</mgrwt>
</event>
<event>
 6    3  0.3813045E-003  0.1304894E+03  0.7818608E-02  0.1226731E+00
         -4   -1    0    0    0  501 -0.00000000000E+00  0.00000000000E+00  0.38086200236E+02  0.38107368689E+02  0.12700000000E+01 0.  1.
         21   -1    0    0  501  502  0.00000000000E+00 -0.00000000000E+00 -0.67046128105E+03  0.67046128105E+03  0.00000000000E+00 0. -1.
         25    2    1    2    0    0 -0.77854772961E+01 -0.36631342619E+02 -0.76151852764E+02  0.15108469370E+03  0.12500004429E+03 0.  0.
    9000005    1    3    3    0    0  0.12662674455E+02 -0.68588722552E+02 -0.43755255618E+01  0.69892069719E+02  0.10000000000E+01 0.  0.
    9000005    1    3    3    0    0 -0.20448151751E+02  0.31957379934E+02 -0.71776327202E+02  0.81192623981E+02  0.10000000000E+01 0.  0.
         -4    1    1    2    0  502  0.77854772961E+01  0.36631342619E+02 -0.55622322805E+03  0.55748395603E+03  0.12700000000E+01 0. -1.
<mgrwt>
<rscale>  1 0.13048939E+03</rscale>
<asrwt>0</asrwt>
<pdfrwt beam="2">  1       21 0.10314788E+00 0.13048939E+03</pdfrwt>
<pdfrwt beam="1">  1       -4 0.58611370E-02 0.13048939E+03</pdfrwt>
<totfact> 0.58326939E+03</totfact>
</mgrwt>
</event>
<event>
 6    3  0.3813045E-003  0.1277515E+03  0.7818608E-02  0.1230831E+00
         21   -1    0    0  501  502  0.00000000000E+00  0.00000000000E+00  0.15997049635E+02  0.15997049635E+02  0.00000000000E+00 0. -1.
         -4   -1    0    0    0  501 -0.00000000000E+00 -0.00000000000E+00 -0.47031375871E+03  0.47031547342E+03  0.12700000000E+01 0.  1.
         25    2    1    2    0    0  0.23904988046E+02  0.11113994502E+02 -0.43562575255E+03  0.45397161887E+03  0.12500186050E+03 0.  0.
    9000005    1    3    3    0    0 -0.23533133142E+02 -0.34323531449E+02 -0.30425891232E+03  0.30709346931E+03  0.10000000000E+01 0.  0.
    9000005    1    3    3    0    0  0.47438121188E+02  0.45437525952E+02 -0.13136684024E+03  0.14687814957E+03  0.10000000000E+01 0.  0.
         -4    1    1    2    0  502 -0.23904988046E+02 -0.11113994502E+02 -0.18690956526E+02  0.32340904180E+02  0.12700000000E+01 0. -1.
<mgrwt>
<rscale>  1 0.12775146E+03</rscale>
<asrwt>0</asrwt>
<pdfrwt beam="1">  1       21 0.24610844E-02 0.12775146E+03</pdfrwt>
<pdfrwt beam="2">  1       -4 0.72359976E-01 0.12775146E+03</pdfrwt>
<totfact> 0.62160272E+04</totfact>
</mgrwt>
</event>
<event>
 6    3  0.3813045E-003  0.1338235E+03  0.7818608E-02  0.1221890E+00
         21   -1    0    0  501  502  0.00000000000E+00  0.00000000000E+00  0.69720782421E+02  0.69720782421E+02  0.00000000000E+00 0. -1.
         -4   -1    0    0    0  501 -0.00000000000E+00 -0.00000000000E+00 -0.13054048058E+03  0.13054665821E+03  0.12700000000E+01 0.  1.
         25    2    1    2    0    0  0.40222483195E+02 -0.25756494221E+02 -0.16035205506E+02  0.13478073335E+03  0.12500989208E+03 0.  0.
    9000005    1    3    3    0    0  0.64070636033E+02  0.30194521144E+02 -0.20626287480E+02  0.73778040391E+02  0.10000000000E+01 0.  0.
    9000005    1    3    3    0    0 -0.23848152837E+02 -0.55951015365E+02  0.45910819743E+01  0.61002692956E+02  0.10000000000E+01 0.  0.
         -4    1    1    2    0  502 -0.40222483195E+02  0.25756494221E+02 -0.44784492655E+02  0.65486707287E+02  0.12700000000E+01 0. -1.
<mgrwt>
<rscale>  1 0.13382346E+03</rscale>
<asrwt>0</asrwt>
<pdfrwt beam="1">  1       21 0.10726274E-01 0.13382346E+03</pdfrwt>
<pdfrwt beam="2">  1       -4 0.20084516E-01 0.13382346E+03</pdfrwt>
<totfact> 0.64714287E+04</totfact>
</mgrwt>
</event>
<event>
 6    3  0.3813045E-003  0.1360104E+03  0.7818608E-02  0.1218800E+00
         21   -1    0    0  501  502  0.00000000000E+00  0.00000000000E+00  0.27981466390E+02  0.27981466390E+02  0.00000000000E+00 0. -1.
          4   -1    0    0  502    0 -0.00000000000E+00 -0.00000000000E+00 -0.35808747018E+03  0.35808972227E+03  0.12700000000E+01 0.  1.
         25    2    1    2    0    0 -0.29852825650E+02 -0.44529058374E+02 -0.28579140156E+03  0.31650521200E+03  0.12499918310E+03 0.  0.
    9000005    1    3    3    0    0 -0.19380349189E+02 -0.38659081354E+02 -0.29695020995E+03  0.30008423766E+03  0.10000000000E+01 0.  0.
    9000005    1    3    3    0    0 -0.10472476461E+02 -0.58699770198E+01  0.11158808388E+02  0.16420974334E+02  0.10000000000E+01 0.  0.
          4    1    1    2  501    0  0.29852825650E+02  0.44529058374E+02 -0.44314602227E+02  0.69565976666E+02  0.12700000000E+01 0. -1.
<mgrwt>
<rscale>  1 0.13601038E+03</rscale>
<asrwt>0</asrwt>
<pdfrwt beam="1">  1       21 0.43048413E-02 0.13601038E+03</pdfrwt>
<pdfrwt beam="2">  1        4 0.55092766E-01 0.13601038E+03</pdfrwt>
<totfact> 0.44454811E+04</totfact>
</mgrwt>
</event>
<event>
 6    3  0.3813045E-003  0.1288372E+03  0.7818608E-02  0.1229191E+00
          4   -1    0    0  502    0 -0.00000000000E+00  0.00000000000E+00  0.25696748912E+03  0.25697062744E+03  0.12700000000E+01 0. -1.
         21   -1    0    0  501  502  0.00000000000E+00 -0.00000000000E+00 -0.25368816213E+02  0.25368816213E+02  0.00000000000E+00 0. -1.
         25    2    1    2    0    0  0.10149699560E+02  0.29583023187E+02  0.17065646692E+03  0.21382859025E+03  0.12498345749E+03 0.  0.
    9000005    1    3    3    0    0 -0.35872746075E+02  0.23263015386E+02  0.16072015311E+03  0.16631292617E+03  0.10000000000E+01 0.  0.
    9000005    1    3    3    0    0  0.46022445636E+02  0.63200078004E+01  0.99363138051E+01  0.47515664080E+02  0.10000000000E+01 0.  0.
          4    1    1    2  501    0 -0.10149699560E+02 -0.29583023187E+02  0.60942205993E+02  0.68510853398E+02  0.12700000000E+01 0.  1.
<mgrwt>
<rscale>  1 0.12883725E+03</rscale>
<asrwt>0</asrwt>
<pdfrwt beam="2">  1       21 0.39028950E-02 0.12883725E+03</pdfrwt>
<pdfrwt beam="1">  1        4 0.39536145E-01 0.12883725E+03</pdfrwt>
<totfact> 0.10135733E+05</totfact>
</mgrwt>
</event>
<event>
 6    3  0.3813045E-003  0.1268757E+03  0.7818608E-02  0.1232167E+00
          4   -1    0    0  502    0 -0.00000000000E+00  0.00000000000E+00  0.24576993923E+03  0.24577322053E+03  0.12700000000E+01 0.  1.
         21   -1    0    0  501  502  0.00000000000E+00 -0.00000000000E+00 -0.29380974794E+02  0.29380974794E+02  0.00000000000E+00 0. -1.
         25    2    1    2    0    0  0.16937176204E+01  0.21668710276E+02  0.21913025094E+03  0.25321042089E+03  0.12500019474E+03 0.  0.
    9000005    1    3    3    0    0  0.50063766224E+02  0.46331716838E+02  0.88496065532E+02  0.11173881281E+03  0.10000000000E+01 0.  0.
    9000005    1    3    3    0    0 -0.48370048604E+02 -0.24663006562E+02  0.13063418541E+03  0.14147160808E+03  0.10000000000E+01 0.  0.
          4    1    1    2  501    0 -0.16937176204E+01 -0.21668710276E+02 -0.27412865114E+01  0.21943774427E+02  0.12700000000E+01 0. -1.
<mgrwt>
<rscale>  1 0.12687573E+03</rscale>
<asrwt>0</asrwt>
<pdfrwt beam="2">  1       21 0.45201502E-02 0.12687573E+03</pdfrwt>
<pdfrwt beam="1">  1        4 0.37813122E-01 0.12687573E+03</pdfrwt>
<totfact> 0.86408853E+04</totfact>
</mgrwt>
</event>
<event>
 6    3  0.3813045E-003  0.1310352E+03  0.7818608E-02  0.1225928E+00
         21   -1    0    0  501  502  0.00000000000E+00  0.00000000000E+00  0.12879141120E+03  0.12879141120E+03  0.00000000000E+00 0.  1.
          4   -1    0    0  502    0 -0.00000000000E+00 -0.00000000000E+00 -0.68368684713E+02  0.68380479300E+02  0.12700000000E+01 0.  1.
         25    2    1    2    0    0 -0.19638984012E+02 -0.34055193992E+02  0.75217527689E+01  0.13125093896E+03  0.12499914513E+03 0.  0.
    9000005    1    3    3    0    0 -0.16154183916E+02 -0.64936214079E+02 -0.37364668553E+02  0.76647165721E+02  0.10000000000E+01 0.  0.
    9000005    1    3    3    0    0 -0.34848000964E+01  0.30881020087E+02  0.44886421322E+02  0.54603773244E+02  0.10000000000E+01 0.  0.
          4    1    1    2  501    0  0.19638984012E+02  0.34055193992E+02  0.52900973714E+02  0.65920951531E+02  0.12700000000E+01 0. -1.
<mgrwt>
<rscale>  1 0.13103523E+03</rscale>
<asrwt>0</asrwt>
<pdfrwt beam="1">  1       21 0.19814063E-01 0.13103523E+03</pdfrwt>
<pdfrwt beam="2">  1        4 0.10519648E-01 0.13103523E+03</pdfrwt>
<totfact> 0.65909957E+04</totfact>
</mgrwt>
</event>
<event>
 6    3  0.3813045E-003  0.1555347E+03  0.7818608E-02  0.1193832E+00
         21   -1    0    0  501  502  0.00000000000E+00  0.00000000000E+00  0.25485514996E+03  0.25485514996E+03  0.00000000000E+00 0. -1.
          4   -1    0    0  502    0 -0.00000000000E+00 -0.00000000000E+00 -0.84406195997E+02  0.84415749850E+02  0.12700000000E+01 0.  1.
         25    2    1    2    0    0  0.20760850082E+02 -0.90194555529E+02  0.12293002652E+02  0.15601973725E+03  0.12499987902E+03 0.  0.
    9000005    1    3    3    0    0  0.54316473618E+02 -0.58677685360E+02 -0.37394738196E+02  0.88276364392E+02  0.10000000000E+01 0.  0.
    9000005    1    3    3    0    0 -0.33555623536E+02 -0.31516870169E+02  0.49687740848E+02  0.67743372862E+02  0.10000000000E+01 0.  0.
          4    1    1    2  501    0 -0.20760850082E+02  0.90194555529E+02  0.15815595131E+03  0.18325116256E+03  0.12700000000E+01 0. -1.
<mgrwt>
<rscale>  1 0.15553469E+03</rscale>
<asrwt>0</asrwt>
<pdfrwt beam="1">  1       21 0.39208484E-01 0.15553469E+03</pdfrwt>
<pdfrwt beam="2">  1        4 0.12986547E-01 0.15553469E+03</pdfrwt>
<totfact> 0.12613327E+04</totfact>
</mgrwt>
</event>
<event>
 6    3  0.3813045E-003  0.1314136E+03  0.7818608E-02  0.1225373E+00
          4   -1    0    0  502    0 -0.00000000000E+00  0.00000000000E+00  0.11664625508E+03  0.11665316851E+03  0.12700000000E+01 0. -1.
         21   -1    0    0  501  502  0.00000000000E+00 -0.00000000000E+00 -0.13557134459E+03  0.13557134459E+03  0.00000000000E+00 0. -1.
         25    2    1    2    0    0 -0.11802610785E+02  0.38756253899E+02  0.74019633854E+02  0.15082587731E+03  0.12501276029E+03 0.  0.
    9000005    1    3    3    0    0  0.46248869230E+02 -0.18397778087E+02  0.31690208361E+02  0.59014451192E+02  0.10000000000E+01 0.  0.
    9000005    1    3    3    0    0 -0.58051480014E+02  0.57154031986E+02  0.42329425494E+02  0.91811426123E+02  0.10000000000E+01 0.  0.
          4    1    1    2  501    0  0.11802610785E+02 -0.38756253899E+02 -0.92944723367E+02  0.10139863579E+03  0.12700000000E+01 0.  1.
<mgrwt>
<rscale>  1 0.13141362E+03</rscale>
<asrwt>0</asrwt>
<pdfrwt beam="2">  1       21 0.20857130E-01 0.13141362E+03</pdfrwt>
<pdfrwt beam="1">  1        4 0.17946567E-01 0.13141362E+03</pdfrwt>
<totfact> 0.23778243E+04</totfact>
</mgrwt>
</event>
<event>
 6    3  0.3813045E-003  0.1266445E+03  0.7818608E-02  0.1232521E+00
          4   -1    0    0  502    0 -0.00000000000E+00  0.00000000000E+00  0.30719356448E+02  0.30745597418E+02  0.12700000000E+01 0.  1.
         21   -1    0    0  501  502  0.00000000000E+00 -0.00000000000E+00 -0.20512718794E+03  0.20512718794E+03  0.00000000000E+00 0.  1.
         25    2    1    2    0    0  0.63898614053E+01  0.19305297240E+02 -0.10810469809E+03  0.16650965950E+03  0.12500126450E+03 0.  0.
    9000005    1    3    3    0    0  0.24344429566E+02 -0.25382439718E+02  0.11944875796E+02  0.37156420101E+02  0.10000000000E+01 0.  0.
    9000005    1    3    3    0    0 -0.17954568160E+02  0.44687736958E+02 -0.12004957388E+03  0.12935323940E+03  0.10000000000E+01 0.  0.
          4    1    1    2  501    0 -0.63898614053E+01 -0.19305297240E+02 -0.66303133402E+02  0.69363125861E+02  0.12700000000E+01 0. -1.
<mgrwt>
<rscale>  1 0.12664455E+03</rscale>
<asrwt>0</asrwt>
<pdfrwt beam="2">  1       21 0.31558028E-01 0.12664455E+03</pdfrwt>
<pdfrwt beam="1">  1        4 0.47283759E-02 0.12664455E+03</pdfrwt>
<totfact> 0.10116355E+05</totfact>
</mgrwt>
</event>
<event>
 6    3  0.3813045E-003  0.1314370E+03  0.7818608E-02  0.1225339E+00
         21   -1    0    0  501  502  0.00000000000E+00  0.00000000000E+00  0.45801726999E+03  0.45801726999E+03  0.00000000000E+00 0. -1.
          4   -1    0    0  502    0 -0.00000000000E+00 -0.00000000000E+00 -0.16146291184E+02  0.16196160626E+02  0.12700000000E+01 0. -1.
         25    2    1    2    0    0 -0.72142444479E+01  0.39973458339E+02  0.33244736952E+03  0.35748699032E+03  0.12500308818E+03 0.  0.
    9000005    1    3    3    0    0 -0.95813295744E+01 -0.35162564860E+02  0.34475812097E+02  0.50177579293E+02  0.10000000000E+01 0.  0.
    9000005    1    3    3    0    0  0.23670851265E+01  0.75136023199E+02  0.29797155742E+03  0.30730941103E+03  0.10000000000E+01 0.  0.
          4    1    1    2  501    0  0.72142444479E+01 -0.39973458339E+02  0.10942360929E+03  0.11672644029E+03  0.12700000000E+01 0.  1.
<mgrwt>
<rscale>  1 0.13143704E+03</rscale>
<asrwt>0</asrwt>
<pdfrwt beam="1">  1       21 0.70464186E-01 0.13143704E+03</pdfrwt>
<pdfrwt beam="2">  1        4 0.24880167E-02 0.13143704E+03</pdfrwt>
<totfact> 0.53801011E+04</totfact>
</mgrwt>
</event>
<event>
 6    3  0.3813045E-003  0.1587012E+03  0.7818608E-02  0.1190171E+00
          4   -1    0    0  502    0 -0.00000000000E+00  0.00000000000E+00  0.17225203247E+03  0.17225671421E+03  0.12700000000E+01 0. -1.
         21   -1    0    0  501  502  0.00000000000E+00 -0.00000000000E+00 -0.95567490137E+02  0.95567490137E+02  0.00000000000E+00 0. -1.
         25    2    1    2    0    0 -0.78806453973E+02  0.57887318679E+02  0.43472927008E+02  0.16454776393E+03  0.12499868952E+03 0.  0.
    9000005    1    3    3    0    0 -0.60138339252E+02 -0.27269041286E+02 -0.22971430435E+01  0.66079477350E+02  0.10000000000E+01 0.  0.
    9000005    1    3    3    0    0 -0.18668114720E+02  0.85156359965E+02  0.45770070052E+02  0.98468286581E+02  0.10000000000E+01 0.  0.
          4    1    1    2  501    0  0.78806453973E+02 -0.57887318679E+02  0.33211615321E+02  0.10327644041E+03  0.12700000000E+01 0.  1.
<mgrwt>
<rscale>  1 0.15870120E+03</rscale>
<asrwt>0</asrwt>
<pdfrwt beam="2">  1       21 0.14702691E-01 0.15870120E+03</pdfrwt>
<pdfrwt beam="1">  1        4 0.26501322E-01 0.15870120E+03</pdfrwt>
<totfact> 0.22616515E+04</totfact>
</mgrwt>
</event>
<event>
 6    3  0.3813045E-003  0.1269287E+03  0.7818608E-02  0.1232086E+00
         21   -1    0    0  501  502  0.00000000000E+00  0.00000000000E+00  0.13515655595E+02  0.13515655595E+02  0.00000000000E+00 0. -1.
          4   -1    0    0  502    0 -0.00000000000E+00 -0.00000000000E+00 -0.44166030758E+03  0.44166213353E+03  0.12700000000E+01 0. -1.
         25    2    1    2    0    0  0.98362127773E+01  0.19579582865E+02 -0.39893786089E+03  0.41864341225E+03  0.12502311237E+03 0.  0.
    9000005    1    3    3    0    0 -0.10235385210E+02 -0.41396668826E+02 -0.59634550325E+02  0.73319348693E+02  0.10000000000E+01 0.  0.
    9000005    1    3    3    0    0  0.20071597987E+02  0.60976251692E+02 -0.33930331056E+03  0.34532406356E+03  0.10000000000E+01 0.  0.
          4    1    1    2  501    0 -0.98362127773E+01 -0.19579582865E+02 -0.29206791103E+02  0.36534376873E+02  0.12700000000E+01 0.  1.
<mgrwt>
<rscale>  1 0.12692868E+03</rscale>
<asrwt>0</asrwt>
<pdfrwt beam="1">  1       21 0.20793320E-02 0.12692868E+03</pdfrwt>
<pdfrwt beam="2">  1        4 0.67952458E-01 0.12692868E+03</pdfrwt>
<totfact> 0.93449747E+04</totfact>
</mgrwt>
</event>
<event>
 6    3  0.3813045E-003  0.1278675E+03  0.7818608E-02  0.1230655E+00
         -4   -1    0    0    0  501 -0.00000000000E+00  0.00000000000E+00  0.35732377170E+02  0.35754939215E+02  0.12700000000E+01 0. -1.
         21   -1    0    0  501  502  0.00000000000E+00 -0.00000000000E+00 -0.26564321222E+03  0.26564321222E+03  0.00000000000E+00 0. -1.
         25    2    1    2    0    0 -0.11586348844E+02  0.24312560015E+02 -0.83938821724E+02  0.15295696568E+03  0.12499905401E+03 0.  0.
    9000005    1    3    3    0    0 -0.19566162674E+02  0.66276214080E+02 -0.13267458578E+02  0.70373267166E+02  0.10000000000E+01 0.  0.
    9000005    1    3    3    0    0  0.79798138300E+01 -0.41963654065E+02 -0.70671363145E+02  0.82583698513E+02  0.10000000000E+01 0.  0.
         -4    1    1    2    0  502  0.11586348844E+02 -0.24312560015E+02 -0.14597201333E+03  0.14844118576E+03  0.12700000000E+01 0.  1.
<mgrwt>
<rscale>  1 0.12786754E+03</rscale>
<asrwt>0</asrwt>
<pdfrwt beam="2">  1       21 0.40868188E-01 0.12786754E+03</pdfrwt>
<pdfrwt beam="1">  1       -4 0.54992577E-02 0.12786754E+03</pdfrwt>
<totfact> 0.47738070E+04</totfact>
</mgrwt>
</event>
<event>
 6    3  0.3813045E-003  0.1312701E+03  0.7818608E-02  0.1225583E+00
         -4   -1    0    0    0  501 -0.00000000000E+00  0.00000000000E+00  0.10353822074E+03  0.10354600935E+03  0.12700000000E+01 0. -1.
         21   -1    0    0  501  502  0.00000000000E+00 -0.00000000000E+00 -0.23654541214E+03  0.23654541214E+03  0.00000000000E+00 0.  1.
         25    2    1    2    0    0  0.26545799725E+02 -0.30042562423E+02  0.59014317974E+02  0.14392539996E+03  0.12499838394E+03 0.  0.
    9000005    1    3    3    0    0  0.30432937136E+02 -0.59149242527E+02 -0.11519331656E+02  0.67516602077E+02  0.10000000000E+01 0.  0.
    9000005    1    3    3    0    0 -0.38871374111E+01  0.29106680104E+02  0.70533649630E+02  0.76408797884E+02  0.10000000000E+01 0.  0.
         -4    1    1    2    0  502 -0.26545799725E+02  0.30042562423E+02 -0.19202150938E+03  0.19616602154E+03  0.12700000000E+01 0.  1.
<mgrwt>
<rscale>  1 0.13127007E+03</rscale>
<asrwt>0</asrwt>
<pdfrwt beam="2">  1       21 0.36391601E-01 0.13127007E+03</pdfrwt>
<pdfrwt beam="1">  1       -4 0.15929819E-01 0.13127007E+03</pdfrwt>
<totfact> 0.10119507E+04</totfact>
</mgrwt>
</event>
<event>
 6    3  0.3813045E-003  0.1293486E+03  0.7818608E-02  0.1228426E+00
         21   -1    0    0  501  502  0.00000000000E+00  0.00000000000E+00  0.20586722068E+03  0.20586722068E+03  0.00000000000E+00 0. -1.
          4   -1    0    0  502    0 -0.00000000000E+00 -0.00000000000E+00 -0.33097059125E+02  0.33121416375E+02  0.12700000000E+01 0. -1.
         25    2    1    2    0    0  0.11390686546E+01  0.33260908451E+02  0.15263199318E+03  0.20006892182E+03  0.12499385036E+03 0.  0.
    9000005    1    3    3    0    0  0.28262760587E+02 -0.11247087338E+02  0.14405743387E+03  0.14723730799E+03  0.10000000000E+01 0.  0.
    9000005    1    3    3    0    0 -0.27123691932E+02  0.44507995789E+02  0.85745593112E+01  0.52831613837E+02  0.10000000000E+01 0.  0.
          4    1    1    2  501    0 -0.11390686546E+01 -0.33260908451E+02  0.20138168375E+02  0.38919715234E+02  0.12700000000E+01 0.  1.
<mgrwt>
<rscale>  1 0.12934855E+03</rscale>
<asrwt>0</asrwt>
<pdfrwt beam="1">  1       21 0.31671879E-01 0.12934855E+03</pdfrwt>
<pdfrwt beam="2">  1        4 0.50940303E-02 0.12934855E+03</pdfrwt>
<totfact> 0.89392399E+04</totfact>
</mgrwt>
</event>
<event>
 6    3  0.3813045E-003  0.1282009E+03  0.7818608E-02  0.1230150E+00
         21   -1    0    0  501  502  0.00000000000E+00  0.00000000000E+00  0.11732008441E+03  0.11732008441E+03  0.00000000000E+00 0. -1.
         -4   -1    0    0    0  501 -0.00000000000E+00 -0.00000000000E+00 -0.52579627678E+02  0.52594963131E+02  0.12700000000E+01 0. -1.
         25    2    1    2    0    0  0.27013867252E+02  0.90503475826E+01  0.48300524112E+02  0.13699784687E+03  0.12499524632E+03 0.  0.
    9000005    1    3    3    0    0 -0.49901859441E+02  0.11541576020E+02  0.18490157399E+02  0.54463652773E+02  0.10000000000E+01 0.  0.
    9000005    1    3    3    0    0  0.76915726693E+02 -0.24912284370E+01  0.29810366713E+02  0.82534194098E+02  0.10000000000E+01 0.  0.
         -4    1    1    2    0  502 -0.27013867252E+02 -0.90503475826E+01  0.16439932617E+02  0.32917200666E+02  0.12700000000E+01 0.  1.
<mgrwt>
<rscale>  1 0.12820089E+03</rscale>
<asrwt>0</asrwt>
<pdfrwt beam="1">  1       21 0.18049244E-01 0.12820089E+03</pdfrwt>
<pdfrwt beam="2">  1       -4 0.80908819E-02 0.12820089E+03</pdfrwt>
<totfact> 0.12103377E+05</totfact>
</mgrwt>
</event>
<event>
 6    3  0.3813045E-003  0.1370946E+03  0.7818608E-02  0.1217293E+00
          4   -1    0    0  502    0 -0.00000000000E+00  0.00000000000E+00  0.18452272384E+03  0.18452709425E+03  0.12700000000E+01 0.  1.
         21   -1    0    0  501  502  0.00000000000E+00 -0.00000000000E+00 -0.70035927969E+02  0.70035927969E+02  0.00000000000E+00 0. -1.
         25    2    1    2    0    0  0.56017164839E+02 -0.56056043016E+01  0.13709634926E+03  0.19388229744E+03  0.12500236287E+03 0.  0.
    9000005    1    3    3    0    0  0.88035311214E+02 -0.22292377658E+02  0.12744790561E+03  0.15649643691E+03  0.10000000000E+01 0.  0.
    9000005    1    3    3    0    0 -0.32018146375E+02  0.16686773356E+02  0.96484436478E+01  0.37385860524E+02  0.10000000000E+01 0.  0.
          4    1    1    2  501    0 -0.56017164839E+02  0.56056043016E+01 -0.22609553386E+02  0.60680724786E+02  0.12700000000E+01 0. -1.
<mgrwt>
<rscale>  1 0.13709463E+03</rscale>
<asrwt>0</asrwt>
<pdfrwt beam="2">  1       21 0.10774758E-01 0.13709463E+03</pdfrwt>
<pdfrwt beam="1">  1        4 0.28389333E-01 0.13709463E+03</pdfrwt>
<totfact> 0.34100230E+04</totfact>
</mgrwt>
</event>
<event>
 6    3  0.3813045E-003  0.1274570E+03  0.7818608E-02  0.1231279E+00
         -4   -1    0    0    0  501 -0.00000000000E+00  0.00000000000E+00  0.19338758216E+03  0.19339175224E+03  0.12700000000E+01 0.  1.
         21   -1    0    0  501  502  0.00000000000E+00 -0.00000000000E+00 -0.30024977366E+02  0.30024977366E+02  0.00000000000E+00 0.  1.
         25    2    1    2    0    0  0.23911460593E+02  0.70066348699E+01  0.13673445470E+03  0.18692670141E+03  0.12499771886E+03 0.  0.
    9000005    1    3    3    0    0  0.18983138342E+02  0.58205762385E+02  0.29450315530E+02  0.67945503170E+02  0.10000000000E+01 0.  0.
    9000005    1    3    3    0    0  0.49283222505E+01 -0.51199127515E+02  0.10728413917E+03  0.11898119824E+03  0.10000000000E+01 0.  0.
         -4    1    1    2    0  502 -0.23911460593E+02 -0.70066348699E+01  0.26628150099E+02  0.36490028194E+02  0.12700000000E+01 0. -1.
<mgrwt>
<rscale>  1 0.12745698E+03</rscale>
<asrwt>0</asrwt>
<pdfrwt beam="2">  1       21 0.46192274E-02 0.12745698E+03</pdfrwt>
<pdfrwt beam="1">  1       -4 0.29754322E-01 0.12745698E+03</pdfrwt>
<totfact> 0.13200445E+05</totfact>
</mgrwt>
</event>
<event>
 6    3  0.3813045E-003  0.1307157E+03  0.7818608E-02  0.1226398E+00
         21   -1    0    0  501  502  0.00000000000E+00  0.00000000000E+00  0.64532776366E+02  0.64532776366E+02  0.00000000000E+00 0. -1.
          4   -1    0    0  502    0 -0.00000000000E+00 -0.00000000000E+00 -0.14010831035E+03  0.14011406613E+03  0.12700000000E+01 0.  1.
         25    2    1    2    0    0  0.33926312157E+02 -0.17628408336E+02 -0.95146711741E+02  0.16167709342E+03  0.12499932138E+03 0.  0.
    9000005    1    3    3    0    0  0.40266242255E+02 -0.51453221569E+02 -0.54155013043E+01  0.65567765933E+02  0.10000000000E+01 0.  0.
    9000005    1    3    3    0    0 -0.63399300974E+01  0.33824813232E+02 -0.89731210436E+02  0.96109327488E+02  0.10000000000E+01 0.  0.
          4    1    1    2  501    0 -0.33926312157E+02  0.17628408336E+02  0.19571177758E+02  0.42969749079E+02  0.12700000000E+01 0. -1.
<mgrwt>
<rscale>  1 0.13071567E+03</rscale>
<asrwt>0</asrwt>
<pdfrwt beam="1">  1       21 0.99281196E-02 0.13071567E+03</pdfrwt>
<pdfrwt beam="2">  1        4 0.21556528E-01 0.13071567E+03</pdfrwt>
<totfact> 0.65029164E+04</totfact>
</mgrwt>
</event>
<event>
 6    3  0.3813045E-003  0.1281793E+03  0.7818608E-02  0.1230183E+00
         21   -1    0    0  501  502  0.00000000000E+00  0.00000000000E+00  0.43531927160E+03  0.43531927160E+03  0.00000000000E+00 0.  1.
          4   -1    0    0  502    0 -0.00000000000E+00 -0.00000000000E+00 -0.55216343247E+02  0.55230946593E+02  0.12700000000E+01 0. -1.
         25    2    1    2    0    0 -0.23974755289E+02  0.15150224355E+02  0.20475911139E+02  0.12980443152E+03  0.12500243725E+03 0.  0.
    9000005    1    3    3    0    0 -0.59983823678E+01 -0.28434360327E+02 -0.42275019164E+02  0.51309557429E+02  0.10000000000E+01 0.  0.
    9000005    1    3    3    0    0 -0.17976372921E+02  0.43584584682E+02  0.62750930304E+02  0.78494874096E+02  0.10000000000E+01 0.  0.
          4    1    1    2  501    0  0.23974755289E+02 -0.15150224355E+02  0.35962701721E+03  0.36074578667E+03  0.12700000000E+01 0.  1.
<mgrwt>
<rscale>  1 0.12817928E+03</rscale>
<asrwt>0</asrwt>
<pdfrwt beam="1">  1       21 0.66972193E-01 0.12817928E+03</pdfrwt>
<pdfrwt beam="2">  1        4 0.84960882E-02 0.12817928E+03</pdfrwt>
<totfact> 0.83872151E+03</totfact>
</mgrwt>
</event>
<event>
 6    3  0.3813045E-003  0.1301456E+03  0.7818608E-02  0.1227240E+00
         21   -1    0    0  501  502  0.00000000000E+00  0.00000000000E+00  0.12756444138E+02  0.12756444138E+02  0.00000000000E+00 0. -1.
         -4   -1    0    0    0  501 -0.00000000000E+00 -0.00000000000E+00 -0.85595126297E+03  0.85595220514E+03  0.12700000000E+01 0.  1.
         25    2    1    2    0    0 -0.35452197749E+02 -0.74959976252E+01 -0.80717603580E+03  0.81760078357E+03  0.12499936088E+03 0.  0.
    9000005    1    3    3    0    0 -0.46574036627E+02 -0.91343288696E+01 -0.10386783759E+03  0.11420203386E+03  0.10000000000E+01 0.  0.
    9000005    1    3    3    0    0  0.11121838878E+02  0.16383312445E+01 -0.70330819821E+03  0.70339874971E+03  0.10000000000E+01 0.  0.
         -4    1    1    2    0  502  0.35452197749E+02  0.74959976252E+01 -0.36018783031E+02  0.51107865702E+02  0.12700000000E+01 0. -1.
<mgrwt>
<rscale>  1 0.13014564E+03</rscale>
<asrwt>0</asrwt>
<pdfrwt beam="1">  1       21 0.19625296E-02 0.13014564E+03</pdfrwt>
<pdfrwt beam="2">  1       -4 0.13168976E+00 0.13014564E+03</pdfrwt>
<totfact> 0.22671324E+04</totfact>
</mgrwt>
</event>
<event>
 6    3  0.3813045E-003  0.1274566E+03  0.7818608E-02  0.1231279E+00
         21   -1    0    0  501  502  0.00000000000E+00  0.00000000000E+00  0.18716856641E+04  0.18716856641E+04  0.00000000000E+00 0.  1.
         -4   -1    0    0    0  501 -0.00000000000E+00 -0.00000000000E+00 -0.59721457113E+01  0.61056878725E+01  0.12700000000E+01 0. -1.
         25    2    1    2    0    0  0.11822646005E+02  0.21933902832E+02  0.68157273901E+03  0.69338775972E+03  0.12499726284E+03 0.  0.
    9000005    1    3    3    0    0 -0.40812295114E+02 -0.94955010690E+01  0.49977085177E+03  0.50152538546E+03  0.10000000000E+01 0.  0.
    9000005    1    3    3    0    0  0.52634941119E+02  0.31429403901E+02  0.18180188724E+03  0.19186237427E+03  0.10000000000E+01 0.  0.
         -4    1    1    2    0  502 -0.11822646005E+02 -0.21933902832E+02  0.11841407794E+04  0.11844035922E+04  0.12700000000E+01 0.  1.
<mgrwt>
<rscale>  1 0.12745661E+03</rscale>
<asrwt>0</asrwt>
<pdfrwt beam="1">  1       21 0.28795118E+00 0.12745661E+03</pdfrwt>
<pdfrwt beam="2">  1       -4 0.92909875E-03 0.12745661E+03</pdfrwt>
<totfact> 0.56539563E+03</totfact>
</mgrwt>
</event>
<event>
 6    3  0.3813045E-003  0.1409082E+03  0.7818608E-02  0.1212112E+00
         21   -1    0    0  501  502  0.00000000000E+00  0.00000000000E+00  0.49908883714E+02  0.49908883714E+02  0.00000000000E+00 0. -1.
          4   -1    0    0  502    0 -0.00000000000E+00 -0.00000000000E+00 -0.89411830556E+03  0.89411920751E+03  0.12700000000E+01 0.  1.
         25    2    1    2    0    0 -0.64913006370E+02  0.40329929976E+01 -0.86448298147E+03  0.87589151112E+03  0.12500060227E+03 0.  0.
    9000005    1    3    3    0    0  0.24696923709E+02  0.37604056298E+02 -0.25460888044E+03  0.25855499433E+03  0.10000000000E+01 0.  0.
    9000005    1    3    3    0    0 -0.89609930079E+02 -0.33571063301E+02 -0.60987410103E+03  0.61733651679E+03  0.10000000000E+01 0.  0.
          4    1    1    2  501    0  0.64913006370E+02 -0.40329929976E+01  0.20273559626E+02  0.68136580105E+02  0.12700000000E+01 0. -1.
<mgrwt>
<rscale>  1 0.14090818E+03</rscale>
<asrwt>0</asrwt>
<pdfrwt beam="1">  1       21 0.76782905E-02 0.14090818E+03</pdfrwt>
<pdfrwt beam="2">  1        4 0.13755796E+00 0.14090818E+03</pdfrwt>
<totfact> 0.21188707E+03</totfact>
</mgrwt>
</event>
<event>
 6    3  0.3813045E-003  0.1406976E+03  0.7818608E-02  0.1212393E+00
          4   -1    0    0  502    0 -0.00000000000E+00  0.00000000000E+00  0.24398733506E+03  0.24399064033E+03  0.12700000000E+01 0. -1.
         21   -1    0    0  501  502  0.00000000000E+00 -0.00000000000E+00 -0.71050269225E+02  0.71050269225E+02  0.00000000000E+00 0.  1.
         25    2    1    2    0    0  0.12671019127E+02 -0.63329728964E+02  0.20039090266E+03  0.24485162724E+03  0.12499838478E+03 0.  0.
    9000005    1    3    3    0    0 -0.25631629553E+02 -0.90267996670E+02  0.13551518159E+03  0.16483523925E+03  0.10000000000E+01 0.  0.
    9000005    1    3    3    0    0  0.38302648680E+02  0.26938267706E+02  0.64875721065E+02  0.80016387988E+02  0.10000000000E+01 0.  0.
          4    1    1    2  501    0 -0.12671019127E+02  0.63329728964E+02 -0.27453836823E+02  0.70189282320E+02  0.12700000000E+01 0.  1.
<mgrwt>
<rscale>  1 0.14069757E+03</rscale>
<asrwt>0</asrwt>
<pdfrwt beam="2">  1       21 0.10930811E-01 0.14069757E+03</pdfrwt>
<pdfrwt beam="1">  1        4 0.37537640E-01 0.14069757E+03</pdfrwt>
<totfact> 0.19537811E+04</totfact>
</mgrwt>
</event>
<event>
 6    3  0.3813045E-003  0.1313302E+03  0.7818608E-02  0.1225495E+00
          4   -1    0    0  502    0 -0.00000000000E+00  0.00000000000E+00  0.86774967163E+02  0.86784260244E+02  0.12700000000E+01 0.  1.
         21   -1    0    0  501  502  0.00000000000E+00 -0.00000000000E+00 -0.12789989102E+03  0.12789989102E+03  0.00000000000E+00 0. -1.
         25    2    1    2    0    0  0.22138178955E+02 -0.33649398889E+02  0.28361380372E+02  0.13435768994E+03  0.12500095974E+03 0.  0.
    9000005    1    3    3    0    0 -0.23366128577E+02 -0.23286348775E+02  0.66394676185E+02  0.74145013519E+02  0.10000000000E+01 0.  0.
    9000005    1    3    3    0    0  0.45504307533E+02 -0.10363050114E+02 -0.38033295813E+02  0.60212676424E+02  0.10000000000E+01 0.  0.
          4    1    1    2  501    0 -0.22138178955E+02  0.33649398889E+02 -0.69486304230E+02  0.80326461323E+02  0.12700000000E+01 0. -1.
<mgrwt>
<rscale>  1 0.13133020E+03</rscale>
<asrwt>0</asrwt>
<pdfrwt beam="2">  1       21 0.19676906E-01 0.13133020E+03</pdfrwt>
<pdfrwt beam="1">  1        4 0.13351195E-01 0.13133020E+03</pdfrwt>
<totfact> 0.44450238E+04</totfact>
</mgrwt>
</event>
<event>
 6    3  0.3813045E-003  0.1279176E+03  0.7818608E-02  0.1230579E+00
          4   -1    0    0  502    0 -0.00000000000E+00  0.00000000000E+00  0.42368096151E+03  0.42368286494E+03  0.12700000000E+01 0.  1.
         21   -1    0    0  501  502  0.00000000000E+00 -0.00000000000E+00 -0.63064194111E+02  0.63064194111E+02  0.00000000000E+00 0. -1.
         25    2    1    2    0    0  0.16454887619E+02 -0.21550960365E+02  0.41049334970E+03  0.42996243454E+03  0.12501079053E+03 0.  0.
    9000005    1    3    3    0    0  0.42733234819E+02 -0.17681690622E+01  0.41829460117E+02  0.59832762878E+02  0.10000000000E+01 0.  0.
    9000005    1    3    3    0    0 -0.26278347200E+02 -0.19782791303E+02  0.36866388958E+03  0.37012967166E+03  0.10000000000E+01 0.  0.
          4    1    1    2  501    0 -0.16454887619E+02  0.21550960365E+02 -0.49876582300E+02  0.56784624513E+02  0.12700000000E+01 0. -1.
<mgrwt>
<rscale>  1 0.12791757E+03</rscale>
<asrwt>0</asrwt>
<pdfrwt beam="2">  1       21 0.97021840E-02 0.12791757E+03</pdfrwt>
<pdfrwt beam="1">  1        4 0.65182814E-01 0.12791757E+03</pdfrwt>
<totfact> 0.77652353E+03</totfact>
</mgrwt>
</event>
<event>
 6    3  0.3813045E-003  0.1285845E+03  0.7818608E-02  0.1229571E+00
         21   -1    0    0  501  502  0.00000000000E+00  0.00000000000E+00  0.15474992449E+03  0.15474992449E+03  0.00000000000E+00 0.  1.
         -4   -1    0    0    0  501 -0.00000000000E+00 -0.00000000000E+00 -0.46450662953E+02  0.46468021141E+02  0.12700000000E+01 0.  1.
         25    2    1    2    0    0 -0.28064731288E+02 -0.11040820451E+02  0.54767113851E+02  0.13976200536E+03  0.12499781008E+03 0.  0.
    9000005    1    3    3    0    0  0.19464358706E+02 -0.55917329548E+02  0.43371811040E+02  0.73401110322E+02  0.10000000000E+01 0.  0.
    9000005    1    3    3    0    0 -0.47529089994E+02  0.44876509097E+02  0.11395302811E+02  0.66360895040E+02  0.10000000000E+01 0.  0.
         -4    1    1    2    0  502  0.28064731288E+02  0.11040820451E+02  0.53532147686E+02  0.61455940270E+02  0.12700000000E+01 0. -1.
<mgrwt>
<rscale>  1 0.12858453E+03</rscale>
<asrwt>0</asrwt>
<pdfrwt beam="1">  1       21 0.23807680E-01 0.12858453E+03</pdfrwt>
<pdfrwt beam="2">  1       -4 0.71479920E-02 0.12858453E+03</pdfrwt>
<totfact> 0.88862897E+04</totfact>
</mgrwt>
</event>
<event>
 6    3  0.3813045E-003  0.1270790E+03  0.7818608E-02  0.1231856E+00
          4   -1    0    0  502    0 -0.00000000000E+00  0.00000000000E+00  0.49401168366E+03  0.49401331610E+03  0.12700000000E+01 0.  1.
         21   -1    0    0  501  502  0.00000000000E+00 -0.00000000000E+00 -0.21960131209E+02  0.21960131209E+02  0.00000000000E+00 0. -1.
         25    2    1    2    0    0  0.22898391237E+02  0.91895268236E+00  0.47601140396E+03  0.49268237350E+03  0.12499553458E+03 0.  0.
    9000005    1    3    3    0    0  0.26128798647E+02  0.10757288733E+02  0.48051498768E+03  0.48134611951E+03  0.10000000000E+01 0.  0.
    9000005    1    3    3    0    0 -0.32304074102E+01 -0.98383360509E+01 -0.45035837213E+01  0.11336253994E+02  0.10000000000E+01 0.  0.
          4    1    1    2  501    0 -0.22898391237E+02 -0.91895268236E+00 -0.39598515122E+01  0.23291073811E+02  0.12700000000E+01 0. -1.
<mgrwt>
<rscale>  1 0.12707897E+03</rscale>
<asrwt>0</asrwt>
<pdfrwt beam="2">  1       21 0.33784821E-02 0.12707897E+03</pdfrwt>
<pdfrwt beam="1">  1        4 0.76004740E-01 0.12707897E+03</pdfrwt>
<totfact> 0.33229199E+04</totfact>
</mgrwt>
</event>
<event>
 6    3  0.3813045E-003  0.1266880E+03  0.7818608E-02  0.1232455E+00
          4   -1    0    0  502    0 -0.00000000000E+00  0.00000000000E+00  0.77126258330E+02  0.77136713852E+02  0.12700000000E+01 0. -1.
         21   -1    0    0  501  502  0.00000000000E+00 -0.00000000000E+00 -0.70721009806E+02  0.70721009806E+02  0.00000000000E+00 0. -1.
         25    2    1    2    0    0  0.19920291322E+02 -0.52879997865E+01  0.91930816341E+01  0.12702107658E+03  0.12500024079E+03 0.  0.
    9000005    1    3    3    0    0  0.53012524499E+02  0.26586890280E+02  0.40135758382E+02  0.71617522922E+02  0.10000000000E+01 0.  0.
    9000005    1    3    3    0    0 -0.33092233177E+02 -0.31874890066E+02 -0.30942676748E+02  0.55403553656E+02  0.10000000000E+01 0.  0.
          4    1    1    2  501    0 -0.19920291322E+02  0.52879997865E+01 -0.27878331102E+01  0.20836647080E+02  0.12700000000E+01 0.  1.
<mgrwt>
<rscale>  1 0.12668797E+03</rscale>
<asrwt>0</asrwt>
<pdfrwt beam="2">  1       21 0.10880155E-01 0.12668797E+03</pdfrwt>
<pdfrwt beam="1">  1        4 0.11867260E-01 0.12668797E+03</pdfrwt>
<totfact> 0.15731257E+05</totfact>
</mgrwt>
</event>
<event>
 6    3  0.3813045E-003  0.1286129E+03  0.7818608E-02  0.1229529E+00
         21   -1    0    0  501  502  0.00000000000E+00  0.00000000000E+00  0.17252764878E+03  0.17252764878E+03  0.00000000000E+00 0.  1.
         -4   -1    0    0    0  501 -0.00000000000E+00 -0.00000000000E+00 -0.62776272179E+02  0.62789117279E+02  0.12700000000E+01 0. -1.
         25    2    1    2    0    0 -0.27077390257E+02 -0.13565452490E+02  0.76826109706E+01  0.12884211001E+03  0.12499624088E+03 0.  0.
    9000005    1    3    3    0    0 -0.30338319506E+02  0.53420274348E+02  0.11589170624E+01  0.61453091303E+02  0.10000000000E+01 0.  0.
    9000005    1    3    3    0    0  0.32609292490E+01 -0.66985726838E+02  0.65236939082E+01  0.67389018703E+02  0.10000000000E+01 0.  0.
         -4    1    1    2    0  502  0.27077390257E+02  0.13565452490E+02  0.10206876563E+03  0.10647465606E+03  0.12700000000E+01 0.  1.
<mgrwt>
<rscale>  1 0.12861286E+03</rscale>
<asrwt>0</asrwt>
<pdfrwt beam="1">  1       21 0.26542715E-01 0.12861286E+03</pdfrwt>
<pdfrwt beam="2">  1       -4 0.96592357E-02 0.12861286E+03</pdfrwt>
<totfact> 0.43896720E+04</totfact>
</mgrwt>
</event>
<event>
 6    3  0.3813045E-003  0.1271373E+03  0.7818608E-02  0.1231766E+00
         21   -1    0    0  501  502  0.00000000000E+00  0.00000000000E+00  0.85854330251E+02  0.85854330251E+02  0.00000000000E+00 0. -1.
          4   -1    0    0  502    0 -0.00000000000E+00 -0.00000000000E+00 -0.73542774824E+02  0.73553739734E+02  0.12700000000E+01 0. -1.
         25    2    1    2    0    0  0.13019629004E+02 -0.19196522476E+02 -0.95676994214E+01  0.12749675683E+03  0.12500345961E+03 0.  0.
    9000005    1    3    3    0    0  0.55475720007E+02 -0.49543295242E+02  0.25026500522E+00  0.74385188353E+02  0.10000000000E+01 0.  0.
    9000005    1    3    3    0    0 -0.42456091003E+02  0.30346772766E+02 -0.98179644266E+01  0.53111568477E+02  0.10000000000E+01 0.  0.
          4    1    1    2  501    0 -0.13019629004E+02  0.19196522476E+02  0.21879254849E+02  0.31911313155E+02  0.12700000000E+01 0.  1.
<mgrwt>
<rscale>  1 0.12713726E+03</rscale>
<asrwt>0</asrwt>
<pdfrwt beam="1">  1       21 0.13208358E-01 0.12713726E+03</pdfrwt>
<pdfrwt beam="2">  1        4 0.11315839E-01 0.12713726E+03</pdfrwt>
<totfact> 0.12107454E+05</totfact>
</mgrwt>
</event>
<event>
 6    3  0.3813045E-003  0.1602255E+03  0.7818608E-02  0.1188442E+00
         -4   -1    0    0    0  501 -0.00000000000E+00  0.00000000000E+00  0.87536292598E+02  0.87545504864E+02  0.12700000000E+01 0. -1.
         21   -1    0    0  501  502  0.00000000000E+00 -0.00000000000E+00 -0.39950267453E+03  0.39950267453E+03  0.00000000000E+00 0.  1.
         25    2    1    2    0    0 -0.99607406494E+02 -0.11205608244E+02 -0.89947814874E+00  0.16022799548E+03  0.12500000156E+03 0.  0.
    9000005    1    3    3    0    0 -0.36846844888E+02 -0.42047271759E+02 -0.49810778132E+02  0.74885089696E+02  0.10000000000E+01 0.  0.
    9000005    1    3    3    0    0 -0.62760561606E+02  0.30841663515E+02  0.48911299984E+02  0.85342905783E+02  0.10000000000E+01 0.  0.
         -4    1    1    2    0  502  0.99607406494E+02  0.11205608244E+02 -0.31106690379E+03  0.32682018392E+03  0.12700000000E+01 0.  1.
<mgrwt>
<rscale>  1 0.16022547E+03</rscale>
<asrwt>0</asrwt>
<pdfrwt beam="2">  1       21 0.61461950E-01 0.16022547E+03</pdfrwt>
<pdfrwt beam="1">  1       -4 0.13467986E-01 0.16022547E+03</pdfrwt>
<totfact> 0.46774663E+03</totfact>
</mgrwt>
</event>
<event>
 6    3  0.3813045E-003  0.1873759E+03  0.7818608E-02  0.1160850E+00
         21   -1    0    0  501  502  0.00000000000E+00  0.00000000000E+00  0.81282794342E+02  0.81282794342E+02  0.00000000000E+00 0.  1.
         -4   -1    0    0    0  501 -0.00000000000E+00 -0.00000000000E+00 -0.33192728499E+03  0.33192971458E+03  0.12700000000E+01 0. -1.
         25    2    1    2    0    0 -0.39467857645E+02  0.13389616315E+03 -0.16323991190E+03  0.24850954120E+03  0.12499531565E+03 0.  0.
    9000005    1    3    3    0    0 -0.63937213691E+02  0.14637699884E+03 -0.14275166023E+03  0.21422705147E+03  0.10000000000E+01 0.  0.
    9000005    1    3    3    0    0  0.24469356045E+02 -0.12480835695E+02 -0.20488251674E+02  0.34282489722E+02  0.10000000000E+01 0.  0.
         -4    1    1    2    0  502  0.39467857645E+02 -0.13389616315E+03 -0.87404578743E+02  0.16470296773E+03  0.12700000000E+01 0.  1.
<mgrwt>
<rscale>  1 0.18737589E+03</rscale>
<asrwt>0</asrwt>
<pdfrwt beam="1">  1       21 0.12505045E-01 0.18737589E+03</pdfrwt>
<pdfrwt beam="2">  1       -4 0.51066686E-01 0.18737589E+03</pdfrwt>
<totfact> 0.84966969E+03</totfact>
</mgrwt>
</event>
<event>
 6    3  0.3813045E-003  0.1294188E+03  0.7818608E-02  0.1228321E+00
         21   -1    0    0  501  502  0.00000000000E+00  0.00000000000E+00  0.54446755957E+02  0.54446755957E+02  0.00000000000E+00 0. -1.
         -4   -1    0    0    0  501 -0.00000000000E+00 -0.00000000000E+00 -0.12212892604E+03  0.12213552913E+03  0.12700000000E+01 0. -1.
         25    2    1    2    0    0  0.28965000022E+02 -0.16902449665E+02 -0.56427619782E+02  0.14118536667E+03  0.12499826981E+03 0.  0.
    9000005    1    3    3    0    0 -0.55650303400E+01 -0.26661726098E+02 -0.88774907004E+02  0.92864424377E+02  0.10000000000E+01 0.  0.
    9000005    1    3    3    0    0  0.34530030362E+02  0.97592764338E+01  0.32347287223E+02  0.48320942292E+02  0.10000000000E+01 0.  0.
         -4    1    1    2    0  502 -0.28965000022E+02  0.16902449665E+02 -0.11254550302E+02  0.35396918417E+02  0.12700000000E+01 0.  1.
<mgrwt>
<rscale>  1 0.12941882E+03</rscale>
<asrwt>0</asrwt>
<pdfrwt beam="1">  1       21 0.83764241E-02 0.12941882E+03</pdfrwt>
<pdfrwt beam="2">  1       -4 0.18790712E-01 0.12941882E+03</pdfrwt>
<totfact> 0.11171887E+05</totfact>
</mgrwt>
</event>
<event>
 6    3  0.3813045E-003  0.1344282E+03  0.7818608E-02  0.1221029E+00
         21   -1    0    0  501  502  0.00000000000E+00  0.00000000000E+00  0.13508471731E+03  0.13508471731E+03  0.00000000000E+00 0.  1.
          4   -1    0    0  502    0 -0.00000000000E+00 -0.00000000000E+00 -0.85526339386E+02  0.85535768125E+02  0.12700000000E+01 0.  1.
         25    2    1    2    0    0 -0.47607323084E+02 -0.13340849148E+02 -0.19336285993E+02  0.13581174129E+03  0.12500600645E+03 0.  0.
    9000005    1    3    3    0    0  0.39391099274E+02 -0.19287677238E+02 -0.20889863016E+02  0.48590735455E+02  0.10000000000E+01 0.  0.
    9000005    1    3    3    0    0 -0.86998422358E+02  0.59468280901E+01  0.15535770228E+01  0.87221005834E+02  0.10000000000E+01 0.  0.
          4    1    1    2  501    0  0.47607323084E+02  0.13340849148E+02  0.68894663913E+02  0.84808744142E+02  0.12700000000E+01 0. -1.
<mgrwt>
<rscale>  1 0.13442819E+03</rscale>
<asrwt>0</asrwt>
<pdfrwt beam="1">  1       21 0.20782264E-01 0.13442819E+03</pdfrwt>
<pdfrwt beam="2">  1        4 0.13159083E-01 0.13442819E+03</pdfrwt>
<totfact> 0.41296921E+04</totfact>
</mgrwt>
</event>
<event>
 6    3  0.3813045E-003  0.1398039E+03  0.7818608E-02  0.1213593E+00
         21   -1    0    0  501  502  0.00000000000E+00  0.00000000000E+00  0.22194650590E+03  0.22194650590E+03  0.00000000000E+00 0. -1.
          4   -1    0    0  502    0 -0.00000000000E+00 -0.00000000000E+00 -0.80523493457E+02  0.80533507924E+02  0.12700000000E+01 0.  1.
         25    2    1    2    0    0  0.21102738474E+02  0.58946012866E+02 -0.84408237152E+01  0.14005852420E+03  0.12500073877E+03 0.  0.
    9000005    1    3    3    0    0  0.39149866800E+02  0.39561246347E+02 -0.60147707682E+02  0.81954566818E+02  0.10000000000E+01 0.  0.
    9000005    1    3    3    0    0 -0.18047128326E+02  0.19384766518E+02  0.51706883967E+02  0.58103957381E+02  0.10000000000E+01 0.  0.
          4    1    1    2  501    0 -0.21102738474E+02 -0.58946012866E+02  0.14986383616E+03  0.16242148962E+03  0.12700000000E+01 0. -1.
<mgrwt>
<rscale>  1 0.13980394E+03</rscale>
<asrwt>0</asrwt>
<pdfrwt beam="1">  1       21 0.34145616E-01 0.13980394E+03</pdfrwt>
<pdfrwt beam="2">  1        4 0.12389280E-01 0.13980394E+03</pdfrwt>
<totfact> 0.17836134E+04</totfact>
</mgrwt>
</event>
<event>
 6    3  0.3813045E-003  0.1363529E+03  0.7818608E-02  0.1218322E+00
         21   -1    0    0  501  502  0.00000000000E+00  0.00000000000E+00  0.87870509718E+02  0.87870509718E+02  0.00000000000E+00 0.  1.
          4   -1    0    0  502    0 -0.00000000000E+00 -0.00000000000E+00 -0.18280529688E+03  0.18280970835E+03  0.12700000000E+01 0. -1.
         25    2    1    2    0    0  0.35134887968E+02 -0.41638201933E+02 -0.14330853317E+03  0.19781162116E+03  0.12499560621E+03 0.  0.
    9000005    1    3    3    0    0  0.30762265379E+02 -0.41725271151E+02  0.25237448276E+01  0.51910350719E+02  0.10000000000E+01 0.  0.
    9000005    1    3    3    0    0  0.43726225897E+01  0.87069217238E-01 -0.14583227800E+03  0.14590127044E+03  0.10000000000E+01 0.  0.
          4    1    1    2  501    0 -0.35134887968E+02  0.41638201933E+02  0.48373746009E+02  0.72868596911E+02  0.12700000000E+01 0.  1.
<mgrwt>
<rscale>  1 0.13635286E+03</rscale>
<asrwt>0</asrwt>
<pdfrwt beam="1">  1       21 0.13518540E-01 0.13635286E+03</pdfrwt>
<pdfrwt beam="2">  1        4 0.28124937E-01 0.13635286E+03</pdfrwt>
<totfact> 0.23186426E+04</totfact>
</mgrwt>
</event>
<event>
 6    3  0.3813045E-003  0.1279697E+03  0.7818608E-02  0.1230500E+00
          4   -1    0    0  502    0 -0.00000000000E+00  0.00000000000E+00  0.38277911060E+03  0.38278121743E+03  0.12700000000E+01 0.  1.
         21   -1    0    0  501  502  0.00000000000E+00 -0.00000000000E+00 -0.37057696425E+02  0.37057696425E+02  0.00000000000E+00 0. -1.
         25    2    1    2    0    0  0.33280223591E+01 -0.27224179052E+02  0.36467466198E+03  0.38647620773E+03  0.12499607351E+03 0.  0.
    9000005    1    3    3    0    0 -0.41906347151E+02  0.14422222046E+02  0.54441177982E+02  0.70206725321E+02  0.10000000000E+01 0.  0.
    9000005    1    3    3    0    0  0.45234369510E+02 -0.41646401098E+02  0.31023348400E+03  0.31626948241E+03  0.10000000000E+01 0.  0.
          4    1    1    2  501    0 -0.33280223591E+01  0.27224179052E+02 -0.18953247798E+02  0.33362706125E+02  0.12700000000E+01 0. -1.
<mgrwt>
<rscale>  1 0.12796972E+03</rscale>
<asrwt>0</asrwt>
<pdfrwt beam="2">  1       21 0.57011843E-02 0.12796972E+03</pdfrwt>
<pdfrwt beam="1">  1        4 0.58890927E-01 0.12796972E+03</pdfrwt>
<totfact> 0.23964864E+04</totfact>
</mgrwt>
</event>
<event>
 6    3  0.3813045E-003  0.1455290E+03  0.7818608E-02  0.1206077E+00
         -4   -1    0    0    0  501 -0.00000000000E+00  0.00000000000E+00  0.35684097402E+02  0.35706689952E+02  0.12700000000E+01 0.  1.
         21   -1    0    0  501  502  0.00000000000E+00 -0.00000000000E+00 -0.34271431650E+03  0.34271431650E+03  0.00000000000E+00 0. -1.
         25    2    1    2    0    0  0.22585296970E+02 -0.71007272796E+02 -0.18420606463E+03  0.23475641705E+03  0.12500629051E+03 0.  0.
    9000005    1    3    3    0    0 -0.20218393054E+02 -0.46130174270E+02 -0.71195580203E+01  0.50876954530E+02  0.10000000000E+01 0.  0.
    9000005    1    3    3    0    0  0.42803690025E+02 -0.24877098526E+02 -0.17708650661E+03  0.18387946251E+03  0.10000000000E+01 0.  0.
         -4    1    1    2    0  502 -0.22585296970E+02  0.71007272796E+02 -0.12282415447E+03  0.14366458941E+03  0.12700000000E+01 0. -1.
<mgrwt>
<rscale>  1 0.14552904E+03</rscale>
<asrwt>0</asrwt>
<pdfrwt beam="2">  1       21 0.52725276E-01 0.14552904E+03</pdfrwt>
<pdfrwt beam="1">  1       -4 0.54917804E-02 0.14552904E+03</pdfrwt>
<totfact> 0.28793018E+04</totfact>
</mgrwt>
</event>
<event>
 6    3  0.3813045E-003  0.1298286E+03  0.7818608E-02  0.1227710E+00
         21   -1    0    0  501  502  0.00000000000E+00  0.00000000000E+00  0.16004164473E+02  0.16004164473E+02  0.00000000000E+00 0.  1.
          4   -1    0    0  502    0 -0.00000000000E+00 -0.00000000000E+00 -0.49739091360E+03  0.49739253496E+03  0.12700000000E+01 0.  1.
         25    2    1    2    0    0  0.34847220640E+02 -0.38960399334E+01 -0.44188242937E+03  0.46056004461E+03  0.12500386150E+03 0.  0.
    9000005    1    3    3    0    0  0.55930790468E+02  0.47959882057E+02 -0.23980409582E+03  0.25086930458E+03  0.10000000000E+01 0.  0.
    9000005    1    3    3    0    0 -0.21083569828E+02 -0.51855921990E+02 -0.20207833355E+03  0.20969074003E+03  0.10000000000E+01 0.  0.
          4    1    1    2  501    0 -0.34847220640E+02  0.38960399334E+01 -0.39504319759E+02  0.52836654825E+02  0.12700000000E+01 0. -1.
<mgrwt>
<rscale>  1 0.12982863E+03</rscale>
<asrwt>0</asrwt>
<pdfrwt beam="1">  1       21 0.24621792E-02 0.12982863E+03</pdfrwt>
<pdfrwt beam="2">  1        4 0.76525678E-01 0.12982863E+03</pdfrwt>
<totfact> 0.55106210E+04</totfact>
</mgrwt>
</event>
<event>
 6    3  0.3813045E-003  0.1271042E+03  0.7818608E-02  0.1231817E+00
          4   -1    0    0  502    0 -0.00000000000E+00  0.00000000000E+00  0.20286655911E+03  0.20287053434E+03  0.12700000000E+01 0. -1.
         21   -1    0    0  501  502  0.00000000000E+00 -0.00000000000E+00 -0.28448335751E+03  0.28448335751E+03  0.00000000000E+00 0.  1.
         25    2    1    2    0    0 -0.16858328216E+02 -0.15518048002E+02  0.18241308566E+03  0.22232859944E+03  0.12502183516E+03 0.  0.
    9000005    1    3    3    0    0 -0.29277558272E+01  0.51473206279E+02  0.11610648816E+03  0.12704243114E+03  0.10000000000E+01 0.  0.
    9000005    1    3    3    0    0 -0.13930572388E+02 -0.66991254281E+02  0.66306597498E+02  0.95286168298E+02  0.10000000000E+01 0.  0.
          4    1    1    2  501    0  0.16858328216E+02  0.15518048002E+02 -0.26402988405E+03  0.26502529241E+03  0.12700000000E+01 0.  1.
<mgrwt>
<rscale>  1 0.12710418E+03</rscale>
<asrwt>0</asrwt>
<pdfrwt beam="2">  1       21 0.43766670E-01 0.12710418E+03</pdfrwt>
<pdfrwt beam="1">  1        4 0.31210764E-01 0.12710418E+03</pdfrwt>
<totfact> 0.20513016E+03</totfact>
</mgrwt>
</event>
<event>
 6    3  0.3813045E-003  0.1275048E+03  0.7818608E-02  0.1231206E+00
         21   -1    0    0  501  502  0.00000000000E+00  0.00000000000E+00  0.55070039900E+02  0.55070039900E+02  0.00000000000E+00 0. -1.
         -4   -1    0    0    0  501 -0.00000000000E+00 -0.00000000000E+00 -0.10676937382E+03  0.10677692674E+03  0.12700000000E+01 0. -1.
         25    2    1    2    0    0  0.17702902197E+02  0.17904234860E+02 -0.37462632808E+02  0.13289440319E+03  0.12499407654E+03 0.  0.
    9000005    1    3    3    0    0 -0.46359229154E+02  0.32680583177E+02  0.96390032873E+00  0.56737357609E+02  0.10000000000E+01 0.  0.
    9000005    1    3    3    0    0  0.64062131351E+02 -0.14776348318E+02 -0.38426533137E+02  0.76157045582E+02  0.10000000000E+01 0.  0.
         -4    1    1    2    0  502 -0.17702902197E+02 -0.17904234860E+02 -0.14236701108E+02  0.28952563454E+02  0.12700000000E+01 0.  1.
<mgrwt>
<rscale>  1 0.12750480E+03</rscale>
<asrwt>0</asrwt>
<pdfrwt beam="1">  1       21 0.84723139E-02 0.12750480E+03</pdfrwt>
<pdfrwt beam="2">  1       -4 0.16427765E-01 0.12750480E+03</pdfrwt>
<totfact> 0.13868225E+05</totfact>
</mgrwt>
</event>
<event>
 6    3  0.3813045E-003  0.1296916E+03  0.7818608E-02  0.1227914E+00
         21   -1    0    0  501  502  0.00000000000E+00  0.00000000000E+00  0.15392108451E+03  0.15392108451E+03  0.00000000000E+00 0. -1.
         -4   -1    0    0    0  501 -0.00000000000E+00 -0.00000000000E+00 -0.55486113504E+02  0.55500645869E+02  0.12700000000E+01 0. -1.
         25    2    1    2    0    0  0.31215143141E+02 -0.14820526260E+02  0.11289173163E+03  0.17194314999E+03  0.12500348234E+03 0.  0.
    9000005    1    3    3    0    0 -0.27181208261E+02 -0.25820016230E+02 -0.69799707168E+01  0.38147232034E+02  0.10000000000E+01 0.  0.
    9000005    1    3    3    0    0  0.58396351402E+02  0.10999489970E+02  0.11987170235E+03  0.13379591795E+03  0.10000000000E+01 0.  0.
         -4    1    1    2    0  502 -0.31215143141E+02  0.14820526260E+02 -0.14456760631E+02  0.37478580388E+02  0.12700000000E+01 0.  1.
<mgrwt>
<rscale>  1 0.12969157E+03</rscale>
<asrwt>0</asrwt>
<pdfrwt beam="1">  1       21 0.23680167E-01 0.12969157E+03</pdfrwt>
<pdfrwt beam="2">  1       -4 0.85378461E-02 0.12969157E+03</pdfrwt>
<totfact> 0.67003331E+04</totfact>
</mgrwt>
</event>
<event>
 6    3  0.3813045E-003  0.1306026E+03  0.7818608E-02  0.1226564E+00
         -4   -1    0    0    0  501 -0.00000000000E+00  0.00000000000E+00  0.60472995979E+02  0.60486330213E+02  0.12700000000E+01 0.  1.
         21   -1    0    0  501  502  0.00000000000E+00 -0.00000000000E+00 -0.15055765940E+03  0.15055765940E+03  0.00000000000E+00 0. -1.
         25    2    1    2    0    0 -0.23449634404E+02  0.29692468549E+02 -0.21018517803E+02  0.13228312742E+03  0.12500207866E+03 0.  0.
    9000005    1    3    3    0    0 -0.12297646103E+01  0.32819987001E+02 -0.70588679384E+02  0.77861579261E+02  0.10000000000E+01 0.  0.
    9000005    1    3    3    0    0 -0.22219869794E+02 -0.31275184512E+01  0.49570161581E+02  0.54421548164E+02  0.10000000000E+01 0.  0.
         -4    1    1    2    0  502  0.23449634404E+02 -0.29692468549E+02 -0.69066145621E+02  0.78760862191E+02  0.12700000000E+01 0. -1.
<mgrwt>
<rscale>  1 0.13060263E+03</rscale>
<asrwt>0</asrwt>
<pdfrwt beam="2">  1       21 0.23162716E-01 0.13060263E+03</pdfrwt>
<pdfrwt beam="1">  1       -4 0.93049757E-02 0.13060263E+03</pdfrwt>
<totfact> 0.60555066E+04</totfact>
</mgrwt>
</event>
<event>
 6    3  0.3813045E-003  0.1367092E+03  0.7818608E-02  0.1217827E+00
         21   -1    0    0  501  502  0.00000000000E+00  0.00000000000E+00  0.11861110534E+04  0.11861110534E+04  0.00000000000E+00 0.  1.
          4   -1    0    0  502    0 -0.00000000000E+00 -0.00000000000E+00 -0.10268848844E+02  0.10347084448E+02  0.12700000000E+01 0. -1.
         25    2    1    2    0    0  0.20800560041E+02  0.51298584419E+02  0.50003186284E+03  0.51838333450E+03  0.12500083829E+03 0.  0.
    9000005    1    3    3    0    0  0.59012100775E+02  0.29016745806E+02  0.43364258277E+03  0.43860151524E+03  0.10000000000E+01 0.  0.
    9000005    1    3    3    0    0 -0.38211540734E+02  0.22281838613E+02  0.66389280063E+02  0.79781819261E+02  0.10000000000E+01 0.  0.
          4    1    1    2  501    0 -0.20800560041E+02 -0.51298584419E+02  0.67581034168E+03  0.67807480331E+03  0.12700000000E+01 0.  1.
<mgrwt>
<rscale>  1 0.13670924E+03</rscale>
<asrwt>0</asrwt>
<pdfrwt beam="1">  1       21 0.18247852E+00 0.13670924E+03</pdfrwt>
<pdfrwt beam="2">  1        4 0.15858943E-02 0.13670924E+03</pdfrwt>
<totfact> 0.10660658E+04</totfact>
</mgrwt>
</event>
<event>
 6    3  0.3813045E-003  0.1376427E+03  0.7818608E-02  0.1216536E+00
         -4   -1    0    0    0  501 -0.00000000000E+00  0.00000000000E+00  0.35875767200E+03  0.35875991989E+03  0.12700000000E+01 0. -1.
         21   -1    0    0  501  502  0.00000000000E+00 -0.00000000000E+00 -0.27591212902E+02  0.27591212902E+02  0.00000000000E+00 0.  1.
         25    2    1    2    0    0 -0.53483504637E+02  0.21443010760E+02  0.19692910162E+03  0.24026359389E+03  0.12500094202E+03 0.  0.
    9000005    1    3    3    0    0 -0.74761668604E+02  0.47573041282E+02  0.82881999279E+02  0.12133806968E+03  0.10000000000E+01 0.  0.
    9000005    1    3    3    0    0  0.21278163968E+02 -0.26130030523E+02  0.11404710234E+03  0.11892552421E+03  0.10000000000E+01 0.  0.
         -4    1    1    2    0  502  0.53483504637E+02 -0.21443010760E+02  0.13423735748E+03  0.14608753890E+03  0.12700000000E+01 0.  1.
<mgrwt>
<rscale>  1 0.13764274E+03</rscale>
<asrwt>0</asrwt>
<pdfrwt beam="2">  1       21 0.42448023E-02 0.13764274E+03</pdfrwt>
<pdfrwt beam="1">  1       -4 0.55195906E-01 0.13764274E+03</pdfrwt>
<totfact> 0.45399172E+04</totfact>
</mgrwt>
</event>
<event>
 6    3  0.3813045E-003  0.1334947E+03  0.7818608E-02  0.1222360E+00
         -4   -1    0    0    0  501 -0.00000000000E+00  0.00000000000E+00  0.24769776173E+02  0.24802312627E+02  0.12700000000E+01 0.  1.
         21   -1    0    0  501  502  0.00000000000E+00 -0.00000000000E+00 -0.36390996997E+03  0.36390996997E+03  0.00000000000E+00 0. -1.
         25    2    1    2    0    0  0.43218195301E+02  0.18102922233E+02 -0.18875259710E+03  0.23118904514E+03  0.12500121392E+03 0.  0.
    9000005    1    3    3    0    0  0.12438904410E+02  0.39580908106E+02 -0.18914186615E+03  0.19364147324E+03  0.10000000000E+01 0.  0.
    9000005    1    3    3    0    0  0.30779290891E+02 -0.21477985873E+02  0.38926905033E+00  0.37547571896E+02  0.10000000000E+01 0.  0.
         -4    1    1    2    0  502 -0.43218195301E+02 -0.18102922233E+02 -0.15038759671E+03  0.15752323747E+03  0.12700000000E+01 0. -1.
<mgrwt>
<rscale>  1 0.13349469E+03</rscale>
<asrwt>0</asrwt>
<pdfrwt beam="2">  1       21 0.55986152E-01 0.13349469E+03</pdfrwt>
<pdfrwt beam="1">  1       -4 0.38134079E-02 0.13349469E+03</pdfrwt>
<totfact> 0.45154156E+04</totfact>
</mgrwt>
</event>
<event>
 6    3  0.3813045E-003  0.1275806E+03  0.7818608E-02  0.1231090E+00
         21   -1    0    0  501  502  0.00000000000E+00  0.00000000000E+00  0.83490558661E+02  0.83490558661E+02  0.00000000000E+00 0.  1.
         -4   -1    0    0    0  501 -0.00000000000E+00 -0.00000000000E+00 -0.17612924339E+03  0.17613382207E+03  0.12700000000E+01 0. -1.
         25    2    1    2    0    0  0.14923615697E+01  0.25490260874E+02 -0.14994358595E+03  0.19687531582E+03  0.12499932188E+03 0.  0.
    9000005    1    3    3    0    0  0.35629580818E+02 -0.36727733612E+02 -0.35776297507E+02  0.62444670780E+02  0.10000000000E+01 0.  0.
    9000005    1    3    3    0    0 -0.34137219249E+02  0.62217994485E+02 -0.11416728845E+03  0.13443064504E+03  0.10000000000E+01 0.  0.
         -4    1    1    2    0  502 -0.14923615697E+01 -0.25490260874E+02  0.57304901224E+02  0.62749064907E+02  0.12700000000E+01 0.  1.
<mgrwt>
<rscale>  1 0.12758061E+03</rscale>
<asrwt>0</asrwt>
<pdfrwt beam="1">  1       21 0.12844702E-01 0.12758061E+03</pdfrwt>
<pdfrwt beam="2">  1       -4 0.27097902E-01 0.12758061E+03</pdfrwt>
<totfact> 0.27037303E+04</totfact>
</mgrwt>
</event>
<event>
 6    3  0.3813045E-003  0.1291507E+03  0.7818608E-02  0.1228721E+00
         -4   -1    0    0    0  501 -0.00000000000E+00  0.00000000000E+00  0.15288652879E+03  0.15289180352E+03  0.12700000000E+01 0.  1.
         21   -1    0    0  501  502  0.00000000000E+00 -0.00000000000E+00 -0.10721215855E+03  0.10721215855E+03  0.00000000000E+00 0. -1.
         25    2    1    2    0    0  0.87167420442E+01  0.31282622802E+02  0.12167932368E+03  0.17744230271E+03  0.12500131558E+03 0.  0.
    9000005    1    3    3    0    0  0.93891955411E+01 -0.47530176747E+02  0.61363863443E+02  0.78190782264E+02  0.10000000000E+01 0.  0.
    9000005    1    3    3    0    0 -0.67245349685E+00  0.78812799548E+02  0.60315460236E+02  0.99251520441E+02  0.10000000000E+01 0.  0.
         -4    1    1    2    0  502 -0.87167420442E+01 -0.31282622802E+02 -0.76004953439E+02  0.82661659362E+02  0.12700000000E+01 0. -1.
<mgrwt>
<rscale>  1 0.12915074E+03</rscale>
<asrwt>0</asrwt>
<pdfrwt beam="2">  1       21 0.16494178E-01 0.12915074E+03</pdfrwt>
<pdfrwt beam="1">  1       -4 0.23521989E-01 0.12915074E+03</pdfrwt>
<totfact> 0.22423696E+04</totfact>
</mgrwt>
</event>
<event>
 6    3  0.3813045E-003  0.1350399E+03  0.7818608E-02  0.1220163E+00
          4   -1    0    0  502    0 -0.00000000000E+00  0.00000000000E+00  0.74595077486E+02  0.74605887738E+02  0.12700000000E+01 0. -1.
         21   -1    0    0  501  502  0.00000000000E+00 -0.00000000000E+00 -0.70084307927E+03  0.70084307927E+03  0.00000000000E+00 0.  1.
         25    2    1    2    0    0 -0.47604948724E+02  0.18560309782E+02  0.11617810018E+02  0.13553872095E+03  0.12500022050E+03 0.  0.
    9000005    1    3    3    0    0 -0.61820275124E+02 -0.66491322559E+01 -0.41694521293E+02  0.74869155745E+02  0.10000000000E+01 0.  0.
    9000005    1    3    3    0    0  0.14215326400E+02  0.25209442037E+02  0.53312331311E+02  0.60669565206E+02  0.10000000000E+01 0.  0.
          4    1    1    2  501    0  0.47604948724E+02 -0.18560309782E+02 -0.63786581180E+03  0.63991024605E+03  0.12700000000E+01 0.  1.
<mgrwt>
<rscale>  1 0.13503989E+03</rscale>
<asrwt>0</asrwt>
<pdfrwt beam="2">  1       21 0.10782201E+00 0.13503989E+03</pdfrwt>
<pdfrwt beam="1">  1        4 0.11477086E-01 0.13503989E+03</pdfrwt>
<totfact> 0.17225700E+03</totfact>
</mgrwt>
</event>
<event>
 6    3  0.3813045E-003  0.1286227E+03  0.7818608E-02  0.1229514E+00
         21   -1    0    0  501  502  0.00000000000E+00  0.00000000000E+00  0.16101318630E+03  0.16101318630E+03  0.00000000000E+00 0.  1.
         -4   -1    0    0    0  501 -0.00000000000E+00 -0.00000000000E+00 -0.27158906257E+03  0.27159203192E+03  0.12700000000E+01 0. -1.
         25    2    1    2    0    0  0.26657191566E+02 -0.14465310827E+02 -0.25469161250E+03  0.28532721780E+03  0.12499581056E+03 0.  0.
    9000005    1    3    3    0    0 -0.48775532564E+02 -0.18667710984E+02 -0.88483006851E+02  0.10275105115E+03  0.10000000000E+01 0.  0.
    9000005    1    3    3    0    0  0.75432724130E+02  0.42024001575E+01 -0.16620860565E+03  0.18257616665E+03  0.10000000000E+01 0.  0.
         -4    1    1    2    0  502 -0.26657191566E+02  0.14465310827E+02  0.14411573623E+03  0.14727800042E+03  0.12700000000E+01 0.  1.
<mgrwt>
<rscale>  1 0.12862272E+03</rscale>
<asrwt>0</asrwt>
<pdfrwt beam="1">  1       21 0.24771259E-01 0.12862272E+03</pdfrwt>
<pdfrwt beam="2">  1       -4 0.41783546E-01 0.12862272E+03</pdfrwt>
<totfact> 0.35425872E+03</totfact>
</mgrwt>
</event>
<event>
 6    3  0.3813045E-003  0.1284309E+03  0.7818608E-02  0.1229803E+00
          4   -1    0    0  502    0 -0.00000000000E+00  0.00000000000E+00  0.79255578163E+02  0.79265752819E+02  0.12700000000E+01 0.  1.
         21   -1    0    0  501  502  0.00000000000E+00 -0.00000000000E+00 -0.21788768349E+03  0.21788768349E+03  0.00000000000E+00 0. -1.
         25    2    1    2    0    0  0.17985017261E+02  0.23328688095E+02  0.25038114599E+02  0.13084876913E+03  0.12500721846E+03 0.  0.
    9000005    1    3    3    0    0  0.26869976250E+02  0.72751439035E+02  0.21566536774E+02  0.80503931667E+02  0.10000000000E+01 0.  0.
    9000005    1    3    3    0    0 -0.88849589885E+01 -0.49422750941E+02  0.34715778258E+01  0.50344837465E+02  0.10000000000E+01 0.  0.
          4    1    1    2  501    0 -0.17985017261E+02 -0.23328688095E+02 -0.16367021993E+03  0.16630466718E+03  0.12700000000E+01 0. -1.
<mgrwt>
<rscale>  1 0.12843089E+03</rscale>
<asrwt>0</asrwt>
<pdfrwt beam="2">  1       21 0.33521182E-01 0.12843089E+03</pdfrwt>
<pdfrwt beam="1">  1        4 0.12194233E-01 0.12843089E+03</pdfrwt>
<totfact> 0.18857194E+04</totfact>
</mgrwt>
</event>
<event>
 6    3  0.3813045E-003  0.1304381E+03  0.7818608E-02  0.1226807E+00
         -4   -1    0    0    0  501 -0.00000000000E+00  0.00000000000E+00  0.12879964757E+04  0.12879971019E+04  0.12700000000E+01 0.  1.
         21   -1    0    0  501  502  0.00000000000E+00 -0.00000000000E+00 -0.64866425471E+01  0.64866425471E+01  0.00000000000E+00 0.  1.
         25    2    1    2    0    0  0.32742342575E+02  0.17758420181E+02  0.11619801447E+04  0.11692783858E+04  0.12500665755E+03 0.  0.
    9000005    1    3    3    0    0  0.72831218531E+02  0.37662116576E+02  0.87413055728E+03  0.87796813871E+03  0.10000000000E+01 0.  0.
    9000005    1    3    3    0    0 -0.40088875956E+02 -0.19903696395E+02  0.28784958741E+03  0.29131024712E+03  0.10000000000E+01 0.  0.
         -4    1    1    2    0  502 -0.32742342575E+02 -0.17758420181E+02  0.11952968850E+03  0.12520535858E+03  0.12700000000E+01 0. -1.
<mgrwt>
<rscale>  1 0.13043806E+03</rscale>
<asrwt>0</asrwt>
<pdfrwt beam="2">  1       21 0.99794603E-03 0.13043806E+03</pdfrwt>
<pdfrwt beam="1">  1       -4 0.19816271E+00 0.13043806E+03</pdfrwt>
<totfact> 0.22831296E+04</totfact>
</mgrwt>
</event>
<event>
 6    3  0.3813045E-003  0.1277397E+03  0.7818608E-02  0.1230849E+00
          4   -1    0    0  502    0 -0.00000000000E+00  0.00000000000E+00  0.42283987910E+03  0.42284178632E+03  0.12700000000E+01 0.  1.
         21   -1    0    0  501  502  0.00000000000E+00 -0.00000000000E+00 -0.15052652656E+02  0.15052652656E+02  0.00000000000E+00 0. -1.
         25    2    1    2    0    0 -0.15868326836E+02  0.20996384539E+02  0.37291839842E+03  0.39418974783E+03  0.12499909381E+03 0.  0.
    9000005    1    3    3    0    0  0.22198844024E+02  0.49568994317E+02  0.75649718613E+02  0.93132989857E+02  0.10000000000E+01 0.  0.
    9000005    1    3    3    0    0 -0.38067170860E+02 -0.28572609778E+02  0.29726867981E+03  0.30105675798E+03  0.10000000000E+01 0.  0.
          4    1    1    2  501    0  0.15868326836E+02 -0.20996384539E+02  0.34868828023E+02  0.43704691144E+02  0.12700000000E+01 0. -1.
<mgrwt>
<rscale>  1 0.12773968E+03</rscale>
<asrwt>0</asrwt>
<pdfrwt beam="2">  1       21 0.23157930E-02 0.12773968E+03</pdfrwt>
<pdfrwt beam="1">  1        4 0.65056548E-01 0.12773968E+03</pdfrwt>
<totfact> 0.86226869E+04</totfact>
</mgrwt>
</event>
<event>
 6    3  0.3813045E-003  0.1270884E+03  0.7818608E-02  0.1231841E+00
         21   -1    0    0  501  502  0.00000000000E+00  0.00000000000E+00  0.10035484991E+03  0.10035484991E+03  0.00000000000E+00 0. -1.
         -4   -1    0    0    0  501 -0.00000000000E+00 -0.00000000000E+00 -0.13590332417E+03  0.13590925803E+03  0.12700000000E+01 0.  1.
         25    2    1    2    0    0  0.19916422768E+02  0.11390968123E+02 -0.10389931123E+03  0.16415399862E+03  0.12500020136E+03 0.  0.
    9000005    1    3    3    0    0  0.36881899163E+02 -0.49362208594E+02 -0.35569506554E+02  0.71155406820E+02  0.10000000000E+01 0.  0.
    9000005    1    3    3    0    0 -0.16965476396E+02  0.60753176717E+02 -0.68329804677E+02  0.92998591805E+02  0.10000000000E+01 0.  0.
         -4    1    1    2    0  502 -0.19916422768E+02 -0.11390968123E+02  0.68350836972E+02  0.72110109315E+02  0.12700000000E+01 0. -1.
<mgrwt>
<rscale>  1 0.12708843E+03</rscale>
<asrwt>0</asrwt>
<pdfrwt beam="1">  1       21 0.15439208E-01 0.12708843E+03</pdfrwt>
<pdfrwt beam="2">  1       -4 0.20909278E-01 0.12708843E+03</pdfrwt>
<totfact> 0.31253173E+04</totfact>
</mgrwt>
</event>
<event>
 6    3  0.3813045E-003  0.1267617E+03  0.7818608E-02  0.1232341E+00
         -4   -1    0    0    0  501 -0.00000000000E+00  0.00000000000E+00  0.36276197448E+02  0.36298421471E+02  0.12700000000E+01 0.  1.
         21   -1    0    0  501  502  0.00000000000E+00 -0.00000000000E+00 -0.17640339640E+03  0.17640339640E+03  0.00000000000E+00 0.  1.
         25    2    1    2    0    0  0.14239224484E+02 -0.15507635541E+02 -0.82266733990E+02  0.15111700985E+03  0.12500117147E+03 0.  0.
    9000005    1    3    3    0    0  0.45055880200E+02 -0.32147144835E+02  0.64503557379E+01  0.55732202099E+02  0.10000000000E+01 0.  0.
    9000005    1    3    3    0    0 -0.30816655716E+02  0.16639509294E+02 -0.88717089728E+02  0.95384807747E+02  0.10000000000E+01 0.  0.
         -4    1    1    2    0  502 -0.14239224484E+02  0.15507635541E+02 -0.57860464961E+02  0.61584808025E+02  0.12700000000E+01 0. -1.
<mgrwt>
<rscale>  1 0.12676173E+03</rscale>
<asrwt>0</asrwt>
<pdfrwt beam="2">  1       21 0.27138985E-01 0.12676173E+03</pdfrwt>
<pdfrwt beam="1">  1       -4 0.55830145E-02 0.12676173E+03</pdfrwt>
<totfact> 0.10351947E+05</totfact>
</mgrwt>
</event>
<event>
 6    3  0.3813045E-003  0.1275596E+03  0.7818608E-02  0.1231122E+00
          4   -1    0    0  502    0 -0.00000000000E+00  0.00000000000E+00  0.15603430090E+03  0.15603946923E+03  0.12700000000E+01 0.  1.
         21   -1    0    0  501  502  0.00000000000E+00 -0.00000000000E+00 -0.68878890723E+02  0.68878890723E+02  0.00000000000E+00 0. -1.
         25    2    1    2    0    0 -0.13615468369E+02  0.21496664073E+02  0.12545776694E+03  0.17891650152E+03  0.12499590267E+03 0.  0.
    9000005    1    3    3    0    0 -0.42934922422E+02  0.57195655829E+02  0.40470544798E+02  0.82180384554E+02  0.10000000000E+01 0.  0.
    9000005    1    3    3    0    0  0.29319454053E+02 -0.35698991756E+02  0.84987222141E+02  0.96736116966E+02  0.10000000000E+01 0.  0.
          4    1    1    2  501    0  0.13615468369E+02 -0.21496664073E+02 -0.38302356766E+02  0.46001858429E+02  0.12700000000E+01 0. -1.
<mgrwt>
<rscale>  1 0.12755965E+03</rscale>
<asrwt>0</asrwt>
<pdfrwt beam="2">  1       21 0.10596752E-01 0.12755965E+03</pdfrwt>
<pdfrwt beam="1">  1        4 0.24006575E-01 0.12755965E+03</pdfrwt>
<totfact> 0.47518663E+04</totfact>
</mgrwt>
</event>
<event>
 6    3  0.3813045E-003  0.1276798E+03  0.7818608E-02  0.1230940E+00
          4   -1    0    0  502    0 -0.00000000000E+00  0.00000000000E+00  0.10970422786E+03  0.10971157875E+03  0.12700000000E+01 0.  1.
         21   -1    0    0  501  502  0.00000000000E+00 -0.00000000000E+00 -0.55126525000E+02  0.55126525000E+02  0.00000000000E+00 0.  1.
         25    2    1    2    0    0  0.22363350645E+02  0.13306261069E+02  0.54395159804E+02  0.13878388609E+03  0.12499983037E+03 0.  0.
    9000005    1    3    3    0    0  0.41855553790E+02 -0.46120331550E+02  0.12587308662E+02  0.63548506708E+02  0.10000000000E+01 0.  0.
    9000005    1    3    3    0    0 -0.19492203146E+02  0.59426592619E+02  0.41807851141E+02  0.75235379382E+02  0.10000000000E+01 0.  0.
          4    1    1    2  501    0 -0.22363350645E+02 -0.13306261069E+02  0.18254305938E+00  0.26054217656E+02  0.12700000000E+01 0. -1.
<mgrwt>
<rscale>  1 0.12767981E+03</rscale>
<asrwt>0</asrwt>
<pdfrwt beam="2">  1       21 0.84810039E-02 0.12767981E+03</pdfrwt>
<pdfrwt beam="1">  1        4 0.16879264E-01 0.12767981E+03</pdfrwt>
<totfact> 0.13200677E+05</totfact>
</mgrwt>
</event>
<event>
 6    3  0.3813045E-003  0.1294474E+03  0.7818608E-02  0.1228278E+00
         21   -1    0    0  501  502  0.00000000000E+00  0.00000000000E+00  0.18338559499E+03  0.18338559499E+03  0.00000000000E+00 0. -1.
          4   -1    0    0  502    0 -0.00000000000E+00 -0.00000000000E+00 -0.64803776782E+02  0.64816220078E+02  0.12700000000E+01 0.  1.
         25    2    1    2    0    0  0.33442697738E+02 -0.39146986277E+01  0.48008022530E+01  0.12953643937E+03  0.12499160982E+03 0.  0.
    9000005    1    3    3    0    0  0.19835079844E+02  0.22453949858E+02  0.59880337752E+02  0.66964655647E+02  0.10000000000E+01 0.  0.
    9000005    1    3    3    0    0  0.13607617894E+02 -0.26368648486E+02 -0.55079535499E+02  0.62571783725E+02  0.10000000000E+01 0.  0.
          4    1    1    2  501    0 -0.33442697738E+02  0.39146986277E+01  0.11378101595E+03  0.11866537569E+03  0.12700000000E+01 0. -1.
<mgrwt>
<rscale>  1 0.12944745E+03</rscale>
<asrwt>0</asrwt>
<pdfrwt beam="1">  1       21 0.28213168E-01 0.12944745E+03</pdfrwt>
<pdfrwt beam="2">  1        4 0.99711073E-02 0.12944745E+03</pdfrwt>
<totfact> 0.37065076E+04</totfact>
</mgrwt>
</event>
<event>
 6    3  0.3813045E-003  0.1267932E+03  0.7818608E-02  0.1232293E+00
         21   -1    0    0  501  502  0.00000000000E+00  0.00000000000E+00  0.74174579341E+02  0.74174579341E+02  0.00000000000E+00 0.  1.
          4   -1    0    0  502    0 -0.00000000000E+00 -0.00000000000E+00 -0.18061886872E+03  0.18062333359E+03  0.12700000000E+01 0. -1.
         25    2    1    2    0    0  0.17469802703E+02  0.11996013610E+02 -0.15591590834E+03  0.20096342277E+03  0.12500971351E+03 0.  0.
    9000005    1    3    3    0    0  0.56225979448E+02  0.45861546554E+02 -0.70113783722E+02  0.10090383979E+03  0.10000000000E+01 0.  0.
    9000005    1    3    3    0    0 -0.38756176745E+02 -0.33865532944E+02 -0.85802124615E+02  0.10005958298E+03  0.10000000000E+01 0.  0.
          4    1    1    2  501    0 -0.17469802703E+02 -0.11996013610E+02  0.49471618955E+02  0.53834490163E+02  0.12700000000E+01 0.  1.
<mgrwt>
<rscale>  1 0.12679324E+03</rscale>
<asrwt>0</asrwt>
<pdfrwt beam="1">  1       21 0.11411474E-01 0.12679324E+03</pdfrwt>
<pdfrwt beam="2">  1        4 0.27788698E-01 0.12679324E+03</pdfrwt>
<totfact> 0.31791219E+04</totfact>
</mgrwt>
</event>
<event>
 6    3  0.3813045E-003  0.1702610E+03  0.7818608E-02  0.1177576E+00
          4   -1    0    0  502    0 -0.00000000000E+00  0.00000000000E+00  0.52234856457E+03  0.52235010846E+03  0.12700000000E+01 0.  1.
         21   -1    0    0  501  502  0.00000000000E+00 -0.00000000000E+00 -0.54390092095E+02  0.54390092095E+02  0.00000000000E+00 0. -1.
         25    2    1    2    0    0 -0.81138695174E+02  0.82342202379E+02  0.41696055053E+03  0.45038305952E+03  0.12500029384E+03 0.  0.
    9000005    1    3    3    0    0  0.10091053324E+02  0.75555574357E+02  0.15147887311E+03  0.16957984306E+03  0.10000000000E+01 0.  0.
    9000005    1    3    3    0    0 -0.91229748498E+02  0.67866280226E+01  0.26548167742E+03  0.28080321646E+03  0.10000000000E+01 0.  0.
          4    1    1    2  501    0  0.81138695174E+02 -0.82342202379E+02  0.50997921948E+02  0.12635714103E+03  0.12700000000E+01 0. -1.
<mgrwt>
<rscale>  1 0.17026098E+03</rscale>
<asrwt>0</asrwt>
<pdfrwt beam="2">  1       21 0.83677068E-02 0.17026098E+03</pdfrwt>
<pdfrwt beam="1">  1        4 0.80362573E-01 0.17026098E+03</pdfrwt>
<totfact> 0.65140086E+03</totfact>
</mgrwt>
</event>
<event>
 6    3  0.3813045E-003  0.1540573E+03  0.7818608E-02  0.1195574E+00
          4   -1    0    0  502    0 -0.00000000000E+00  0.00000000000E+00  0.17034018584E+03  0.17034492013E+03  0.12700000000E+01 0. -1.
         21   -1    0    0  501  502  0.00000000000E+00 -0.00000000000E+00 -0.39670339547E+03  0.39670339547E+03  0.00000000000E+00 0.  1.
         25    2    1    2    0    0 -0.37056729414E+02 -0.82079671667E+02  0.12869876184E+03  0.20074121742E+03  0.12499356533E+03 0.  0.
    9000005    1    3    3    0    0 -0.79450569672E+02 -0.27425768851E+02  0.60209090064E+02  0.10339584297E+03  0.10000000000E+01 0.  0.
    9000005    1    3    3    0    0  0.42393840258E+02 -0.54653902816E+02  0.68489671778E+02  0.97345374441E+02  0.10000000000E+01 0.  0.
          4    1    1    2  501    0  0.37056729414E+02  0.82079671667E+02 -0.35506197147E+03  0.36630709818E+03  0.12700000000E+01 0.  1.
<mgrwt>
<rscale>  1 0.15405734E+03</rscale>
<asrwt>0</asrwt>
<pdfrwt beam="2">  1       21 0.61031291E-01 0.15405734E+03</pdfrwt>
<pdfrwt beam="1">  1        4 0.26206703E-01 0.15405734E+03</pdfrwt>
<totfact> 0.14362756E+03</totfact>
</mgrwt>
</event>
<event>
 6    3  0.3813045E-003  0.1932456E+03  0.7818608E-02  0.1155566E+00
          4   -1    0    0  502    0 -0.00000000000E+00  0.00000000000E+00  0.80768592656E+03  0.80768692503E+03  0.12700000000E+01 0.  1.
         21   -1    0    0  501  502  0.00000000000E+00 -0.00000000000E+00 -0.10112521578E+03  0.10112521578E+03  0.00000000000E+00 0. -1.
         25    2    1    2    0    0  0.52115853414E+02  0.13785008002E+03  0.73390341436E+03  0.75891903530E+03  0.12500069519E+03 0.  0.
    9000005    1    3    3    0    0  0.42693623511E+02  0.82336479836E+02  0.18318332582E+03  0.20532698862E+03  0.10000000000E+01 0.  0.
    9000005    1    3    3    0    0  0.94222299033E+01  0.55513600188E+02  0.55072008854E+03  0.55359204668E+03  0.10000000000E+01 0.  0.
          4    1    1    2  501    0 -0.52115853414E+02 -0.13785008002E+03 -0.27342703579E+02  0.14989310551E+03  0.12700000000E+01 0. -1.
<mgrwt>
<rscale>  1 0.19324565E+03</rscale>
<asrwt>0</asrwt>
<pdfrwt beam="2">  1       21 0.15557726E-01 0.19324565E+03</pdfrwt>
<pdfrwt beam="1">  1        4 0.12426006E+00 0.19324565E+03</pdfrwt>
<totfact> 0.78580851E+02</totfact>
</mgrwt>
</event>
<event>
 6    3  0.3813045E-003  0.1326397E+03  0.7818608E-02  0.1223591E+00
          4   -1    0    0  502    0 -0.00000000000E+00  0.00000000000E+00  0.65919906155E+03  0.65920028493E+03  0.12700000000E+01 0.  1.
         21   -1    0    0  501  502  0.00000000000E+00 -0.00000000000E+00 -0.13937971768E+02  0.13937971768E+02  0.00000000000E+00 0. -1.
         25    2    1    2    0    0 -0.44013656521E+02  0.55823712983E+01  0.57446940257E+03  0.58958324064E+03  0.12499975330E+03 0.  0.
    9000005    1    3    3    0    0 -0.13762075356E+02 -0.48379238315E+02  0.42275643330E+03  0.42573929501E+03  0.10000000000E+01 0.  0.
    9000005    1    3    3    0    0 -0.30251581165E+02  0.53961609613E+02  0.15171296927E+03  0.16384394563E+03  0.10000000000E+01 0.  0.
          4    1    1    2  501    0  0.44013656521E+02 -0.55823712983E+01  0.70791687214E+02  0.83555016057E+02  0.12700000000E+01 0. -1.
<mgrwt>
<rscale>  1 0.13263975E+03</rscale>
<asrwt>0</asrwt>
<pdfrwt beam="2">  1       21 0.21443039E-02 0.13263975E+03</pdfrwt>
<pdfrwt beam="1">  1        4 0.10141976E+00 0.13263975E+03</pdfrwt>
<totfact> 0.36692865E+04</totfact>
</mgrwt>
</event>
<event>
 6    3  0.3813045E-003  0.1269259E+03  0.7818608E-02  0.1232090E+00
          4   -1    0    0  502    0 -0.00000000000E+00  0.00000000000E+00  0.32167347739E+01  0.34583641517E+01  0.12700000000E+01 0. -1.
         21   -1    0    0  501  502  0.00000000000E+00 -0.00000000000E+00 -0.16914287693E+04  0.16914287693E+04  0.00000000000E+00 0. -1.
         25    2    1    2    0    0  0.11328292865E-02 -0.22019378586E+02 -0.13486503003E+04  0.13546098387E+04  0.12500131888E+03 0.  0.
    9000005    1    3    3    0    0 -0.56502362330E+02 -0.35372479880E+01 -0.93443390134E+03  0.93614782222E+03  0.10000000000E+01 0.  0.
    9000005    1    3    3    0    0  0.56503495160E+02 -0.18482130598E+02 -0.41421639893E+03  0.41846201651E+03  0.10000000000E+01 0.  0.
          4    1    1    2  501    0 -0.11328292865E-02  0.22019378586E+02 -0.33956173428E+03  0.34027729475E+03  0.12700000000E+01 0.  1.
<mgrwt>
<rscale>  1 0.12692589E+03</rscale>
<asrwt>0</asrwt>
<pdfrwt beam="2">  1       21 0.26021991E+00 0.12692589E+03</pdfrwt>
<pdfrwt beam="1">  1        4 0.51350562E-03 0.12692589E+03</pdfrwt>
<totfact> 0.19593312E+04</totfact>
</mgrwt>
</event>
<event>
 6    3  0.3813045E-003  0.2176064E+03  0.7818608E-02  0.1135680E+00
         21   -1    0    0  501  502  0.00000000000E+00  0.00000000000E+00  0.24988318777E+04  0.24988318777E+04  0.00000000000E+00 0. -1.
          4   -1    0    0  502    0 -0.00000000000E+00 -0.00000000000E+00 -0.33089587361E+02  0.33113950108E+02  0.12700000000E+01 0.  1.
         25    2    1    2    0    0 -0.10893894179E+03  0.14092575179E+03  0.37450279835E+03  0.43313378612E+03  0.12499908062E+03 0.  0.
    9000005    1    3    3    0    0  0.17146980584E+02  0.53901311739E+02  0.15867015940E+03  0.16845352425E+03  0.10000000000E+01 0.  0.
    9000005    1    3    3    0    0 -0.12608592237E+03  0.87024440052E+02  0.21583263895E+03  0.26468026187E+03  0.10000000000E+01 0.  0.
          4    1    1    2  501    0  0.10893894179E+03 -0.14092575179E+03  0.20912394920E+04  0.20988120416E+04  0.12700000000E+01 0. -1.
<mgrwt>
<rscale>  1 0.21760637E+03</rscale>
<asrwt>0</asrwt>
<pdfrwt beam="1">  1       21 0.38443553E+00 0.21760637E+03</pdfrwt>
<pdfrwt beam="2">  1        4 0.50926066E-02 0.21760637E+03</pdfrwt>
<totfact> 0.10386255E+02</totfact>
</mgrwt>
</event>
<event>
 6    3  0.3813045E-003  0.1304534E+03  0.7818608E-02  0.1226784E+00
         -4   -1    0    0    0  501 -0.00000000000E+00  0.00000000000E+00  0.19892942476E+02  0.19933440755E+02  0.12700000000E+01 0. -1.
         21   -1    0    0  501  502  0.00000000000E+00 -0.00000000000E+00 -0.36117377619E+03  0.36117377619E+03  0.00000000000E+00 0. -1.
         25    2    1    2    0    0 -0.34668668123E+02 -0.13807333286E+02 -0.24000432598E+03  0.27316694216E+03  0.12500217117E+03 0.  0.
    9000005    1    3    3    0    0 -0.64312876030E+02 -0.27874449497E+02 -0.22747145459E+03  0.23802813617E+03  0.10000000000E+01 0.  0.
    9000005    1    3    3    0    0  0.29644207907E+02  0.14067116211E+02 -0.12532871395E+02  0.35138805989E+02  0.10000000000E+01 0.  0.
         -4    1    1    2    0  502  0.34668668123E+02  0.13807333286E+02 -0.10127650773E+03  0.10794027478E+03  0.12700000000E+01 0.  1.
<mgrwt>
<rscale>  1 0.13045345E+03</rscale>
<asrwt>0</asrwt>
<pdfrwt beam="2">  1       21 0.55565189E-01 0.13045345E+03</pdfrwt>
<pdfrwt beam="1">  1       -4 0.30637401E-02 0.13045345E+03</pdfrwt>
<totfact> 0.64598881E+04</totfact>
</mgrwt>
</event>
<event>
 6    3  0.3813045E-003  0.1280329E+03  0.7818608E-02  0.1230404E+00
          4   -1    0    0  502    0 -0.00000000000E+00  0.00000000000E+00  0.31392493253E+03  0.31392750145E+03  0.12700000000E+01 0.  1.
         21   -1    0    0  501  502  0.00000000000E+00 -0.00000000000E+00 -0.56251738868E+02  0.56251738868E+02  0.00000000000E+00 0. -1.
         25    2    1    2    0    0 -0.24926736825E+02 -0.12079208077E+02  0.29621426269E+03  0.32270001983E+03  0.12500065560E+03 0.  0.
    9000005    1    3    3    0    0  0.13139421465E+02 -0.52466897066E+02  0.23009930612E+03  0.23637282069E+03  0.10000000000E+01 0.  0.
    9000005    1    3    3    0    0 -0.38066158290E+02  0.40387688989E+02  0.66114956575E+02  0.86327199143E+02  0.10000000000E+01 0.  0.
          4    1    1    2  501    0  0.24926736825E+02  0.12079208077E+02 -0.38541069026E+02  0.47479220488E+02  0.12700000000E+01 0. -1.
<mgrwt>
<rscale>  1 0.12803286E+03</rscale>
<asrwt>0</asrwt>
<pdfrwt beam="2">  1       21 0.86541139E-02 0.12803286E+03</pdfrwt>
<pdfrwt beam="1">  1        4 0.48297443E-01 0.12803286E+03</pdfrwt>
<totfact> 0.17643745E+04</totfact>
</mgrwt>
</event>
<event>
 6    3  0.3813045E-003  0.1280255E+03  0.7818608E-02  0.1230415E+00
         21   -1    0    0  501  502  0.00000000000E+00  0.00000000000E+00  0.79149132027E+02  0.79149132027E+02  0.00000000000E+00 0.  1.
         -4   -1    0    0    0  501 -0.00000000000E+00 -0.00000000000E+00 -0.83901499232E+02  0.83911110548E+02  0.12700000000E+01 0.  1.
         25    2    1    2    0    0  0.24070209731E+02  0.13658064115E+02 -0.22738949183E+02  0.13002923074E+03  0.12499849329E+03 0.  0.
    9000005    1    3    3    0    0  0.84449385830E+01  0.23640939646E+02 -0.72599175095E+02  0.76823507076E+02  0.10000000000E+01 0.  0.
    9000005    1    3    3    0    0  0.15625271148E+02 -0.99828755305E+01  0.49860225911E+02  0.53205723660E+02  0.10000000000E+01 0.  0.
         -4    1    1    2    0  502 -0.24070209731E+02 -0.13658064115E+02  0.17986581978E+02  0.33031011839E+02  0.12700000000E+01 0. -1.
<mgrwt>
<rscale>  1 0.12802555E+03</rscale>
<asrwt>0</asrwt>
<pdfrwt beam="1">  1       21 0.12176790E-01 0.12802555E+03</pdfrwt>
<pdfrwt beam="2">  1       -4 0.12909446E-01 0.12802555E+03</pdfrwt>
<totfact> 0.11181225E+05</totfact>
</mgrwt>
</event>
<event>
 6    3  0.3813045E-003  0.1272913E+03  0.7818608E-02  0.1231531E+00
         -4   -1    0    0    0  501 -0.00000000000E+00  0.00000000000E+00  0.14290336920E+03  0.14290901241E+03  0.12700000000E+01 0. -1.
         21   -1    0    0  501  502  0.00000000000E+00 -0.00000000000E+00 -0.41757810391E+02  0.41757810391E+02  0.00000000000E+00 0. -1.
         25    2    1    2    0    0 -0.22053939244E+01 -0.23940325708E+02  0.97447190480E+02  0.16030920006E+03  0.12500032694E+03 0.  0.
    9000005    1    3    3    0    0 -0.58682473596E+02 -0.27712467780E+02  0.75572235187E+02  0.99618152507E+02  0.10000000000E+01 0.  0.
    9000005    1    3    3    0    0  0.56477079672E+02  0.37721420716E+01  0.21874955293E+02  0.60691047553E+02  0.10000000000E+01 0.  0.
         -4    1    1    2    0  502  0.22053939244E+01  0.23940325708E+02  0.36983683284E+01  0.24357622742E+02  0.12700000000E+01 0.  1.
<mgrwt>
<rscale>  1 0.12729134E+03</rscale>
<asrwt>0</asrwt>
<pdfrwt beam="2">  1       21 0.64242786E-02 0.12729134E+03</pdfrwt>
<pdfrwt beam="1">  1       -4 0.21987053E-01 0.12729134E+03</pdfrwt>
<totfact> 0.13239697E+05</totfact>
</mgrwt>
</event>
<event>
 6    3  0.3813045E-003  0.1294191E+03  0.7818608E-02  0.1228320E+00
         21   -1    0    0  501  502  0.00000000000E+00  0.00000000000E+00  0.13809938689E+02  0.13809938689E+02  0.00000000000E+00 0.  1.
          4   -1    0    0  502    0 -0.00000000000E+00 -0.00000000000E+00 -0.48057228602E+03  0.48057396412E+03  0.12700000000E+01 0.  1.
         25    2    1    2    0    0 -0.32957419708E+02 -0.59454911024E+01 -0.36933508290E+03  0.39135368815E+03  0.12501106107E+03 0.  0.
    9000005    1    3    3    0    0 -0.32968546930E+02  0.55314411981E+02 -0.23575346337E+03  0.24439170352E+03  0.10000000000E+01 0.  0.
    9000005    1    3    3    0    0  0.11127222295E-01 -0.61259903083E+02 -0.13358161953E+03  0.14696198462E+03  0.10000000000E+01 0.  0.
          4    1    1    2  501    0  0.32957419708E+02  0.59454911024E+01 -0.97427264431E+02  0.10303021466E+03  0.12700000000E+01 0. -1.
<mgrwt>
<rscale>  1 0.12941911E+03</rscale>
<asrwt>0</asrwt>
<pdfrwt beam="1">  1       21 0.21246063E-02 0.12941911E+03</pdfrwt>
<pdfrwt beam="2">  1        4 0.73938805E-01 0.12941911E+03</pdfrwt>
<totfact> 0.75423445E+04</totfact>
</mgrwt>
</event>
<event>
 6    3  0.3813045E-003  0.1272143E+03  0.7818608E-02  0.1231649E+00
         21   -1    0    0  501  502  0.00000000000E+00  0.00000000000E+00  0.30694444599E+03  0.30694444599E+03  0.00000000000E+00 0. -1.
         -4   -1    0    0    0  501 -0.00000000000E+00 -0.00000000000E+00 -0.18578239565E+02  0.18621597282E+02  0.12700000000E+01 0. -1.
         25    2    1    2    0    0 -0.15656213725E+02  0.17699219577E+02  0.24956147904E+03  0.28011497981E+03  0.12500036278E+03 0.  0.
    9000005    1    3    3    0    0 -0.84060987708E+01  0.50740815817E+01 -0.13459032233E+02  0.16689947546E+02  0.10000000000E+01 0.  0.
    9000005    1    3    3    0    0 -0.72501149538E+01  0.12625137995E+02  0.26302051127E+03  0.26342503227E+03  0.10000000000E+01 0.  0.
         -4    1    1    2    0  502  0.15656213725E+02 -0.17699219577E+02  0.38804727392E+02  0.45451063462E+02  0.12700000000E+01 0.  1.
<mgrwt>
<rscale>  1 0.12721427E+03</rscale>
<asrwt>0</asrwt>
<pdfrwt beam="1">  1       21 0.47222219E-01 0.12721427E+03</pdfrwt>
<pdfrwt beam="2">  1       -4 0.28617282E-02 0.12721427E+03</pdfrwt>
<totfact> 0.10035450E+05</totfact>
</mgrwt>
</event>
<event>
 6    3  0.3813045E-003  0.1313174E+03  0.7818608E-02  0.1225514E+00
         -4   -1    0    0    0  501 -0.00000000000E+00  0.00000000000E+00  0.15411046095E+03  0.15411569379E+03  0.12700000000E+01 0. -1.
         21   -1    0    0  501  502  0.00000000000E+00 -0.00000000000E+00 -0.50156899513E+02  0.50156899513E+02  0.00000000000E+00 0. -1.
         25    2    1    2    0    0  0.17809701777E+02 -0.36085518008E+02  0.59111614859E+02  0.14400848160E+03  0.12499963869E+03 0.  0.
    9000005    1    3    3    0    0  0.45508038456E+02 -0.59728083588E+02  0.61892409266E+00  0.75098659111E+02  0.10000000000E+01 0.  0.
    9000005    1    3    3    0    0 -0.27698336680E+02  0.23642565580E+02  0.58492690767E+02  0.68909822487E+02  0.10000000000E+01 0.  0.
         -4    1    1    2    0  502 -0.17809701777E+02  0.36085518008E+02  0.44841946575E+02  0.60264111707E+02  0.12700000000E+01 0.  1.
<mgrwt>
<rscale>  1 0.13131740E+03</rscale>
<asrwt>0</asrwt>
<pdfrwt beam="2">  1       21 0.77164462E-02 0.13131740E+03</pdfrwt>
<pdfrwt beam="1">  1       -4 0.23710941E-01 0.13131740E+03</pdfrwt>
<totfact> 0.84691653E+04</totfact>
</mgrwt>
</event>
<event>
 6    3  0.3813045E-003  0.1331020E+03  0.7818608E-02  0.1222924E+00
         21   -1    0    0  501  502  0.00000000000E+00  0.00000000000E+00  0.90653093066E+02  0.90653093066E+02  0.00000000000E+00 0. -1.
         -4   -1    0    0    0  501 -0.00000000000E+00 -0.00000000000E+00 -0.88210685318E+02  0.88219827161E+02  0.12700000000E+01 0.  1.
         25    2    1    2    0    0  0.51050704751E+01 -0.45441101522E+02  0.10069958248E+01  0.13310580584E+03  0.12500074422E+03 0.  0.
    9000005    1    3    3    0    0 -0.36246986811E+02  0.34215844254E+00 -0.43791299935E+02  0.56856301984E+02  0.10000000000E+01 0.  0.
    9000005    1    3    3    0    0  0.41352057286E+02 -0.45783259965E+02  0.44798295760E+02  0.76249503853E+02  0.10000000000E+01 0.  0.
         -4    1    1    2    0  502 -0.51050704751E+01  0.45441101522E+02  0.14354119233E+01  0.45767114389E+02  0.12700000000E+01 0. -1.
<mgrwt>
<rscale>  1 0.13310200E+03</rscale>
<asrwt>0</asrwt>
<pdfrwt beam="1">  1       21 0.13946630E-01 0.13310200E+03</pdfrwt>
<pdfrwt beam="2">  1       -4 0.13572262E-01 0.13310200E+03</pdfrwt>
<totfact> 0.80952717E+04</totfact>
</mgrwt>
</event>
<event>
 6    3  0.3813045E-003  0.1282380E+03  0.7818608E-02  0.1230094E+00
          4   -1    0    0  502    0 -0.00000000000E+00  0.00000000000E+00  0.57822180165E+02  0.57836125553E+02  0.12700000000E+01 0. -1.
         21   -1    0    0  501  502  0.00000000000E+00 -0.00000000000E+00 -0.11714889827E+03  0.11714889827E+03  0.00000000000E+00 0.  1.
         25    2    1    2    0    0  0.28493274015E+02  0.28717269751E+01 -0.25681837286E+02  0.13078429549E+03  0.12499944680E+03 0.  0.
    9000005    1    3    3    0    0 -0.36221994555E+02  0.32022573625E+02 -0.34287281870E+02  0.59279809456E+02  0.10000000000E+01 0.  0.
    9000005    1    3    3    0    0  0.64715268569E+02 -0.29150846650E+02  0.86054445834E+01  0.71504486034E+02  0.10000000000E+01 0.  0.
          4    1    1    2  501    0 -0.28493274015E+02 -0.28717269751E+01 -0.33644880819E+02  0.44200728333E+02  0.12700000000E+01 0.  1.
<mgrwt>
<rscale>  1 0.12823796E+03</rscale>
<asrwt>0</asrwt>
<pdfrwt beam="2">  1       21 0.18022907E-01 0.12823796E+03</pdfrwt>
<pdfrwt beam="1">  1        4 0.88973223E-02 0.12823796E+03</pdfrwt>
<totfact> 0.10363832E+05</totfact>
</mgrwt>
</event>
<event>
 6    3  0.3813045E-003  0.1299877E+03  0.7818608E-02  0.1227474E+00
         21   -1    0    0  501  502  0.00000000000E+00  0.00000000000E+00  0.51663778168E+03  0.51663778168E+03  0.00000000000E+00 0.  1.
          4   -1    0    0  502    0 -0.00000000000E+00 -0.00000000000E+00 -0.14534355107E+02  0.14589735377E+02  0.12700000000E+01 0.  1.
         25    2    1    2    0    0 -0.16257030956E+02 -0.31737535514E+02  0.31524787232E+03  0.34099562364E+03  0.12500092850E+03 0.  0.
    9000005    1    3    3    0    0 -0.40367828231E+02  0.17536989581E+02  0.37349861731E+02  0.57733177038E+02  0.10000000000E+01 0.  0.
    9000005    1    3    3    0    0  0.24110797274E+02 -0.49274525094E+02  0.27789801058E+03  0.28326244660E+03  0.10000000000E+01 0.  0.
          4    1    1    2  501    0  0.16257030956E+02  0.31737535514E+02  0.18685555426E+03  0.19023189342E+03  0.12700000000E+01 0. -1.
<mgrwt>
<rscale>  1 0.12998767E+03</rscale>
<asrwt>0</asrwt>
<pdfrwt beam="1">  1       21 0.79482722E-01 0.12998767E+03</pdfrwt>
<pdfrwt beam="2">  1        4 0.22404351E-02 0.12998767E+03</pdfrwt>
<totfact> 0.48455882E+04</totfact>
</mgrwt>
</event>
<event>
 6    3  0.3813045E-003  0.1350543E+03  0.7818608E-02  0.1220143E+00
         21   -1    0    0  501  502  0.00000000000E+00  0.00000000000E+00  0.69294053131E+02  0.69294053131E+02  0.00000000000E+00 0. -1.
          4   -1    0    0  502    0 -0.00000000000E+00 -0.00000000000E+00 -0.17140426882E+03  0.17140897372E+03  0.12700000000E+01 0. -1.
         25    2    1    2    0    0 -0.35962021230E+01 -0.50996752369E+02 -0.12559584760E+03  0.18442879449E+03  0.12500424745E+03 0.  0.
    9000005    1    3    3    0    0  0.29964912630E+02  0.27818943043E+02 -0.73640006130E+02  0.84235622416E+02  0.10000000000E+01 0.  0.
    9000005    1    3    3    0    0 -0.33561114753E+02 -0.78815695412E+02 -0.51955841470E+02  0.10019317207E+03  0.10000000000E+01 0.  0.
          4    1    1    2  501    0  0.35962021230E+01  0.50996752369E+02  0.23485631907E+02  0.56274232362E+02  0.12700000000E+01 0.  1.
<mgrwt>
<rscale>  1 0.13505430E+03</rscale>
<asrwt>0</asrwt>
<pdfrwt beam="1">  1       21 0.10660624E-01 0.13505430E+03</pdfrwt>
<pdfrwt beam="2">  1        4 0.26371144E-01 0.13505430E+03</pdfrwt>
<totfact> 0.39808207E+04</totfact>
</mgrwt>
</event>
<event>
 6    3  0.3813045E-003  0.1267978E+03  0.7818608E-02  0.1232286E+00
         -4   -1    0    0    0  501 -0.00000000000E+00  0.00000000000E+00  0.19760104604E+03  0.19760512720E+03  0.12700000000E+01 0. -1.
         21   -1    0    0  501  502  0.00000000000E+00 -0.00000000000E+00 -0.51150202737E+02  0.51150202737E+02  0.00000000000E+00 0. -1.
         25    2    1    2    0    0  0.92818041744E+00 -0.21265117761E+02  0.17313335947E+03  0.21459927160E+03  0.12499848183E+03 0.  0.
    9000005    1    3    3    0    0 -0.12305762039E+02 -0.65433599838E+02  0.14750255169E+03  0.16183630780E+03  0.10000000000E+01 0.  0.
    9000005    1    3    3    0    0  0.13233942457E+02  0.44168482077E+02  0.25630807775E+02  0.52762963802E+02  0.10000000000E+01 0.  0.
         -4    1    1    2    0  502 -0.92818041744E+00  0.21265117761E+02 -0.26682516163E+02  0.34156058336E+02  0.12700000000E+01 0.  1.
<mgrwt>
<rscale>  1 0.12679782E+03</rscale>
<asrwt>0</asrwt>
<pdfrwt beam="2">  1       21 0.78692621E-02 0.12679782E+03</pdfrwt>
<pdfrwt beam="1">  1       -4 0.30401687E-01 0.12679782E+03</pdfrwt>
<totfact> 0.51310585E+04</totfact>
</mgrwt>
</event>
<event>
 6    3  0.3813045E-003  0.1328545E+03  0.7818608E-02  0.1223281E+00
         21   -1    0    0  501  502  0.00000000000E+00  0.00000000000E+00  0.15628158459E+02  0.15628158459E+02  0.00000000000E+00 0.  1.
         -4   -1    0    0    0  501 -0.00000000000E+00 -0.00000000000E+00 -0.15105240407E+04  0.15105245745E+04  0.12700000000E+01 0. -1.
         25    2    1    2    0    0 -0.78776935916E+01  0.44302275266E+02 -0.14674053335E+04  0.14734071851E+04  0.12500228334E+03 0.  0.
    9000005    1    3    3    0    0  0.37287071718E+02 -0.28428335799E+02 -0.47025976930E+03  0.47259257994E+03  0.10000000000E+01 0.  0.
    9000005    1    3    3    0    0 -0.45164765309E+02  0.72730611066E+02 -0.99714556419E+03  0.10008146052E+04  0.10000000000E+01 0.  0.
         -4    1    1    2    0  502  0.78776935916E+01 -0.44302275266E+02 -0.27490548705E+02  0.52745547852E+02  0.12700000000E+01 0.  1.
<mgrwt>
<rscale>  1 0.13285451E+03</rscale>
<asrwt>0</asrwt>
<pdfrwt beam="1">  1       21 0.24043308E-02 0.13285451E+03</pdfrwt>
<pdfrwt beam="2">  1       -4 0.23239244E+00 0.13285451E+03</pdfrwt>
<totfact> 0.34848036E+03</totfact>
</mgrwt>
</event>
<event>
 6    3  0.3813045E-003  0.1273687E+03  0.7818608E-02  0.1231413E+00
         21   -1    0    0  501  502  0.00000000000E+00  0.00000000000E+00  0.40430730047E+02  0.40430730047E+02  0.00000000000E+00 0. -1.
         -4   -1    0    0    0  501 -0.00000000000E+00 -0.00000000000E+00 -0.60924441286E+03  0.60924573655E+03  0.12700000000E+01 0.  1.
         25    2    1    2    0    0  0.19701870801E+02  0.14448014074E+02 -0.59810262527E+03  0.61151413079E+03  0.12500349186E+03 0.  0.
    9000005    1    3    3    0    0 -0.22933105873E+02  0.52026825649E+02 -0.16133628448E+03  0.17106465042E+03  0.10000000000E+01 0.  0.
    9000005    1    3    3    0    0  0.42634976675E+02 -0.37578811575E+02 -0.43676634079E+03  0.44044948037E+03  0.10000000000E+01 0.  0.
         -4    1    1    2    0  502 -0.19701870801E+02 -0.14448014074E+02  0.29288942457E+02  0.38162335803E+02  0.12700000000E+01 0. -1.
<mgrwt>
<rscale>  1 0.12736868E+03</rscale>
<asrwt>0</asrwt>
<pdfrwt beam="1">  1       21 0.62201129E-02 0.12736868E+03</pdfrwt>
<pdfrwt beam="2">  1       -4 0.93731537E-01 0.12736868E+03</pdfrwt>
<totfact> 0.75056274E+03</totfact>
</mgrwt>
</event>
<event>
 6    3  0.3813045E-003  0.1268694E+03  0.7818608E-02  0.1232176E+00
         -4   -1    0    0    0  501 -0.00000000000E+00  0.00000000000E+00  0.34593867902E+02  0.34617171987E+02  0.12700000000E+01 0.  1.
         21   -1    0    0  501  502  0.00000000000E+00 -0.00000000000E+00 -0.16011311544E+03  0.16011311544E+03  0.00000000000E+00 0.  1.
         25    2    1    2    0    0 -0.96628543353E-01  0.21693877260E+02 -0.11120758916E+03  0.16870971646E+03  0.12500082758E+03 0.  0.
    9000005    1    3    3    0    0 -0.46575081783E+02  0.50974456162E+02 -0.43912108905E+02  0.81834630400E+02  0.10000000000E+01 0.  0.
    9000005    1    3    3    0    0  0.46478453240E+02 -0.29280578902E+02 -0.67295480251E+02  0.86875086064E+02  0.10000000000E+01 0.  0.
         -4    1    1    2    0  502  0.96628543353E-01 -0.21693877260E+02 -0.14311658384E+02  0.26020570965E+02  0.12700000000E+01 0. -1.
<mgrwt>
<rscale>  1 0.12686938E+03</rscale>
<asrwt>0</asrwt>
<pdfrwt beam="2">  1       21 0.24632787E-01 0.12686938E+03</pdfrwt>
<pdfrwt beam="1">  1       -4 0.53243136E-02 0.12686938E+03</pdfrwt>
<totfact> 0.13430153E+05</totfact>
</mgrwt>
</event>
<event>
 6    3  0.3813045E-003  0.1273633E+03  0.7818608E-02  0.1231421E+00
         -4   -1    0    0    0  501 -0.00000000000E+00  0.00000000000E+00  0.55551122479E+01  0.56984359334E+01  0.12700000000E+01 0. -1.
         21   -1    0    0  501  502  0.00000000000E+00 -0.00000000000E+00 -0.12504808034E+04  0.12504808034E+04  0.00000000000E+00 0. -1.
         25    2    1    2    0    0  0.88205560275E+01 -0.22761962311E+02 -0.11791463192E+04  0.11860048294E+04  0.12500201644E+03 0.  0.
    9000005    1    3    3    0    0 -0.34758952783E+02 -0.11009680542E+02 -0.10967826103E+03  0.11558424982E+03  0.10000000000E+01 0.  0.
    9000005    1    3    3    0    0  0.43579508811E+02 -0.11752281769E+02 -0.10694680581E+04  0.10704205795E+04  0.10000000000E+01 0.  0.
         -4    1    1    2    0  502 -0.88205560275E+01  0.22761962311E+02 -0.65779371973E+02  0.70174409966E+02  0.12700000000E+01 0.  1.
<mgrwt>
<rscale>  1 0.12736331E+03</rscale>
<asrwt>0</asrwt>
<pdfrwt beam="2">  1       21 0.19238173E+00 0.12736331E+03</pdfrwt>
<pdfrwt beam="1">  1       -4 0.86570687E-03 0.12736331E+03</pdfrwt>
<totfact> 0.22885707E+04</totfact>
</mgrwt>
</event>
<event>
 6    3  0.3813045E-003  0.1272521E+03  0.7818608E-02  0.1231591E+00
         21   -1    0    0  501  502  0.00000000000E+00  0.00000000000E+00  0.78246132123E+01  0.78246132123E+01  0.00000000000E+00 0. -1.
         -4   -1    0    0    0  501 -0.00000000000E+00 -0.00000000000E+00 -0.13328700694E+04  0.13328706745E+04  0.12700000000E+01 0.  1.
         25    2    1    2    0    0  0.13962995704E+02  0.19516458442E+02 -0.12991511316E+04  0.13053684375E+04  0.12496894564E+03 0.  0.
    9000005    1    3    3    0    0  0.45898441485E+02  0.13944446360E+02 -0.19766586240E+03  0.20340577100E+03  0.10000000000E+01 0.  0.
    9000005    1    3    3    0    0 -0.31935445782E+02  0.55720120816E+01 -0.11014852692E+04  0.11019626665E+04  0.10000000000E+01 0.  0.
         -4    1    1    2    0  502 -0.13962995704E+02 -0.19516458442E+02 -0.25894324574E+02  0.35326850189E+02  0.12700000000E+01 0. -1.
<mgrwt>
<rscale>  1 0.12725209E+03</rscale>
<asrwt>0</asrwt>
<pdfrwt beam="1">  1       21 0.12037878E-02 0.12725209E+03</pdfrwt>
<pdfrwt beam="2">  1       -4 0.20506472E+00 0.12725209E+03</pdfrwt>
<totfact> 0.15352251E+04</totfact>
</mgrwt>
</event>
<event>
 6    3  0.3813045E-003  0.1278002E+03  0.7818608E-02  0.1230757E+00
          4   -1    0    0  502    0 -0.00000000000E+00  0.00000000000E+00  0.90504082665E+03  0.90504171772E+03  0.12700000000E+01 0. -1.
         21   -1    0    0  501  502  0.00000000000E+00 -0.00000000000E+00 -0.67579613083E+01  0.67579613083E+01  0.00000000000E+00 0.  1.
         25    2    1    2    0    0  0.18778756365E+02 -0.18850744139E+02  0.79108437695E+03  0.80134099418E+03  0.12499962097E+03 0.  0.
    9000005    1    3    3    0    0  0.30717655707E+02  0.22057821172E+02  0.75111401269E+02  0.84100204801E+02  0.10000000000E+01 0.  0.
    9000005    1    3    3    0    0 -0.11938899342E+02 -0.40908565311E+02  0.71597297569E+03  0.71724078938E+03  0.10000000000E+01 0.  0.
          4    1    1    2  501    0 -0.18778756365E+02  0.18850744139E+02  0.10719848839E+03  0.11045868485E+03  0.12700000000E+01 0.  1.
<mgrwt>
<rscale>  1 0.12780022E+03</rscale>
<asrwt>0</asrwt>
<pdfrwt beam="2">  1       21 0.10396871E-02 0.12780022E+03</pdfrwt>
<pdfrwt beam="1">  1        4 0.13924620E+00 0.12780022E+03</pdfrwt>
<totfact> 0.54276227E+04</totfact>
</mgrwt>
</event>
<event>
 6    3  0.3813045E-003  0.1310016E+03  0.7818608E-02  0.1225977E+00
         21   -1    0    0  501  502  0.00000000000E+00  0.00000000000E+00  0.39205112370E+02  0.39205112370E+02  0.00000000000E+00 0.  1.
         -4   -1    0    0    0  501 -0.00000000000E+00 -0.00000000000E+00 -0.39475232332E+03  0.39475436625E+03  0.12700000000E+01 0. -1.
         25    2    1    2    0    0  0.29545503244E+02 -0.25760069187E+02 -0.36973209008E+03  0.39225406383E+03  0.12499965692E+03 0.  0.
    9000005    1    3    3    0    0 -0.30821173466E+02  0.33152180371E+02 -0.15729345463E+03  0.16368030629E+03  0.10000000000E+01 0.  0.
    9000005    1    3    3    0    0  0.60366676711E+02 -0.58912249558E+02 -0.21243863545E+03  0.22857375754E+03  0.10000000000E+01 0.  0.
         -4    1    1    2    0  502 -0.29545503244E+02  0.25760069187E+02  0.14184879127E+02  0.41705414784E+02  0.12700000000E+01 0.  1.
<mgrwt>
<rscale>  1 0.13100165E+03</rscale>
<asrwt>0</asrwt>
<pdfrwt beam="1">  1       21 0.60315556E-02 0.13100165E+03</pdfrwt>
<pdfrwt beam="2">  1       -4 0.60732867E-01 0.13100165E+03</pdfrwt>
<totfact> 0.20476997E+04</totfact>
</mgrwt>
</event>
<event>
 6    3  0.3813045E-003  0.1294409E+03  0.7818608E-02  0.1228288E+00
          4   -1    0    0  502    0 -0.00000000000E+00  0.00000000000E+00  0.12990896502E+03  0.12991517268E+03  0.12700000000E+01 0. -1.
         21   -1    0    0  501  502  0.00000000000E+00 -0.00000000000E+00 -0.53223864234E+02  0.53223864234E+02  0.00000000000E+00 0. -1.
         25    2    1    2    0    0 -0.32425024938E+02 -0.88831398285E+01  0.74671884074E+02  0.14943505559E+03  0.12499861261E+03 0.  0.
    9000005    1    3    3    0    0 -0.22433237708E+02  0.44765225218E+02  0.80224273573E+02  0.94573302857E+02  0.10000000000E+01 0.  0.
    9000005    1    3    3    0    0 -0.99917872293E+01 -0.53648365047E+02 -0.55523894986E+01  0.54861752737E+02  0.10000000000E+01 0.  0.
          4    1    1    2  501    0  0.32425024938E+02  0.88831398285E+01  0.20132167130E+01  0.33703981322E+02  0.12700000000E+01 0.  1.
<mgrwt>
<rscale>  1 0.12944090E+03</rscale>
<asrwt>0</asrwt>
<pdfrwt beam="2">  1       21 0.81882868E-02 0.12944090E+03</pdfrwt>
<pdfrwt beam="1">  1        4 0.19987638E-01 0.12944090E+03</pdfrwt>
<totfact> 0.10402795E+05</totfact>
</mgrwt>
</event>
<event>
 6    3  0.3813045E-003  0.1335385E+03  0.7818608E-02  0.1222298E+00
          4   -1    0    0  502    0 -0.00000000000E+00  0.00000000000E+00  0.14102522069E+02  0.14159591403E+02  0.12700000000E+01 0.  1.
         21   -1    0    0  501  502  0.00000000000E+00 -0.00000000000E+00 -0.77536079772E+03  0.77536079772E+03  0.00000000000E+00 0. -1.
         25    2    1    2    0    0  0.45204034841E+02  0.12826674143E+02 -0.33433660988E+03  0.36001875939E+03  0.12499844028E+03 0.  0.
    9000005    1    3    3    0    0  0.83916739179E+01  0.56497414289E+02 -0.73979718144E+02  0.93468586751E+02  0.10000000000E+01 0.  0.
    9000005    1    3    3    0    0  0.36812360924E+02 -0.43670740146E+02 -0.26035689174E+03  0.26655017264E+03  0.10000000000E+01 0.  0.
          4    1    1    2  501    0 -0.45204034841E+02 -0.12826674143E+02 -0.42692166578E+03  0.42950162973E+03  0.12700000000E+01 0. -1.
<mgrwt>
<rscale>  1 0.13353853E+03</rscale>
<asrwt>0</asrwt>
<pdfrwt beam="2">  1       21 0.11928623E+00 0.13353853E+03</pdfrwt>
<pdfrwt beam="1">  1        4 0.21740896E-02 0.13353853E+03</pdfrwt>
<totfact> 0.19760204E+04</totfact>
</mgrwt>
</event>
<event>
 6    3  0.3813045E-003  0.1281095E+03  0.7818608E-02  0.1230288E+00
          4   -1    0    0  502    0 -0.00000000000E+00  0.00000000000E+00  0.51175279662E+03  0.51175437247E+03  0.12700000000E+01 0.  1.
         21   -1    0    0  501  502  0.00000000000E+00 -0.00000000000E+00 -0.12615920341E+02  0.12615920341E+02  0.00000000000E+00 0.  1.
         25    2    1    2    0    0  0.26468378237E+02 -0.93208664578E+01  0.44879572989E+03  0.46672224412E+03  0.12499836958E+03 0.  0.
    9000005    1    3    3    0    0 -0.44432859253E+02 -0.57768989882E+01  0.28059342650E+03  0.28415017603E+03  0.10000000000E+01 0.  0.
    9000005    1    3    3    0    0  0.70901237490E+02 -0.35439674696E+01  0.16820230339E+03  0.18257206810E+03  0.10000000000E+01 0.  0.
          4    1    1    2  501    0 -0.26468378237E+02  0.93208664578E+01  0.50341146389E+02  0.57648048691E+02  0.12700000000E+01 0. -1.
<mgrwt>
<rscale>  1 0.12810951E+03</rscale>
<asrwt>0</asrwt>
<pdfrwt beam="2">  1       21 0.19409112E-02 0.12810951E+03</pdfrwt>
<pdfrwt beam="1">  1        4 0.78736222E-01 0.12810951E+03</pdfrwt>
<totfact> 0.75945458E+04</totfact>
</mgrwt>
</event>
<event>
 6    3  0.3813045E-003  0.1383642E+03  0.7818608E-02  0.1215547E+00
         21   -1    0    0  501  502  0.00000000000E+00  0.00000000000E+00  0.13706721237E+02  0.13706721237E+02  0.00000000000E+00 0. -1.
         -4   -1    0    0    0  501 -0.00000000000E+00 -0.00000000000E+00 -0.71779074792E+03  0.71779187143E+03  0.12700000000E+01 0. -1.
         25    2    1    2    0    0  0.57694282880E+02  0.13910701885E+02 -0.46447603466E+03  0.48464693551E+03  0.12499010928E+03 0.  0.
    9000005    1    3    3    0    0  0.84726322792E+02  0.11210203964E+02 -0.18429162112E+03  0.20314679437E+03  0.10000000000E+01 0.  0.
    9000005    1    3    3    0    0 -0.27032039912E+02  0.27004979212E+01 -0.28018441354E+03  0.28150014114E+03  0.10000000000E+01 0.  0.
         -4    1    1    2    0  502 -0.57694282880E+02 -0.13910701885E+02 -0.23960799202E+03  0.24685165716E+03  0.12700000000E+01 0.  1.
<mgrwt>
<rscale>  1 0.13836425E+03</rscale>
<asrwt>0</asrwt>
<pdfrwt beam="1">  1       21 0.21087268E-02 0.13836425E+03</pdfrwt>
<pdfrwt beam="2">  1       -4 0.11043393E+00 0.13836425E+03</pdfrwt>
<totfact> 0.31036853E+04</totfact>
</mgrwt>
</event>
<event>
 6    3  0.3813045E-003  0.1549654E+03  0.7818608E-02  0.1194501E+00
          4   -1    0    0  502    0 -0.00000000000E+00  0.00000000000E+00  0.34261223944E+03  0.34261459326E+03  0.12700000000E+01 0. -1.
         21   -1    0    0  501  502  0.00000000000E+00 -0.00000000000E+00 -0.52999417190E+02  0.52999417190E+02  0.00000000000E+00 0.  1.
         25    2    1    2    0    0 -0.68364790522E+02 -0.60955506177E+02  0.25357567123E+03  0.29717820665E+03  0.12499978861E+03 0.  0.
    9000005    1    3    3    0    0 -0.82369495052E+02 -0.40672635539E+00  0.19535979524E+03  0.21201733122E+03  0.10000000000E+01 0.  0.
    9000005    1    3    3    0    0  0.14004704531E+02 -0.60548779822E+02  0.58215875993E+02  0.85160875433E+02  0.10000000000E+01 0.  0.
          4    1    1    2  501    0  0.68364790522E+02  0.60955506177E+02  0.36037151024E+02  0.98435803803E+02  0.12700000000E+01 0.  1.
<mgrwt>
<rscale>  1 0.15496537E+03</rscale>
<asrwt>0</asrwt>
<pdfrwt beam="2">  1       21 0.81537567E-02 0.15496537E+03</pdfrwt>
<pdfrwt beam="1">  1        4 0.52710925E-01 0.15496537E+03</pdfrwt>
<totfact> 0.16675808E+04</totfact>
</mgrwt>
</event>
<event>
 6    3  0.3813045E-003  0.1273845E+03  0.7818608E-02  0.1231389E+00
          4   -1    0    0  502    0 -0.00000000000E+00  0.00000000000E+00  0.12040939440E+02  0.12107729869E+02  0.12700000000E+01 0.  1.
         21   -1    0    0  501  502  0.00000000000E+00 -0.00000000000E+00 -0.66843494519E+03  0.66843494519E+03  0.00000000000E+00 0. -1.
         25    2    1    2    0    0 -0.24510498655E+02  0.63960723951E+00 -0.33806492240E+03  0.36126819777E+03  0.12500258126E+03 0.  0.
    9000005    1    3    3    0    0 -0.37810425834E+02 -0.53950362113E+02 -0.23277400024E+03  0.24191941853E+03  0.10000000000E+01 0.  0.
    9000005    1    3    3    0    0  0.13299927178E+02  0.54589969352E+02 -0.10529092215E+03  0.11934877924E+03  0.10000000000E+01 0.  0.
          4    1    1    2  501    0  0.24510498655E+02 -0.63960723951E+00 -0.31832908336E+03  0.31927447729E+03  0.12700000000E+01 0. -1.
<mgrwt>
<rscale>  1 0.12738453E+03</rscale>
<asrwt>0</asrwt>
<pdfrwt beam="2">  1       21 0.10283619E+00 0.12738453E+03</pdfrwt>
<pdfrwt beam="1">  1        4 0.18576820E-02 0.12738453E+03</pdfrwt>
<totfact> 0.35771938E+04</totfact>
</mgrwt>
</event>
<event>
 6    3  0.3813045E-003  0.1267337E+03  0.7818608E-02  0.1232384E+00
         -4   -1    0    0    0  501 -0.00000000000E+00  0.00000000000E+00  0.47562845238E+03  0.47563014792E+03  0.12700000000E+01 0.  1.
         21   -1    0    0  501  502  0.00000000000E+00 -0.00000000000E+00 -0.14770370032E+02  0.14770370032E+02  0.00000000000E+00 0.  1.
         25    2    1    2    0    0  0.12514185430E+02 -0.16729750720E+02  0.44856978414E+03  0.46612904150E+03  0.12499977079E+03 0.  0.
    9000005    1    3    3    0    0  0.31160284908E+02 -0.13704214269E+02  0.25270148533E+02  0.42406948148E+02  0.10000000000E+01 0.  0.
    9000005    1    3    3    0    0 -0.18646099478E+02 -0.30255364513E+01  0.42329963560E+03  0.42372209336E+03  0.10000000000E+01 0.  0.
         -4    1    1    2    0  502 -0.12514185430E+02  0.16729750720E+02  0.12288298211E+02  0.24271476450E+02  0.12700000000E+01 0. -1.
<mgrwt>
<rscale>  1 0.12673371E+03</rscale>
<asrwt>0</asrwt>
<pdfrwt beam="2">  1       21 0.22723650E-02 0.12673371E+03</pdfrwt>
<pdfrwt beam="1">  1       -4 0.73177927E-01 0.12673371E+03</pdfrwt>
<totfact> 0.68973444E+04</totfact>
</mgrwt>
</event>
<event>
 6    3  0.3813045E-003  0.1280703E+03  0.7818608E-02  0.1230347E+00
         -4   -1    0    0    0  501 -0.00000000000E+00  0.00000000000E+00  0.80698547295E+02  0.80708540041E+02  0.12700000000E+01 0.  1.
         21   -1    0    0  501  502  0.00000000000E+00 -0.00000000000E+00 -0.88858899187E+02  0.88858899187E+02  0.00000000000E+00 0.  1.
         25    2    1    2    0    0  0.11656163700E+02 -0.25276006999E+02  0.20379459041E+02  0.12968164740E+03  0.12500905823E+03 0.  0.
    9000005    1    3    3    0    0  0.60152412624E+02 -0.40033271168E+02  0.29703276507E+02  0.78129765008E+02  0.10000000000E+01 0.  0.
    9000005    1    3    3    0    0 -0.48496248925E+02  0.14757264169E+02 -0.93238174666E+01  0.51551882387E+02  0.10000000000E+01 0.  0.
         -4    1    1    2    0  502 -0.11656163700E+02  0.25276006999E+02 -0.28539810933E+02  0.39885791832E+02  0.12700000000E+01 0. -1.
<mgrwt>
<rscale>  1 0.12807032E+03</rscale>
<asrwt>0</asrwt>
<pdfrwt beam="2">  1       21 0.13670600E-01 0.12807032E+03</pdfrwt>
<pdfrwt beam="1">  1       -4 0.12416628E-01 0.12807032E+03</pdfrwt>
<totfact> 0.97278384E+04</totfact>
</mgrwt>
</event>
<event>
 6    3  0.3813045E-003  0.1272897E+03  0.7818608E-02  0.1231534E+00
          4   -1    0    0  502    0 -0.00000000000E+00  0.00000000000E+00  0.67463085900E+03  0.67463205439E+03  0.12700000000E+01 0. -1.
         21   -1    0    0  501  502  0.00000000000E+00 -0.00000000000E+00 -0.11714207868E+02  0.11714207868E+02  0.00000000000E+00 0. -1.
         25    2    1    2    0    0  0.61737650676E+00 -0.24070293509E+02  0.64178099299E+03  0.65428243328E+03  0.12499159716E+03 0.  0.
    9000005    1    3    3    0    0 -0.30594757616E+01 -0.45570445022E+01 -0.48217914970E+01  0.73740572124E+01  0.10000000000E+01 0.  0.
    9000005    1    3    3    0    0  0.36768522683E+01 -0.19513249007E+02  0.64660278448E+03  0.64690837607E+03  0.10000000000E+01 0.  0.
          4    1    1    2  501    0 -0.61737650676E+00  0.24070293509E+02  0.21135658141E+02  0.32063828973E+02  0.12700000000E+01 0.  1.
<mgrwt>
<rscale>  1 0.12728967E+03</rscale>
<asrwt>0</asrwt>
<pdfrwt beam="2">  1       21 0.18021864E-02 0.12728967E+03</pdfrwt>
<pdfrwt beam="1">  1        4 0.10379472E+00 0.12728967E+03</pdfrwt>
<totfact> 0.45772197E+04</totfact>
</mgrwt>
</event>
<event>
 6    3  0.3813045E-003  0.1328405E+03  0.7818608E-02  0.1223301E+00
         21   -1    0    0  501  502  0.00000000000E+00  0.00000000000E+00  0.70147214220E+02  0.70147214220E+02  0.00000000000E+00 0. -1.
          4   -1    0    0  502    0 -0.00000000000E+00 -0.00000000000E+00 -0.17089884373E+03  0.17090356254E+03  0.12700000000E+01 0.  1.
         25    2    1    2    0    0 -0.35457302005E+02  0.27626502620E+02 -0.13122860634E+03  0.18672856280E+03  0.12500466043E+03 0.  0.
    9000005    1    3    3    0    0 -0.10089797468E+02 -0.49255231463E+02 -0.36640462850E+02  0.62220618426E+02  0.10000000000E+01 0.  0.
    9000005    1    3    3    0    0 -0.25367504537E+02  0.76881734083E+02 -0.94588143494E+02  0.12450794437E+03  0.10000000000E+01 0.  0.
          4    1    1    2  501    0  0.35457302005E+02 -0.27626502620E+02  0.30476976835E+02  0.54322213960E+02  0.12700000000E+01 0. -1.
<mgrwt>
<rscale>  1 0.13284054E+03</rscale>
<asrwt>0</asrwt>
<pdfrwt beam="1">  1       21 0.10791879E-01 0.13284054E+03</pdfrwt>
<pdfrwt beam="2">  1        4 0.26293377E-01 0.13284054E+03</pdfrwt>
<totfact> 0.39101095E+04</totfact>
</mgrwt>
</event>
<event>
 6    3  0.3813045E-003  0.1359198E+03  0.7818608E-02  0.1218927E+00
         21   -1    0    0  501  502  0.00000000000E+00  0.00000000000E+00  0.57873131046E+03  0.57873131046E+03  0.00000000000E+00 0.  1.
         -4   -1    0    0    0  501 -0.00000000000E+00 -0.00000000000E+00 -0.24736227569E+02  0.24768808093E+02  0.12700000000E+01 0. -1.
         25    2    1    2    0    0  0.36310413984E+02 -0.39131473561E+02  0.17917344713E+03  0.22489400407E+03  0.12499788208E+03 0.  0.
    9000005    1    3    3    0    0 -0.10717812871E+02 -0.74677222009E+02  0.11693594945E+03  0.13916384327E+03  0.10000000000E+01 0.  0.
    9000005    1    3    3    0    0  0.47028226855E+02  0.35545748448E+02  0.62237497676E+02  0.85730160800E+02  0.10000000000E+01 0.  0.
         -4    1    1    2    0  502 -0.36310413984E+02  0.39131473561E+02  0.37482163577E+03  0.37860611449E+03  0.12700000000E+01 0.  1.
<mgrwt>
<rscale>  1 0.13591979E+03</rscale>
<asrwt>0</asrwt>
<pdfrwt beam="1">  1       21 0.89035576E-01 0.13591979E+03</pdfrwt>
<pdfrwt beam="2">  1       -4 0.38081873E-02 0.13591979E+03</pdfrwt>
<totfact> 0.16418328E+04</totfact>
</mgrwt>
</event>
<event>
 6    3  0.3813045E-003  0.1275415E+03  0.7818608E-02  0.1231150E+00
         21   -1    0    0  501  502  0.00000000000E+00  0.00000000000E+00  0.15731513352E+03  0.15731513352E+03  0.00000000000E+00 0. -1.
         -4   -1    0    0    0  501 -0.00000000000E+00 -0.00000000000E+00 -0.37175310929E+02  0.37196997764E+02  0.12700000000E+01 0. -1.
         25    2    1    2    0    0  0.23740541634E+02 -0.88164670389E+01  0.97879005729E+02  0.16077046156E+03  0.12500199255E+03 0.  0.
    9000005    1    3    3    0    0 -0.31705423103E+02 -0.26806124203E+02  0.93497241114E+02  0.10230609095E+03  0.10000000000E+01 0.  0.
    9000005    1    3    3    0    0  0.55445964737E+02  0.17989657165E+02  0.43817646154E+01  0.58464370617E+02  0.10000000000E+01 0.  0.
         -4    1    1    2    0  502 -0.23740541634E+02  0.88164670389E+01  0.22260816860E+02  0.33741669719E+02  0.12700000000E+01 0.  1.
<mgrwt>
<rscale>  1 0.12754153E+03</rscale>
<asrwt>0</asrwt>
<pdfrwt beam="1">  1       21 0.24202328E-01 0.12754153E+03</pdfrwt>
<pdfrwt beam="2">  1       -4 0.57213413E-02 0.12754153E+03</pdfrwt>
<totfact> 0.12370807E+05</totfact>
</mgrwt>
</event>
<event>
 6    3  0.3813045E-003  0.1387411E+03  0.7818608E-02  0.1215033E+00
         21   -1    0    0  501  502  0.00000000000E+00  0.00000000000E+00  0.13179439020E+03  0.13179439020E+03  0.00000000000E+00 0. -1.
          4   -1    0    0  502    0 -0.00000000000E+00 -0.00000000000E+00 -0.12259640426E+03  0.12260298217E+03  0.12700000000E+01 0.  1.
         25    2    1    2    0    0  0.54617866282E+02 -0.25320566250E+02 -0.69604760070E+02  0.15522213317E+03  0.12499938243E+03 0.  0.
    9000005    1    3    3    0    0  0.72199416626E+02 -0.61360492504E+02 -0.31391216318E+02  0.99821211491E+02  0.10000000000E+01 0.  0.
    9000005    1    3    3    0    0 -0.17581550344E+02  0.36039926254E+02 -0.38213543752E+02  0.55400921680E+02  0.10000000000E+01 0.  0.
          4    1    1    2  501    0 -0.54617866282E+02  0.25320566250E+02  0.78802746014E+02  0.99175239207E+02  0.12700000000E+01 0. -1.
<mgrwt>
<rscale>  1 0.13874108E+03</rscale>
<asrwt>0</asrwt>
<pdfrwt beam="1">  1       21 0.20276060E-01 0.13874108E+03</pdfrwt>
<pdfrwt beam="2">  1        4 0.18861962E-01 0.13874108E+03</pdfrwt>
<totfact> 0.23055681E+04</totfact>
</mgrwt>
</event>
<event>
 6    3  0.3813045E-003  0.1289690E+03  0.7818608E-02  0.1228994E+00
         -4   -1    0    0    0  501 -0.00000000000E+00  0.00000000000E+00  0.29268216458E+03  0.29268491995E+03  0.12700000000E+01 0. -1.
         21   -1    0    0  501  502  0.00000000000E+00 -0.00000000000E+00 -0.56568095622E+02  0.56568095622E+02  0.00000000000E+00 0.  1.
         25    2    1    2    0    0 -0.31620177548E+02 -0.30710912862E+01  0.27217054080E+03  0.30118068162E+03  0.12499492979E+03 0.  0.
    9000005    1    3    3    0    0 -0.44812522604E+02  0.19269985910E+01  0.28096630907E+03  0.28452582017E+03  0.10000000000E+01 0.  0.
    9000005    1    3    3    0    0  0.13192345056E+02 -0.49980898772E+01 -0.87957682772E+01  0.16654861455E+02  0.10000000000E+01 0.  0.
         -4    1    1    2    0  502  0.31620177548E+02  0.30710912862E+01 -0.36056471838E+02  0.48072333948E+02  0.12700000000E+01 0.  1.
<mgrwt>
<rscale>  1 0.12896899E+03</rscale>
<asrwt>0</asrwt>
<pdfrwt beam="2">  1       21 0.87027841E-02 0.12896899E+03</pdfrwt>
<pdfrwt beam="1">  1       -4 0.45029333E-01 0.12896899E+03</pdfrwt>
<totfact> 0.20134658E+04</totfact>
</mgrwt>
</event>
<event>
 6    3  0.3813045E-003  0.1279162E+03  0.7818608E-02  0.1230581E+00
         21   -1    0    0  501  502  0.00000000000E+00  0.00000000000E+00  0.28856768244E+02  0.28856768244E+02  0.00000000000E+00 0. -1.
         -4   -1    0    0    0  501 -0.00000000000E+00 -0.00000000000E+00 -0.47617324991E+03  0.47617494351E+03  0.12700000000E+01 0. -1.
         25    2    1    2    0    0  0.26355801005E+02  0.65296728196E+01 -0.45822340239E+03  0.47574282831E+03  0.12500114929E+03 0.  0.
    9000005    1    3    3    0    0  0.50945687233E+02  0.90923450836E+00 -0.44370407637E+03  0.44662131291E+03  0.10000000000E+01 0.  0.
    9000005    1    3    3    0    0 -0.24589886227E+02  0.56204383113E+01 -0.14519326012E+02  0.29121515402E+02  0.10000000000E+01 0.  0.
         -4    1    1    2    0  502 -0.26355801005E+02 -0.65296728196E+01  0.10906920721E+02  0.29288883444E+02  0.12700000000E+01 0.  1.
<mgrwt>
<rscale>  1 0.12791619E+03</rscale>
<asrwt>0</asrwt>
<pdfrwt beam="1">  1       21 0.44395028E-02 0.12791619E+03</pdfrwt>
<pdfrwt beam="2">  1       -4 0.73259703E-01 0.12791619E+03</pdfrwt>
<totfact> 0.22908275E+04</totfact>
</mgrwt>
</event>
<event>
 6    3  0.3813045E-003  0.1296569E+03  0.7818608E-02  0.1227966E+00
          4   -1    0    0  502    0 -0.00000000000E+00  0.00000000000E+00  0.10172243772E+04  0.10172251700E+04  0.12700000000E+01 0.  1.
         21   -1    0    0  501  502  0.00000000000E+00 -0.00000000000E+00 -0.94543433244E+01  0.94543433244E+01  0.00000000000E+00 0. -1.
         25    2    1    2    0    0 -0.25589935452E+02 -0.23051287441E+02  0.95427897248E+03  0.96304687077E+03  0.12499884532E+03 0.  0.
    9000005    1    3    3    0    0 -0.22458429460E+02  0.72273163194E+01  0.29594346624E+02  0.37860804364E+02  0.10000000000E+01 0.  0.
    9000005    1    3    3    0    0 -0.31315059917E+01 -0.30278603760E+02  0.92468462585E+03  0.92518606640E+03  0.10000000000E+01 0.  0.
          4    1    1    2  501    0  0.25589935452E+02  0.23051287441E+02  0.53491061420E+02  0.63632642574E+02  0.12700000000E+01 0. -1.
<mgrwt>
<rscale>  1 0.12965692E+03</rscale>
<asrwt>0</asrwt>
<pdfrwt beam="2">  1       21 0.14545152E-02 0.12965692E+03</pdfrwt>
<pdfrwt beam="1">  1        4 0.15650259E+00 0.12965692E+03</pdfrwt>
<totfact> 0.23745867E+04</totfact>
</mgrwt>
</event>
<event>
 6    3  0.3813045E-003  0.1515305E+03  0.7818608E-02  0.1198605E+00
         -4   -1    0    0    0  501 -0.00000000000E+00  0.00000000000E+00  0.25964310619E+04  0.25964313725E+04  0.12700000000E+01 0. -1.
         21   -1    0    0  501  502  0.00000000000E+00 -0.00000000000E+00 -0.56273254654E+01  0.56273254654E+01  0.00000000000E+00 0.  1.
         25    2    1    2    0    0  0.79327989188E+02 -0.32312633159E+02  0.13997228472E+04  0.14079011146E+04  0.12499785437E+03 0.  0.
    9000005    1    3    3    0    0  0.14387748158E+02 -0.26503504305E+02  0.65833275244E+02  0.72418665873E+02  0.10000000000E+01 0.  0.
    9000005    1    3    3    0    0  0.64940241030E+02 -0.58091288543E+01  0.13338895719E+04  0.13354824488E+04  0.10000000000E+01 0.  0.
         -4    1    1    2    0  502 -0.79327989188E+02  0.32312633159E+02  0.11910808893E+04  0.11941575833E+04  0.12700000000E+01 0.  1.
<mgrwt>
<rscale>  1 0.15153052E+03</rscale>
<asrwt>0</asrwt>
<pdfrwt beam="2">  1       21 0.86574445E-03 0.15153052E+03</pdfrwt>
<pdfrwt beam="1">  1       -4 0.39946102E+00 0.15153052E+03</pdfrwt>
<totfact> 0.17891665E+03</totfact>
</mgrwt>
</event>
<event>
 6    3  0.3813045E-003  0.1274330E+03  0.7818608E-02  0.1231315E+00
         -4   -1    0    0    0  501 -0.00000000000E+00  0.00000000000E+00  0.39003885979E+02  0.39024556647E+02  0.12700000000E+01 0. -1.
         21   -1    0    0  501  502  0.00000000000E+00 -0.00000000000E+00 -0.25432650831E+03  0.25432650831E+03  0.00000000000E+00 0. -1.
         25    2    1    2    0    0  0.21493568576E+02 -0.12331021589E+02 -0.68950383682E+02  0.14489072436E+03  0.12500055605E+03 0.  0.
    9000005    1    3    3    0    0 -0.41762633374E+02 -0.23289517884E+02  0.36558731871E+01  0.47967536922E+02  0.10000000000E+01 0.  0.
    9000005    1    3    3    0    0  0.63256201951E+02  0.10958496295E+02 -0.72606256869E+02  0.96923187436E+02  0.10000000000E+01 0.  0.
         -4    1    1    2    0  502 -0.21493568576E+02  0.12331021589E+02 -0.14637223865E+03  0.14846034060E+03  0.12700000000E+01 0.  1.
<mgrwt>
<rscale>  1 0.12743299E+03</rscale>
<asrwt>0</asrwt>
<pdfrwt beam="2">  1       21 0.39127156E-01 0.12743299E+03</pdfrwt>
<pdfrwt beam="1">  1       -4 0.60024317E-02 0.12743299E+03</pdfrwt>
<totfact> 0.45179189E+04</totfact>
</mgrwt>
</event>
<event>
 6    3  0.3813045E-003  0.1561892E+03  0.7818608E-02  0.1193068E+00
          4   -1    0    0  502    0 -0.00000000000E+00  0.00000000000E+00  0.59840420551E+01  0.61173245228E+01  0.12700000000E+01 0.  1.
         21   -1    0    0  501  502  0.00000000000E+00 -0.00000000000E+00 -0.28063758429E+04  0.28063758429E+04  0.00000000000E+00 0. -1.
         25    2    1    2    0    0  0.91439375127E+02  0.20227319747E+02 -0.13337965704E+04  0.13429104081E+04  0.12499907618E+03 0.  0.
    9000005    1    3    3    0    0  0.35179102086E+02  0.55955334342E+02 -0.10186386093E+04  0.10207811641E+04  0.10000000000E+01 0.  0.
    9000005    1    3    3    0    0  0.56260273041E+02 -0.35728014594E+02 -0.31515796114E+03  0.32212924397E+03  0.10000000000E+01 0.  0.
          4    1    1    2  501    0 -0.91439375127E+02 -0.20227319747E+02 -0.14665952304E+04  0.14695827593E+04  0.12700000000E+01 0. -1.
<mgrwt>
<rscale>  1 0.15618922E+03</rscale>
<asrwt>0</asrwt>
<pdfrwt beam="2">  1       21 0.43174959E+00 0.15618922E+03</pdfrwt>
<pdfrwt beam="1">  1        4 0.93089763E-03 0.15618922E+03</pdfrwt>
<totfact> 0.78155439E+02</totfact>
</mgrwt>
</event>
<event>
 6    3  0.3813045E-003  0.1266031E+03  0.7818608E-02  0.1232585E+00
         21   -1    0    0  501  502  0.00000000000E+00  0.00000000000E+00  0.13074388876E+02  0.13074388876E+02  0.00000000000E+00 0.  1.
         -4   -1    0    0    0  501 -0.00000000000E+00 -0.00000000000E+00 -0.53504372792E+03  0.53504523518E+03  0.12700000000E+01 0. -1.
         25    2    1    2    0    0 -0.72487656823E+01 -0.18737228350E+02 -0.50819505930E+03  0.52372757591E+03  0.12499890856E+03 0.  0.
    9000005    1    3    3    0    0 -0.50563968408E+02 -0.19693507181E+02 -0.43716227532E+03  0.44051833570E+03  0.10000000000E+01 0.  0.
    9000005    1    3    3    0    0  0.43315202725E+02  0.95627883096E+00 -0.71032783986E+02  0.83209240215E+02  0.10000000000E+01 0.  0.
         -4    1    1    2    0  502  0.72487656823E+01  0.18737228350E+02 -0.13774279741E+02  0.24392048141E+02  0.12700000000E+01 0.  1.
<mgrwt>
<rscale>  1 0.12660314E+03</rscale>
<asrwt>0</asrwt>
<pdfrwt beam="1">  1       21 0.20114449E-02 0.12660314E+03</pdfrwt>
<pdfrwt beam="2">  1       -4 0.82319263E-01 0.12660314E+03</pdfrwt>
<totfact> 0.64871328E+04</totfact>
</mgrwt>
</event>
<event>
 6    3  0.3813045E-003  0.1284857E+03  0.7818608E-02  0.1229720E+00
         21   -1    0    0  501  502  0.00000000000E+00  0.00000000000E+00  0.10590263232E+04  0.10590263232E+04  0.00000000000E+00 0. -1.
          4   -1    0    0  502    0 -0.00000000000E+00 -0.00000000000E+00 -0.17065725073E+02  0.17112915364E+02  0.12700000000E+01 0.  1.
         25    2    1    2    0    0  0.69669959046E+01 -0.28889192962E+02  0.22859047320E+03  0.26222542401E+03  0.12500177621E+03 0.  0.
    9000005    1    3    3    0    0  0.60969553933E+02 -0.13631022956E+02  0.69164486386E+02  0.93208462441E+02  0.10000000000E+01 0.  0.
    9000005    1    3    3    0    0 -0.54002558028E+02 -0.15258170005E+02  0.15942598681E+03  0.16901696157E+03  0.10000000000E+01 0.  0.
          4    1    1    2  501    0 -0.69669959046E+01  0.28889192962E+02  0.81337012495E+03  0.81391381458E+03  0.12700000000E+01 0. -1.
<mgrwt>
<rscale>  1 0.12848567E+03</rscale>
<asrwt>0</asrwt>
<pdfrwt beam="1">  1       21 0.16292707E+00 0.12848567E+03</pdfrwt>
<pdfrwt beam="2">  1        4 0.26291856E-02 0.12848567E+03</pdfrwt>
<totfact> 0.66468933E+03</totfact>
</mgrwt>
</event>
<event>
 6    3  0.3813045E-003  0.1266568E+03  0.7818608E-02  0.1232502E+00
          4   -1    0    0  502    0 -0.00000000000E+00  0.00000000000E+00  0.94329499616E+02  0.94338048516E+02  0.12700000000E+01 0. -1.
         21   -1    0    0  501  502  0.00000000000E+00 -0.00000000000E+00 -0.64149999311E+02  0.64149999311E+02  0.00000000000E+00 0. -1.
         25    2    1    2    0    0 -0.14146560651E+02  0.14733311940E+02  0.43673241809E+02  0.13397499786E+03  0.12499900936E+03 0.  0.
    9000005    1    3    3    0    0 -0.51737857879E+02 -0.29529668066E+02 -0.27169662339E+01  0.59642175845E+02  0.10000000000E+01 0.  0.
    9000005    1    3    3    0    0  0.37591297227E+02  0.44262980006E+02  0.46390208043E+02  0.74332822014E+02  0.10000000000E+01 0.  0.
          4    1    1    2  501    0  0.14146560651E+02 -0.14733311940E+02 -0.13493741504E+02  0.24513049968E+02  0.12700000000E+01 0.  1.
<mgrwt>
<rscale>  1 0.12665681E+03</rscale>
<asrwt>0</asrwt>
<pdfrwt beam="2">  1       21 0.98692306E-02 0.12665681E+03</pdfrwt>
<pdfrwt beam="1">  1        4 0.14513855E-01 0.12665681E+03</pdfrwt>
<totfact> 0.13195655E+05</totfact>
</mgrwt>
</event>
<event>
 6    3  0.3813045E-003  0.1278346E+03  0.7818608E-02  0.1230705E+00
         21   -1    0    0  501  502  0.00000000000E+00  0.00000000000E+00  0.22004489126E+03  0.22004489126E+03  0.00000000000E+00 0. -1.
         -4   -1    0    0    0  501 -0.00000000000E+00 -0.00000000000E+00 -0.45954544732E+02  0.45972090245E+02  0.12700000000E+01 0.  1.
         25    2    1    2    0    0 -0.13558288903E+02 -0.23030826045E+02  0.47094916808E+02  0.13623370748E+03  0.12500978249E+03 0.  0.
    9000005    1    3    3    0    0 -0.43524193068E+02 -0.34222597913E+02 -0.22391125021E+02  0.59731935092E+02  0.10000000000E+01 0.  0.
    9000005    1    3    3    0    0  0.29965904165E+02  0.11191771868E+02  0.69486041828E+02  0.76501772391E+02  0.10000000000E+01 0.  0.
         -4    1    1    2    0  502  0.13558288903E+02  0.23030826045E+02  0.12699542972E+03  0.12978327402E+03  0.12700000000E+01 0. -1.
<mgrwt>
<rscale>  1 0.12783463E+03</rscale>
<asrwt>0</asrwt>
<pdfrwt beam="1">  1       21 0.33853059E-01 0.12783463E+03</pdfrwt>
<pdfrwt beam="2">  1       -4 0.70715617E-02 0.12783463E+03</pdfrwt>
<totfact> 0.46027936E+04</totfact>
</mgrwt>
</event>
<event>
 6    3  0.3813045E-003  0.1289013E+03  0.7818608E-02  0.1229095E+00
         -4   -1    0    0    0  501 -0.00000000000E+00  0.00000000000E+00  0.44346506312E+03  0.44346688164E+03  0.12700000000E+01 0. -1.
         21   -1    0    0  501  502  0.00000000000E+00 -0.00000000000E+00 -0.31601317106E+02  0.31601317106E+02  0.00000000000E+00 0.  1.
         25    2    1    2    0    0 -0.10877134202E+02  0.29523161658E+02  0.42258271689E+03  0.44180503053E+03  0.12500241305E+03 0.  0.
    9000005    1    3    3    0    0 -0.16289073440E+02  0.74245074224E+02  0.18538368588E+03  0.20036410844E+03  0.10000000000E+01 0.  0.
    9000005    1    3    3    0    0  0.54119392380E+01 -0.44721912565E+02  0.23719903101E+03  0.24144092210E+03  0.10000000000E+01 0.  0.
         -4    1    1    2    0  502  0.10877134202E+02 -0.29523161658E+02 -0.10718970875E+02  0.33263168210E+02  0.12700000000E+01 0.  1.
<mgrwt>
<rscale>  1 0.12890125E+03</rscale>
<asrwt>0</asrwt>
<pdfrwt beam="2">  1       21 0.48617414E-02 0.12890125E+03</pdfrwt>
<pdfrwt beam="1">  1       -4 0.68227493E-01 0.12890125E+03</pdfrwt>
<totfact> 0.22965550E+04</totfact>
</mgrwt>
</event>
<event>
 6    3  0.3813045E-003  0.1283255E+03  0.7818608E-02  0.1229962E+00
          4   -1    0    0  502    0 -0.00000000000E+00  0.00000000000E+00  0.56914472441E+03  0.56914614136E+03  0.12700000000E+01 0. -1.
         21   -1    0    0  501  502  0.00000000000E+00 -0.00000000000E+00 -0.10883304982E+02  0.10883304982E+02  0.00000000000E+00 0.  1.
         25    2    1    2    0    0 -0.83088697790E+01 -0.27826699457E+02  0.45177053912E+03  0.46964247696E+03  0.12499629447E+03 0.  0.
    9000005    1    3    3    0    0 -0.51317040413E+02 -0.22751085924E+02  0.95747821118E+02  0.11099412505E+03  0.10000000000E+01 0.  0.
    9000005    1    3    3    0    0  0.43008170634E+02 -0.50756135327E+01  0.35602271800E+03  0.35864835191E+03  0.10000000000E+01 0.  0.
          4    1    1    2  501    0  0.83088697790E+01  0.27826699457E+02  0.10649088031E+03  0.11038696938E+03  0.12700000000E+01 0.  1.
<mgrwt>
<rscale>  1 0.12832551E+03</rscale>
<asrwt>0</asrwt>
<pdfrwt beam="2">  1       21 0.16743551E-02 0.12832551E+03</pdfrwt>
<pdfrwt beam="1">  1        4 0.87566512E-01 0.12832551E+03</pdfrwt>
<totfact> 0.76049707E+04</totfact>
</mgrwt>
</event>
<event>
 6    3  0.3813045E-003  0.1329133E+03  0.7818608E-02  0.1223196E+00
         21   -1    0    0  501  502  0.00000000000E+00  0.00000000000E+00  0.19734992556E+02  0.19734992556E+02  0.00000000000E+00 0.  1.
         -4   -1    0    0    0  501 -0.00000000000E+00 -0.00000000000E+00 -0.51756821773E+03  0.51756977588E+03  0.12700000000E+01 0. -1.
         25    2    1    2    0    0 -0.27008043585E+02 -0.36234609384E+02 -0.45850872559E+03  0.47738473420E+03  0.12499420654E+03 0.  0.
    9000005    1    3    3    0    0 -0.61192357838E+02 -0.53532018081E+02 -0.39439965795E+03  0.40269376927E+03  0.10000000000E+01 0.  0.
    9000005    1    3    3    0    0  0.34184314253E+02  0.17297408698E+02 -0.64109067642E+02  0.74690964933E+02  0.10000000000E+01 0.  0.
         -4    1    1    2    0  502  0.27008043585E+02  0.36234609384E+02 -0.39324499589E+02  0.59920034240E+02  0.12700000000E+01 0.  1.
<mgrwt>
<rscale>  1 0.13291325E+03</rscale>
<asrwt>0</asrwt>
<pdfrwt beam="1">  1       21 0.30361528E-02 0.13291325E+03</pdfrwt>
<pdfrwt beam="2">  1       -4 0.79629140E-01 0.13291325E+03</pdfrwt>
<totfact> 0.35962262E+04</totfact>
</mgrwt>
</event>
<event>
 6    3  0.3813045E-003  0.1324610E+03  0.7818608E-02  0.1223849E+00
         21   -1    0    0  501  502  0.00000000000E+00  0.00000000000E+00  0.72410935937E+02  0.72410935937E+02  0.00000000000E+00 0. -1.
          4   -1    0    0  502    0 -0.00000000000E+00 -0.00000000000E+00 -0.11158785843E+03  0.11159508523E+03  0.12700000000E+01 0. -1.
         25    2    1    2    0    0 -0.20948475414E+02  0.38496581292E+02 -0.13381622029E+02  0.13313524548E+03  0.12500040155E+03 0.  0.
    9000005    1    3    3    0    0 -0.27520186003E+01 -0.40689044793E+02 -0.29440170227E+02  0.50308007271E+02  0.10000000000E+01 0.  0.
    9000005    1    3    3    0    0 -0.18196456814E+02  0.79185626085E+02  0.16058548198E+02  0.82827238209E+02  0.10000000000E+01 0.  0.
          4    1    1    2  501    0  0.20948475414E+02 -0.38496581292E+02 -0.25795300460E+02  0.50870775689E+02  0.12700000000E+01 0.  1.
<mgrwt>
<rscale>  1 0.13246103E+03</rscale>
<asrwt>0</asrwt>
<pdfrwt beam="1">  1       21 0.11140144E-01 0.13246103E+03</pdfrwt>
<pdfrwt beam="2">  1        4 0.17168776E-01 0.13246103E+03</pdfrwt>
<totfact> 0.79980677E+04</totfact>
</mgrwt>
</event>
<event>
 6    3  0.3813045E-003  0.1657919E+03  0.7818608E-02  0.1182309E+00
         -4   -1    0    0    0  501 -0.00000000000E+00  0.00000000000E+00  0.33206749184E+02  0.33231026035E+02  0.12700000000E+01 0. -1.
         21   -1    0    0  501  502  0.00000000000E+00 -0.00000000000E+00 -0.15392504986E+04  0.15392504986E+04  0.00000000000E+00 0.  1.
         25    2    1    2    0    0 -0.83566634857E+02  0.69845421518E+02 -0.19093379643E+03  0.25286886680E+03  0.12500073524E+03 0.  0.
    9000005    1    3    3    0    0 -0.53655147702E+02 -0.15616404190E+02 -0.19870495199E+02  0.59317649432E+02  0.10000000000E+01 0.  0.
    9000005    1    3    3    0    0 -0.29911487156E+02  0.85461825709E+02 -0.17106330123E+03  0.19355121737E+03  0.10000000000E+01 0.  0.
         -4    1    1    2    0  502  0.83566634857E+02 -0.69845421518E+02 -0.13151099530E+04  0.13196126579E+04  0.12700000000E+01 0.  1.
<mgrwt>
<rscale>  1 0.16579189E+03</rscale>
<asrwt>0</asrwt>
<pdfrwt beam="2">  1       21 0.23680781E+00 0.16579189E+03</pdfrwt>
<pdfrwt beam="1">  1       -4 0.51106375E-02 0.16579189E+03</pdfrwt>
<totfact> 0.77987934E+02</totfact>
</mgrwt>
</event>
<event>
 6    3  0.3813045E-003  0.1311908E+03  0.7818608E-02  0.1225699E+00
         -4   -1    0    0    0  501 -0.00000000000E+00  0.00000000000E+00  0.36817093950E+03  0.36817312992E+03  0.12700000000E+01 0.  1.
         21   -1    0    0  501  502  0.00000000000E+00 -0.00000000000E+00 -0.22621887180E+02  0.22621887180E+02  0.00000000000E+00 0.  1.
         25    2    1    2    0    0  0.23486378678E+02  0.32161201339E+02  0.31287585472E+03  0.33926731972E+03  0.12500024365E+03 0.  0.
    9000005    1    3    3    0    0 -0.16097941233E+00  0.68656626737E+02  0.95739495514E+02  0.11781684646E+03  0.10000000000E+01 0.  0.
    9000005    1    3    3    0    0  0.23647358090E+02 -0.36495425398E+02  0.21713635920E+03  0.22145047326E+03  0.10000000000E+01 0.  0.
         -4    1    1    2    0  502 -0.23486378678E+02 -0.32161201339E+02  0.32673197607E+02  0.51527697376E+02  0.12700000000E+01 0. -1.
<mgrwt>
<rscale>  1 0.13119075E+03</rscale>
<asrwt>0</asrwt>
<pdfrwt beam="2">  1       21 0.34802906E-02 0.13119075E+03</pdfrwt>
<pdfrwt beam="1">  1       -4 0.56644589E-01 0.13119075E+03</pdfrwt>
<totfact> 0.59454896E+04</totfact>
</mgrwt>
</event>
<event>
 6    3  0.3813045E-003  0.1297731E+03  0.7818608E-02  0.1227793E+00
         -4   -1    0    0    0  501 -0.00000000000E+00  0.00000000000E+00  0.12273035059E+03  0.12273692132E+03  0.12700000000E+01 0.  1.
         21   -1    0    0  501  502  0.00000000000E+00 -0.00000000000E+00 -0.57710361490E+02  0.57710361490E+02  0.00000000000E+00 0.  1.
         25    2    1    2    0    0  0.32172974728E+02  0.13462408143E+02  0.65879713600E+02  0.14553755978E+03  0.12499883162E+03 0.  0.
    9000005    1    3    3    0    0  0.49605971270E+02  0.36696598908E+02  0.89066795651E+02  0.10835721870E+03  0.10000000000E+01 0.  0.
    9000005    1    3    3    0    0 -0.17432996542E+02 -0.23234190766E+02 -0.23187082050E+02  0.37180341082E+02  0.10000000000E+01 0.  0.
         -4    1    1    2    0  502 -0.32172974728E+02 -0.13462408143E+02 -0.85972450035E+00  0.34909723031E+02  0.12700000000E+01 0. -1.
<mgrwt>
<rscale>  1 0.12977305E+03</rscale>
<asrwt>0</asrwt>
<pdfrwt beam="2">  1       21 0.88785172E-02 0.12977305E+03</pdfrwt>
<pdfrwt beam="1">  1       -4 0.18883173E-01 0.12977305E+03</pdfrwt>
<totfact> 0.10016129E+05</totfact>
</mgrwt>
</event>
<event>
 6    3  0.3813045E-003  0.1266076E+03  0.7818608E-02  0.1232578E+00
          4   -1    0    0  502    0 -0.00000000000E+00  0.00000000000E+00  0.15229947876E+02  0.15282807737E+02  0.12700000000E+01 0.  1.
         21   -1    0    0  501  502  0.00000000000E+00 -0.00000000000E+00 -0.51565461029E+03  0.51565461029E+03  0.00000000000E+00 0.  1.
         25    2    1    2    0    0  0.18002257553E+02 -0.89359872835E+01 -0.25512653012E+03  0.28481403484E+03  0.12500221968E+03 0.  0.
    9000005    1    3    3    0    0  0.33187313506E+02 -0.11660499520E+02 -0.26443621132E+03  0.26676745469E+03  0.10000000000E+01 0.  0.
    9000005    1    3    3    0    0 -0.15185055953E+02  0.27245122370E+01  0.93096811923E+01  0.18046580151E+02  0.10000000000E+01 0.  0.
          4    1    1    2  501    0 -0.18002257553E+02  0.89359872835E+01 -0.24529813229E+03  0.24612338319E+03  0.12700000000E+01 0. -1.
<mgrwt>
<rscale>  1 0.12660761E+03</rscale>
<asrwt>0</asrwt>
<pdfrwt beam="2">  1       21 0.79331467E-01 0.12660761E+03</pdfrwt>
<pdfrwt beam="1">  1        4 0.23472557E-02 0.12660761E+03</pdfrwt>
<totfact> 0.45158461E+04</totfact>
</mgrwt>
</event>
<event>
 6    3  0.3813045E-003  0.1305743E+03  0.7818608E-02  0.1226606E+00
         21   -1    0    0  501  502  0.00000000000E+00  0.00000000000E+00  0.41022116217E+02  0.41022116217E+02  0.00000000000E+00 0.  1.
          4   -1    0    0  502    0 -0.00000000000E+00 -0.00000000000E+00 -0.52014886321E+03  0.52015041363E+03  0.12700000000E+01 0. -1.
         25    2    1    2    0    0 -0.19544213704E+01 -0.37714825205E+02 -0.50084698509E+03  0.51758802060E+03  0.12499371503E+03 0.  0.
    9000005    1    3    3    0    0  0.42769249846E+02 -0.64918611363E+02 -0.27742139488E+03  0.28810981443E+03  0.10000000000E+01 0.  0.
    9000005    1    3    3    0    0 -0.44723671216E+02  0.27203786159E+02 -0.22342559021E+03  0.22947820618E+03  0.10000000000E+01 0.  0.
          4    1    1    2  501    0  0.19544213704E+01  0.37714825205E+02  0.21720238094E+02  0.43584509243E+02  0.12700000000E+01 0.  1.
<mgrwt>
<rscale>  1 0.13057433E+03</rscale>
<asrwt>0</asrwt>
<pdfrwt beam="1">  1       21 0.63110948E-02 0.13057433E+03</pdfrwt>
<pdfrwt beam="2">  1        4 0.80024534E-01 0.13057433E+03</pdfrwt>
<totfact> 0.10460280E+04</totfact>
</mgrwt>
</event>
<event>
 6    3  0.3813045E-003  0.1321346E+03  0.7818608E-02  0.1224322E+00
          4   -1    0    0  502    0 -0.00000000000E+00  0.00000000000E+00  0.20678388220E+03  0.20678778213E+03  0.12700000000E+01 0.  1.
         21   -1    0    0  501  502  0.00000000000E+00 -0.00000000000E+00 -0.85861225832E+02  0.85861225832E+02  0.00000000000E+00 0. -1.
         25    2    1    2    0    0  0.35477852731E+02  0.23992882358E+02  0.17774708088E+03  0.22148044355E+03  0.12500090271E+03 0.  0.
    9000005    1    3    3    0    0  0.45731468051E+02  0.13719627650E+02  0.48823210605E+01  0.48004504079E+02  0.10000000000E+01 0.  0.
    9000005    1    3    3    0    0 -0.10253615319E+02  0.10273254708E+02  0.17286475982E+03  0.17347593947E+03  0.10000000000E+01 0.  0.
          4    1    1    2  501    0 -0.35477852731E+02 -0.23992882358E+02 -0.56824424514E+02  0.71168564406E+02  0.12700000000E+01 0. -1.
<mgrwt>
<rscale>  1 0.13213464E+03</rscale>
<asrwt>0</asrwt>
<pdfrwt beam="2">  1       21 0.13209419E-01 0.13213464E+03</pdfrwt>
<pdfrwt beam="1">  1        4 0.31813927E-01 0.13213464E+03</pdfrwt>
<totfact> 0.19087051E+04</totfact>
</mgrwt>
</event>
<event>
 6    3  0.3813045E-003  0.1458966E+03  0.7818608E-02  0.1205608E+00
          4   -1    0    0  502    0 -0.00000000000E+00  0.00000000000E+00  0.70598518944E+02  0.70609941064E+02  0.12700000000E+01 0.  1.
         21   -1    0    0  501  502  0.00000000000E+00 -0.00000000000E+00 -0.18176205507E+03  0.18176205507E+03  0.00000000000E+00 0.  1.
         25    2    1    2    0    0  0.73727273961E+02  0.15000613660E+02 -0.46417098142E+02  0.15310244659E+03  0.12500033126E+03 0.  0.
    9000005    1    3    3    0    0 -0.18530214381E+02 -0.35969310448E+02 -0.13915248946E+02  0.42799466029E+02  0.10000000000E+01 0.  0.
    9000005    1    3    3    0    0  0.92257488342E+02  0.50969924108E+02 -0.32501849196E+02  0.11030298056E+03  0.10000000000E+01 0.  0.
          4    1    1    2  501    0 -0.73727273961E+02 -0.15000613660E+02 -0.64746437986E+02  0.99269549550E+02  0.12700000000E+01 0. -1.
<mgrwt>
<rscale>  1 0.14589658E+03</rscale>
<asrwt>0</asrwt>
<pdfrwt beam="2">  1       21 0.27963393E-01 0.14589658E+03</pdfrwt>
<pdfrwt beam="1">  1        4 0.10862530E-01 0.14589658E+03</pdfrwt>
<totfact> 0.33030763E+04</totfact>
</mgrwt>
</event>
<event>
 6    3  0.3813045E-003  0.1322391E+03  0.7818608E-02  0.1224171E+00
         21   -1    0    0  501  502  0.00000000000E+00  0.00000000000E+00  0.44330566950E+02  0.44330566950E+02  0.00000000000E+00 0.  1.
          4   -1    0    0  502    0 -0.00000000000E+00 -0.00000000000E+00 -0.19716545796E+03  0.19716954813E+03  0.12700000000E+01 0. -1.
         25    2    1    2    0    0 -0.42643524869E+02 -0.66387152017E+01 -0.14733284152E+03  0.19797508549E+03  0.12499850212E+03 0.  0.
    9000005    1    3    3    0    0  0.60564767890E+01  0.52053600695E+02 -0.38317105112E+02  0.64926564675E+02  0.10000000000E+01 0.  0.
    9000005    1    3    3    0    0 -0.48700001658E+02 -0.58692315896E+02 -0.10901573640E+03  0.13304852081E+03  0.10000000000E+01 0.  0.
          4    1    1    2  501    0  0.42643524869E+02  0.66387152017E+01 -0.55020494900E+01  0.43525029596E+02  0.12700000000E+01 0.  1.
<mgrwt>
<rscale>  1 0.13223906E+03</rscale>
<asrwt>0</asrwt>
<pdfrwt beam="1">  1       21 0.68200871E-02 0.13223906E+03</pdfrwt>
<pdfrwt beam="2">  1        4 0.30334862E-01 0.13223906E+03</pdfrwt>
<totfact> 0.66229975E+04</totfact>
</mgrwt>
</event>
<event>
 6    3  0.3813045E-003  0.1274225E+03  0.7818608E-02  0.1231331E+00
         21   -1    0    0  501  502  0.00000000000E+00  0.00000000000E+00  0.34799136288E+03  0.34799136288E+03  0.00000000000E+00 0. -1.
         -4   -1    0    0    0  501 -0.00000000000E+00 -0.00000000000E+00 -0.29038726088E+02  0.29066484356E+02  0.12700000000E+01 0. -1.
         25    2    1    2    0    0  0.10425739871E+02  0.22485791467E+02  0.11513236905E+03  0.17173220025E+03  0.12498871681E+03 0.  0.
    9000005    1    3    3    0    0  0.42857631787E+02  0.47126038883E+02  0.17694362152E+02  0.66119063780E+02  0.10000000000E+01 0.  0.
    9000005    1    3    3    0    0 -0.32431891916E+02 -0.24640247415E+02  0.97438006899E+02  0.10561313647E+03  0.10000000000E+01 0.  0.
         -4    1    1    2    0  502 -0.10425739871E+02 -0.22485791467E+02  0.20382026774E+03  0.20532564699E+03  0.12700000000E+01 0.  1.
<mgrwt>
<rscale>  1 0.12742247E+03</rscale>
<asrwt>0</asrwt>
<pdfrwt beam="1">  1       21 0.53537130E-01 0.12742247E+03</pdfrwt>
<pdfrwt beam="2">  1       -4 0.44698101E-02 0.12742247E+03</pdfrwt>
<totfact> 0.38333325E+04</totfact>
</mgrwt>
</event>
<event>
 6    3  0.3813045E-003  0.1277408E+03  0.7818608E-02  0.1230847E+00
         21   -1    0    0  501  502  0.00000000000E+00  0.00000000000E+00  0.22349158305E+03  0.22349158305E+03  0.00000000000E+00 0.  1.
          4   -1    0    0  502    0 -0.00000000000E+00 -0.00000000000E+00 -0.56627628078E+02  0.56641867570E+02  0.12700000000E+01 0. -1.
         25    2    1    2    0    0  0.93702453052E+01 -0.24588650826E+02  0.18054864613E+02  0.12901044933E+03  0.12500125860E+03 0.  0.
    9000005    1    3    3    0    0  0.41576720573E+02  0.42354507567E+01  0.57092371082E+02  0.70760876002E+02  0.10000000000E+01 0.  0.
    9000005    1    3    3    0    0 -0.32206475268E+02 -0.28824101582E+02 -0.39037506469E+02  0.58249573325E+02  0.10000000000E+01 0.  0.
          4    1    1    2  501    0 -0.93702453052E+01  0.24588650826E+02  0.14880909035E+03  0.15112300129E+03  0.12700000000E+01 0.  1.
<mgrwt>
<rscale>  1 0.12774082E+03</rscale>
<asrwt>0</asrwt>
<pdfrwt beam="1">  1       21 0.34383320E-01 0.12774082E+03</pdfrwt>
<pdfrwt beam="2">  1        4 0.87133158E-02 0.12774082E+03</pdfrwt>
<totfact> 0.31619133E+04</totfact>
</mgrwt>
</event>
<event>
 6    3  0.3813045E-003  0.1292915E+03  0.7818608E-02  0.1228511E+00
          4   -1    0    0  502    0 -0.00000000000E+00  0.00000000000E+00  0.16263102283E+03  0.16263598153E+03  0.12700000000E+01 0. -1.
         21   -1    0    0  501  502  0.00000000000E+00 -0.00000000000E+00 -0.43479446018E+02  0.43479446018E+02  0.00000000000E+00 0. -1.
         25    2    1    2    0    0  0.23616805178E+02 -0.23123371202E+02  0.70438668940E+02  0.14723415653E+03  0.12499538786E+03 0.  0.
    9000005    1    3    3    0    0 -0.36252550332E+02  0.34724249006E+01 -0.15141703739E+02  0.39453470474E+02  0.10000000000E+01 0.  0.
    9000005    1    3    3    0    0  0.59869355510E+02 -0.26595796102E+02  0.85580372679E+02  0.10778068606E+03  0.10000000000E+01 0.  0.
          4    1    1    2  501    0 -0.23616805178E+02  0.23123371202E+02  0.48712907875E+02  0.58881271013E+02  0.12700000000E+01 0.  1.
<mgrwt>
<rscale>  1 0.12929150E+03</rscale>
<asrwt>0</asrwt>
<pdfrwt beam="2">  1       21 0.66891456E-02 0.12929150E+03</pdfrwt>
<pdfrwt beam="1">  1        4 0.25021965E-01 0.12929150E+03</pdfrwt>
<totfact> 0.97774348E+04</totfact>
</mgrwt>
</event>
<event>
 6    3  0.3813045E-003  0.1296709E+03  0.7818608E-02  0.1227945E+00
         -4   -1    0    0    0  501 -0.00000000000E+00  0.00000000000E+00  0.18399375758E+03  0.18399814055E+03  0.12700000000E+01 0.  1.
         21   -1    0    0  501  502  0.00000000000E+00 -0.00000000000E+00 -0.57255313884E+02  0.57255313884E+02  0.00000000000E+00 0.  1.
         25    2    1    2    0    0  0.21170139212E+02  0.27253861514E+02  0.15100965630E+03  0.19904382967E+03  0.12499432815E+03 0.  0.
    9000005    1    3    3    0    0  0.33091549881E+02 -0.10338367023E+02  0.15551668901E+03  0.15933729340E+03  0.10000000000E+01 0.  0.
    9000005    1    3    3    0    0 -0.11921410669E+02  0.37592228537E+02 -0.45070327089E+01  0.39706536270E+02  0.10000000000E+01 0.  0.
         -4    1    1    2    0  502 -0.21170139212E+02 -0.27253861514E+02 -0.24271212610E+02  0.42209624770E+02  0.12700000000E+01 0. -1.
<mgrwt>
<rscale>  1 0.12967085E+03</rscale>
<asrwt>0</asrwt>
<pdfrwt beam="2">  1       21 0.88085099E-02 0.12967085E+03</pdfrwt>
<pdfrwt beam="1">  1       -4 0.28308152E-01 0.12967085E+03</pdfrwt>
<totfact> 0.48436418E+04</totfact>
</mgrwt>
</event>
<event>
 6    3  0.3813045E-003  0.1341530E+03  0.7818608E-02  0.1221420E+00
         21   -1    0    0  501  502  0.00000000000E+00  0.00000000000E+00  0.29651820349E+03  0.29651820349E+03  0.00000000000E+00 0. -1.
          4   -1    0    0  502    0 -0.00000000000E+00 -0.00000000000E+00 -0.29898928168E+02  0.29925888552E+02  0.12700000000E+01 0.  1.
         25    2    1    2    0    0 -0.23246661895E+02 -0.42796089620E+02  0.15715009807E+03  0.20662328314E+03  0.12500046095E+03 0.  0.
    9000005    1    3    3    0    0 -0.15711423813E+02 -0.67911514566E+02  0.16509211937E+03  0.17920722789E+03  0.10000000000E+01 0.  0.
    9000005    1    3    3    0    0 -0.75352380821E+01  0.25115424946E+02 -0.79420213083E+01  0.27416055253E+02  0.10000000000E+01 0.  0.
          4    1    1    2  501    0  0.23246661895E+02  0.42796089620E+02  0.10946917726E+03  0.11982080890E+03  0.12700000000E+01 0. -1.
<mgrwt>
<rscale>  1 0.13415300E+03</rscale>
<asrwt>0</asrwt>
<pdfrwt beam="1">  1       21 0.45618183E-01 0.13415300E+03</pdfrwt>
<pdfrwt beam="2">  1        4 0.46021184E-02 0.13415300E+03</pdfrwt>
<totfact> 0.51164035E+04</totfact>
</mgrwt>
</event>
<event>
 6    3  0.3813045E-003  0.1272508E+03  0.7818608E-02  0.1231593E+00
         -4   -1    0    0    0  501 -0.00000000000E+00  0.00000000000E+00  0.41214564673E+02  0.41234127142E+02  0.12700000000E+01 0.  1.
         21   -1    0    0  501  502  0.00000000000E+00 -0.00000000000E+00 -0.16677080224E+03  0.16677080224E+03  0.00000000000E+00 0.  1.
         25    2    1    2    0    0  0.84233605497E+01  0.22268872137E+02 -0.64930187432E+02  0.14285904291E+03  0.12500368487E+03 0.  0.
    9000005    1    3    3    0    0 -0.37757826015E+02  0.52741659209E+02 -0.58128039350E+02  0.87104563601E+02  0.10000000000E+01 0.  0.
    9000005    1    3    3    0    0  0.46181186565E+02 -0.30472787072E+02 -0.68021480820E+01  0.55754479309E+02  0.10000000000E+01 0.  0.
         -4    1    1    2    0  502 -0.84233605497E+01 -0.22268872137E+02 -0.60626050136E+02  0.65145886472E+02  0.12700000000E+01 0. -1.
<mgrwt>
<rscale>  1 0.12725084E+03</rscale>
<asrwt>0</asrwt>
<pdfrwt beam="2">  1       21 0.25657046E-01 0.12725084E+03</pdfrwt>
<pdfrwt beam="1">  1       -4 0.63425791E-02 0.12725084E+03</pdfrwt>
<totfact> 0.93694394E+04</totfact>
</mgrwt>
</event>
<event>
 6    3  0.3813045E-003  0.1411101E+03  0.7818608E-02  0.1211843E+00
         -4   -1    0    0    0  501 -0.00000000000E+00  0.00000000000E+00  0.56746704748E+02  0.56760914367E+02  0.12700000000E+01 0.  1.
         21   -1    0    0  501  502  0.00000000000E+00 -0.00000000000E+00 -0.59112065177E+03  0.59112065177E+03  0.00000000000E+00 0. -1.
         25    2    1    2    0    0  0.60244384419E+02  0.25823831464E+02 -0.36559841619E+02  0.14576927535E+03  0.12496320855E+03 0.  0.
    9000005    1    3    3    0    0  0.88639510215E+02 -0.13868262905E+02 -0.10222279668E+02  0.90303856444E+02  0.10000000000E+01 0.  0.
    9000005    1    3    3    0    0 -0.28395125796E+02  0.39692094369E+02 -0.26337561951E+02  0.55465418902E+02  0.10000000000E+01 0.  0.
         -4    1    1    2    0  502 -0.60244384419E+02 -0.25823831464E+02 -0.49781410540E+03  0.50211229079E+03  0.12700000000E+01 0. -1.
<mgrwt>
<rscale>  1 0.14111010E+03</rscale>
<asrwt>0</asrwt>
<pdfrwt beam="2">  1       21 0.90941635E-01 0.14111010E+03</pdfrwt>
<pdfrwt beam="1">  1       -4 0.87314606E-02 0.14111010E+03</pdfrwt>
<totfact> 0.40750302E+03</totfact>
</mgrwt>
</event>
<event>
 6    3  0.3813045E-003  0.1296369E+03  0.7818608E-02  0.1227996E+00
          4   -1    0    0  502    0 -0.00000000000E+00  0.00000000000E+00  0.39713603298E+02  0.39733904753E+02  0.12700000000E+01 0.  1.
         21   -1    0    0  501  502  0.00000000000E+00 -0.00000000000E+00 -0.20365485860E+03  0.20365485860E+03  0.00000000000E+00 0. -1.
         25    2    1    2    0    0  0.15430256115E+02  0.30687677294E+02 -0.79135072053E+02  0.15188178024E+03  0.12500355674E+03 0.  0.
    9000005    1    3    3    0    0 -0.90447779628E+01 -0.47158080073E+02 -0.29245072971E+02  0.56231368627E+02  0.10000000000E+01 0.  0.
    9000005    1    3    3    0    0  0.24475034078E+02  0.77845757367E+02 -0.49889999082E+02  0.95650411612E+02  0.10000000000E+01 0.  0.
          4    1    1    2  501    0 -0.15430256115E+02 -0.30687677294E+02 -0.84806183250E+02  0.91506983115E+02  0.12700000000E+01 0. -1.
<mgrwt>
<rscale>  1 0.12963686E+03</rscale>
<asrwt>0</asrwt>
<pdfrwt beam="2">  1       21 0.31331516E-01 0.12963686E+03</pdfrwt>
<pdfrwt beam="1">  1        4 0.61116514E-02 0.12963686E+03</pdfrwt>
<totfact> 0.68025845E+04</totfact>
</mgrwt>
</event>
<event>
 6    3  0.3813045E-003  0.1280691E+03  0.7818608E-02  0.1230349E+00
         21   -1    0    0  501  502  0.00000000000E+00  0.00000000000E+00  0.38643216184E+02  0.38643216184E+02  0.00000000000E+00 0. -1.
          4   -1    0    0  502    0 -0.00000000000E+00 -0.00000000000E+00 -0.15822076067E+03  0.15822585758E+03  0.12700000000E+01 0. -1.
         25    2    1    2    0    0 -0.54935412853E+01  0.27329096619E+02 -0.92450160148E+02  0.15795164324E+03  0.12499852388E+03 0.  0.
    9000005    1    3    3    0    0  0.45214502065E+02 -0.27756595607E+02 -0.41824123578E+02  0.67565058350E+02  0.10000000000E+01 0.  0.
    9000005    1    3    3    0    0 -0.50708043351E+02  0.55085692226E+02 -0.50626036570E+02  0.90386584885E+02  0.10000000000E+01 0.  0.
          4    1    1    2  501    0  0.54935412853E+01 -0.27329096619E+02 -0.27127384335E+02  0.38917430526E+02  0.12700000000E+01 0.  1.
<mgrwt>
<rscale>  1 0.12806908E+03</rscale>
<asrwt>0</asrwt>
<pdfrwt beam="1">  1       21 0.59451102E-02 0.12806908E+03</pdfrwt>
<pdfrwt beam="2">  1        4 0.24343653E-01 0.12806908E+03</pdfrwt>
<totfact> 0.12550709E+05</totfact>
</mgrwt>
</event>
<event>
 6    3  0.3813045E-003  0.1293585E+03  0.7818608E-02  0.1228411E+00
         -4   -1    0    0    0  501 -0.00000000000E+00  0.00000000000E+00  0.26606656424E+02  0.26636949264E+02  0.12700000000E+01 0.  1.
         21   -1    0    0  501  502  0.00000000000E+00 -0.00000000000E+00 -0.25036791402E+03  0.25036791402E+03  0.00000000000E+00 0. -1.
         25    2    1    2    0    0 -0.31630174023E+02 -0.10409719384E+02 -0.18707186209E+03  0.22744121926E+03  0.12499918586E+03 0.  0.
    9000005    1    3    3    0    0 -0.50863660314E+02 -0.47399966149E+02 -0.16752826500E+03  0.18138519318E+03  0.10000000000E+01 0.  0.
    9000005    1    3    3    0    0  0.19233486291E+02  0.36990246766E+02 -0.19543597085E+02  0.46056026074E+02  0.10000000000E+01 0.  0.
         -4    1    1    2    0  502  0.31630174023E+02  0.10409719384E+02 -0.36689395507E+02  0.49563644025E+02  0.12700000000E+01 0. -1.
<mgrwt>
<rscale>  1 0.12935852E+03</rscale>
<asrwt>0</asrwt>
<pdfrwt beam="2">  1       21 0.38518142E-01 0.12935852E+03</pdfrwt>
<pdfrwt beam="1">  1       -4 0.40959096E-02 0.12935852E+03</pdfrwt>
<totfact> 0.86241829E+04</totfact>
</mgrwt>
</event>
<event>
 6    3  0.3813045E-003  0.1288795E+03  0.7818608E-02  0.1229128E+00
         -4   -1    0    0    0  501 -0.00000000000E+00  0.00000000000E+00  0.87978744107E+02  0.87987910048E+02  0.12700000000E+01 0.  1.
         21   -1    0    0  501  502  0.00000000000E+00 -0.00000000000E+00 -0.64676823503E+03  0.64676823503E+03  0.00000000000E+00 0. -1.
         25    2    1    2    0    0  0.21886246426E+02 -0.22490819382E+02  0.40153903283E+02  0.13498981800E+03  0.12500028110E+03 0.  0.
    9000005    1    3    3    0    0  0.52129885558E+02  0.35137247825E+02  0.11704140335E+02  0.63954187150E+02  0.10000000000E+01 0.  0.
    9000005    1    3    3    0    0 -0.30243639132E+02 -0.57628067207E+02  0.28449762947E+02  0.71035630846E+02  0.10000000000E+01 0.  0.
         -4    1    1    2    0  502 -0.21886246426E+02  0.22490819382E+02 -0.59894339421E+03  0.59976632709E+03  0.12700000000E+01 0. -1.
<mgrwt>
<rscale>  1 0.12887946E+03</rscale>
<asrwt>0</asrwt>
<pdfrwt beam="2">  1       21 0.99502805E-01 0.12887946E+03</pdfrwt>
<pdfrwt beam="1">  1       -4 0.13535992E-01 0.12887946E+03</pdfrwt>
<totfact> 0.15677727E+03</totfact>
</mgrwt>
</event>
<event>
 6    3  0.3813045E-003  0.1322045E+03  0.7818608E-02  0.1224221E+00
          4   -1    0    0  502    0 -0.00000000000E+00  0.00000000000E+00  0.17085311719E+03  0.17085783726E+03  0.12700000000E+01 0.  1.
         21   -1    0    0  501  502  0.00000000000E+00 -0.00000000000E+00 -0.60511292336E+02  0.60511292336E+02  0.00000000000E+00 0. -1.
         25    2    1    2    0    0  0.39788492858E+02 -0.16224572680E+02  0.12881101861E+03  0.18458147160E+03  0.12502671804E+03 0.  0.
    9000005    1    3    3    0    0  0.22490781585E+02  0.38379170328E+02  0.11823025178E+03  0.12632572345E+03  0.10000000000E+01 0.  0.
    9000005    1    3    3    0    0  0.17297711272E+02 -0.54603743008E+02  0.10580766831E+02  0.58255748150E+02  0.10000000000E+01 0.  0.
          4    1    1    2  501    0 -0.39788492858E+02  0.16224572680E+02 -0.18469193752E+02  0.46787657992E+02  0.12700000000E+01 0. -1.
<mgrwt>
<rscale>  1 0.13220454E+03</rscale>
<asrwt>0</asrwt>
<pdfrwt beam="2">  1       21 0.93094297E-02 0.13220454E+03</pdfrwt>
<pdfrwt beam="1">  1        4 0.26286483E-01 0.13220454E+03</pdfrwt>
<totfact> 0.50641826E+04</totfact>
</mgrwt>
</event>
<event>
 6    3  0.3813045E-003  0.1276072E+03  0.7818608E-02  0.1231050E+00
         21   -1    0    0  501  502  0.00000000000E+00  0.00000000000E+00  0.19055931628E+03  0.19055931628E+03  0.00000000000E+00 0. -1.
          4   -1    0    0  502    0 -0.00000000000E+00 -0.00000000000E+00 -0.49352823613E+02  0.49369161413E+02  0.12700000000E+01 0.  1.
         25    2    1    2    0    0  0.28852459593E+01 -0.25501282725E+02  0.37379594771E+02  0.13296924391E+03  0.12499978262E+03 0.  0.
    9000005    1    3    3    0    0  0.41697396608E+02 -0.58728628070E+02  0.38858439857E+02  0.81845604568E+02  0.10000000000E+01 0.  0.
    9000005    1    3    3    0    0 -0.38812150649E+02  0.33227345346E+02 -0.14788450866E+01  0.51123639341E+02  0.10000000000E+01 0.  0.
          4    1    1    2  501    0 -0.28852459593E+01  0.25501282725E+02  0.10382689790E+03  0.10695923378E+03  0.12700000000E+01 0. -1.
<mgrwt>
<rscale>  1 0.12760715E+03</rscale>
<asrwt>0</asrwt>
<pdfrwt beam="1">  1       21 0.29316818E-01 0.12760715E+03</pdfrwt>
<pdfrwt beam="2">  1        4 0.75943245E-02 0.12760715E+03</pdfrwt>
<totfact> 0.54096605E+04</totfact>
</mgrwt>
</event>
<event>
 6    3  0.3813045E-003  0.1279714E+03  0.7818608E-02  0.1230497E+00
         -4   -1    0    0    0  501 -0.00000000000E+00  0.00000000000E+00  0.63340009105E+02  0.63352739904E+02  0.12700000000E+01 0.  1.
         21   -1    0    0  501  502  0.00000000000E+00 -0.00000000000E+00 -0.12173053008E+03  0.12173053008E+03  0.00000000000E+00 0.  1.
         25    2    1    2    0    0  0.18942545962E+02 -0.19800973009E+02 -0.86296688352E+01  0.12826202497E+03  0.12500310910E+03 0.  0.
    9000005    1    3    3    0    0  0.25631361307E+02  0.16717058994E+02  0.50135250279E+02  0.58744957778E+02  0.10000000000E+01 0.  0.
    9000005    1    3    3    0    0 -0.66888153447E+01 -0.36518032003E+02 -0.58764919114E+02  0.69517067189E+02  0.10000000000E+01 0.  0.
         -4    1    1    2    0  502 -0.18942545962E+02  0.19800973009E+02 -0.49760852144E+02  0.56821245021E+02  0.12700000000E+01 0. -1.
<mgrwt>
<rscale>  1 0.12797139E+03</rscale>
<asrwt>0</asrwt>
<pdfrwt beam="2">  1       21 0.18727774E-01 0.12797139E+03</pdfrwt>
<pdfrwt beam="1">  1       -4 0.97461056E-02 0.12797139E+03</pdfrwt>
<totfact> 0.82913057E+04</totfact>
</mgrwt>
</event>
<event>
 6    3  0.3813045E-003  0.1328081E+03  0.7818608E-02  0.1223348E+00
         21   -1    0    0  501  502  0.00000000000E+00  0.00000000000E+00  0.20519995101E+02  0.20519995101E+02  0.00000000000E+00 0. -1.
         -4   -1    0    0    0  501 -0.00000000000E+00 -0.00000000000E+00 -0.76317107610E+03  0.76317213281E+03  0.12700000000E+01 0.  1.
         25    2    1    2    0    0  0.33922769822E+02  0.29391262870E+02 -0.72227393989E+03  0.73438247951E+03  0.12499352513E+03 0.  0.
    9000005    1    3    3    0    0 -0.97755971097E+01  0.71465878223E+02 -0.39230627844E+03  0.39888362984E+03  0.10000000000E+01 0.  0.
    9000005    1    3    3    0    0  0.43698366932E+02 -0.42074615353E+02 -0.32996766145E+03  0.33549884967E+03  0.10000000000E+01 0.  0.
         -4    1    1    2    0  502 -0.33922769822E+02 -0.29391262870E+02 -0.20377141113E+02  0.49309648402E+02  0.12700000000E+01 0. -1.
<mgrwt>
<rscale>  1 0.13280806E+03</rscale>
<asrwt>0</asrwt>
<pdfrwt beam="1">  1       21 0.31569224E-02 0.13280806E+03</pdfrwt>
<pdfrwt beam="2">  1       -4 0.11741403E+00 0.13280806E+03</pdfrwt>
<totfact> 0.13836100E+04</totfact>
</mgrwt>
</event>
<event>
 6    3  0.3813045E-003  0.1319403E+03  0.7818608E-02  0.1224605E+00
          4   -1    0    0  502    0 -0.00000000000E+00  0.00000000000E+00  0.54572098859E+02  0.54586874557E+02  0.12700000000E+01 0. -1.
         21   -1    0    0  501  502  0.00000000000E+00 -0.00000000000E+00 -0.27687707986E+03  0.27687707986E+03  0.00000000000E+00 0.  1.
         25    2    1    2    0    0  0.35065637987E+02 -0.23521703486E+02 -0.30976871814E+02  0.13552792463E+03  0.12500152905E+03 0.  0.
    9000005    1    3    3    0    0  0.30488451318E+02  0.49663174109E+02 -0.90250040105E+01  0.58978192782E+02  0.10000000000E+01 0.  0.
    9000005    1    3    3    0    0  0.45771866692E+01 -0.73184877595E+02 -0.21951867804E+02  0.76549731851E+02  0.10000000000E+01 0.  0.
          4    1    1    2  501    0 -0.35065637987E+02  0.23521703486E+02 -0.19132810919E+03  0.19593602979E+03  0.12700000000E+01 0.  1.
<mgrwt>
<rscale>  1 0.13194033E+03</rscale>
<asrwt>0</asrwt>
<pdfrwt beam="2">  1       21 0.42596473E-01 0.13194033E+03</pdfrwt>
<pdfrwt beam="1">  1        4 0.83970682E-02 0.13194033E+03</pdfrwt>
<totfact> 0.22037156E+04</totfact>
</mgrwt>
</event>
<event>
 6    3  0.3813045E-003  0.1294598E+03  0.7818608E-02  0.1228260E+00
         21   -1    0    0  501  502  0.00000000000E+00  0.00000000000E+00  0.11183346062E+04  0.11183346062E+04  0.00000000000E+00 0.  1.
          4   -1    0    0  502    0 -0.00000000000E+00 -0.00000000000E+00 -0.61180815008E+01  0.62485055213E+01  0.12700000000E+01 0.  1.
         25    2    1    2    0    0 -0.21579288969E+01  0.33533372559E+02  0.78016773146E+03  0.79083596533E+03  0.12502276240E+03 0.  0.
    9000005    1    3    3    0    0  0.54229441936E+02 -0.25310116188E+01  0.49240076837E+03  0.49538546111E+03  0.10000000000E+01 0.  0.
    9000005    1    3    3    0    0 -0.56387370833E+02  0.36064384177E+02  0.28776696309E+03  0.29545050422E+03  0.10000000000E+01 0.  0.
          4    1    1    2  501    0  0.21579288969E+01 -0.33533372559E+02  0.33204879327E+03  0.33374714642E+03  0.12700000000E+01 0. -1.
<mgrwt>
<rscale>  1 0.12945978E+03</rscale>
<asrwt>0</asrwt>
<pdfrwt beam="1">  1       21 0.17205132E+00 0.12945978E+03</pdfrwt>
<pdfrwt beam="2">  1        4 0.95133228E-03 0.12945978E+03</pdfrwt>
<totfact> 0.27116756E+04</totfact>
</mgrwt>
</event>
<event>
 6    3  0.3813045E-003  0.1270440E+03  0.7818608E-02  0.1231909E+00
         -4   -1    0    0    0  501 -0.00000000000E+00  0.00000000000E+00  0.39161300410E+02  0.39181888033E+02  0.12700000000E+01 0.  1.
         21   -1    0    0  501  502  0.00000000000E+00 -0.00000000000E+00 -0.17179012826E+03  0.17179012826E+03  0.00000000000E+00 0. -1.
         25    2    1    2    0    0  0.74183022121E+01 -0.21454099709E+02 -0.71567586329E+02  0.14581529969E+03  0.12499949044E+03 0.  0.
    9000005    1    3    3    0    0 -0.22198219881E+01  0.52201719799E+02 -0.23269520309E+02  0.57205049909E+02  0.10000000000E+01 0.  0.
    9000005    1    3    3    0    0  0.96381242003E+01 -0.73655819508E+02 -0.48298066020E+02  0.88610249784E+02  0.10000000000E+01 0.  0.
         -4    1    1    2    0  502 -0.74183022121E+01  0.21454099709E+02 -0.61061241525E+02  0.65156716604E+02  0.12700000000E+01 0. -1.
<mgrwt>
<rscale>  1 0.12704402E+03</rscale>
<asrwt>0</asrwt>
<pdfrwt beam="2">  1       21 0.26429250E-01 0.12704402E+03</pdfrwt>
<pdfrwt beam="1">  1       -4 0.60267603E-02 0.12704402E+03</pdfrwt>
<totfact> 0.96218660E+04</totfact>
</mgrwt>
</event>
<event>
 6    3  0.3813045E-003  0.1277141E+03  0.7818608E-02  0.1230888E+00
         -4   -1    0    0    0  501 -0.00000000000E+00  0.00000000000E+00  0.38234353806E+03  0.38234564729E+03  0.12700000000E+01 0. -1.
         21   -1    0    0  501  502  0.00000000000E+00 -0.00000000000E+00 -0.15556345313E+02  0.15556345313E+02  0.00000000000E+00 0. -1.
         25    2    1    2    0    0  0.71440121559E+01  0.25195456319E+02  0.31341212180E+03  0.33843469883E+03  0.12500015742E+03 0.  0.
    9000005    1    3    3    0    0  0.40186962789E+02 -0.16727809226E+02  0.37679505003E+02  0.57580870755E+02  0.10000000000E+01 0.  0.
    9000005    1    3    3    0    0 -0.33042950633E+02  0.41923265544E+02  0.27573261680E+03  0.28085382808E+03  0.10000000000E+01 0.  0.
         -4    1    1    2    0  502 -0.71440121559E+01 -0.25195456319E+02  0.53375070952E+02  0.59467293766E+02  0.12700000000E+01 0.  1.
<mgrwt>
<rscale>  1 0.12771408E+03</rscale>
<asrwt>0</asrwt>
<pdfrwt beam="2">  1       21 0.23932842E-02 0.12771408E+03</pdfrwt>
<pdfrwt beam="1">  1       -4 0.58826226E-01 0.12771408E+03</pdfrwt>
<totfact> 0.10106440E+05</totfact>
</mgrwt>
</event>
<event>
 6    3  0.3813045E-003  0.1329267E+03  0.7818608E-02  0.1223176E+00
         21   -1    0    0  501  502  0.00000000000E+00  0.00000000000E+00  0.15784030339E+03  0.15784030339E+03  0.00000000000E+00 0.  1.
          4   -1    0    0  502    0 -0.00000000000E+00 -0.00000000000E+00 -0.11151626516E+03  0.11152349661E+03  0.12700000000E+01 0.  1.
         25    2    1    2    0    0  0.28820253189E+02  0.34837605441E+02 -0.65901414180E+02  0.14836615202E+03  0.12500101171E+03 0.  0.
    9000005    1    3    3    0    0 -0.20188040947E+01  0.73223955772E+02 -0.66751337471E+02  0.99108850881E+02  0.10000000000E+01 0.  0.
    9000005    1    3    3    0    0  0.30839057284E+02 -0.38386350331E+02  0.84992329126E+00  0.49257301139E+02  0.10000000000E+01 0.  0.
          4    1    1    2  501    0 -0.28820253189E+02 -0.34837605441E+02  0.11222545241E+03  0.12099764798E+03  0.12700000000E+01 0. -1.
<mgrwt>
<rscale>  1 0.13292674E+03</rscale>
<asrwt>0</asrwt>
<pdfrwt beam="1">  1       21 0.24283124E-01 0.13292674E+03</pdfrwt>
<pdfrwt beam="2">  1        4 0.17157298E-01 0.13292674E+03</pdfrwt>
<totfact> 0.19395850E+04</totfact>
</mgrwt>
</event>
<event>
 6    3  0.3813045E-003  0.1317659E+03  0.7818608E-02  0.1224859E+00
         21   -1    0    0  501  502  0.00000000000E+00  0.00000000000E+00  0.25937818683E+02  0.25937818683E+02  0.00000000000E+00 0.  1.
          4   -1    0    0  502    0 -0.00000000000E+00 -0.00000000000E+00 -0.58706238702E+03  0.58706376072E+03  0.12700000000E+01 0. -1.
         25    2    1    2    0    0  0.40589894434E+02 -0.95017341534E+01 -0.55550446557E+03  0.57091807982E+03  0.12499768045E+03 0.  0.
    9000005    1    3    3    0    0  0.89838480075E+01 -0.56873119596E+02 -0.42000879846E+03  0.42393826442E+03  0.10000000000E+01 0.  0.
    9000005    1    3    3    0    0  0.31606046427E+02  0.47371385443E+02 -0.13549566711E+03  0.14697981540E+03  0.10000000000E+01 0.  0.
          4    1    1    2  501    0 -0.40589894434E+02  0.95017341534E+01 -0.56201027681E+01  0.42083499584E+02  0.12700000000E+01 0.  1.
<mgrwt>
<rscale>  1 0.13176586E+03</rscale>
<asrwt>0</asrwt>
<pdfrwt beam="1">  1       21 0.39904336E-02 0.13176586E+03</pdfrwt>
<pdfrwt beam="2">  1        4 0.90319788E-01 0.13176586E+03</pdfrwt>
<totfact> 0.17264973E+04</totfact>
</mgrwt>
</event>
<event>
 6    3  0.3813045E-003  0.1337988E+03  0.7818608E-02  0.1221925E+00
         -4   -1    0    0    0  501 -0.00000000000E+00  0.00000000000E+00  0.12353021229E+03  0.12353674048E+03  0.12700000000E+01 0.  1.
         21   -1    0    0  501  502  0.00000000000E+00 -0.00000000000E+00 -0.66632238761E+02  0.66632238761E+02  0.00000000000E+00 0.  1.
         25    2    1    2    0    0  0.33568250229E+01  0.47502289808E+02  0.40679357191E+02  0.13984609948E+03  0.12503753687E+03 0.  0.
    9000005    1    3    3    0    0  0.34746795368E+02 -0.28006532841E+02 -0.69955499351E+01  0.45184548122E+02  0.10000000000E+01 0.  0.
    9000005    1    3    3    0    0 -0.31389970345E+02  0.75508822648E+02  0.47674907126E+02  0.94661551358E+02  0.10000000000E+01 0.  0.
         -4    1    1    2    0  502 -0.33568250229E+01 -0.47502289808E+02  0.16218616333E+02  0.50322879756E+02  0.12700000000E+01 0. -1.
<mgrwt>
<rscale>  1 0.13379881E+03</rscale>
<asrwt>0</asrwt>
<pdfrwt beam="2">  1       21 0.10251114E-01 0.13379881E+03</pdfrwt>
<pdfrwt beam="1">  1       -4 0.19006081E-01 0.13379881E+03</pdfrwt>
<totfact> 0.77366717E+04</totfact>
</mgrwt>
</event>
<event>
 6    3  0.3813045E-003  0.1288988E+03  0.7818608E-02  0.1229099E+00
         -4   -1    0    0    0  501 -0.00000000000E+00  0.00000000000E+00  0.38985864677E+03  0.38986071533E+03  0.12700000000E+01 0.  1.
         21   -1    0    0  501  502  0.00000000000E+00 -0.00000000000E+00 -0.30378128125E+03  0.30378128125E+03  0.00000000000E+00 0. -1.
         25    2    1    2    0    0 -0.28042360104E+02  0.14241742524E+02  0.37833701702E+03  0.39969214034E+03  0.12500282961E+03 0.  0.
    9000005    1    3    3    0    0 -0.61864872463E+02  0.15343775436E+02  0.34936310438E+03  0.35513134555E+03  0.10000000000E+01 0.  0.
    9000005    1    3    3    0    0  0.33822512359E+02 -0.11020329122E+01  0.28973912646E+02  0.44560794796E+02  0.10000000000E+01 0.  0.
         -4    1    1    2    0  502  0.28042360104E+02 -0.14241742524E+02 -0.29225965150E+03  0.29394985624E+03  0.12700000000E+01 0. -1.
<mgrwt>
<rscale>  1 0.12889883E+03</rscale>
<asrwt>0</asrwt>
<pdfrwt beam="2">  1       21 0.46735582E-01 0.12889883E+03</pdfrwt>
<pdfrwt beam="1">  1       -4 0.59978617E-01 0.12889883E+03</pdfrwt>
<totfact> 0.48895341E+02</totfact>
</mgrwt>
</event>
<event>
 6    3  0.3813045E-003  0.1293002E+03  0.7818608E-02  0.1228498E+00
         -4   -1    0    0    0  501 -0.00000000000E+00  0.00000000000E+00  0.21052227888E+03  0.21052610956E+03  0.12700000000E+01 0.  1.
         21   -1    0    0  501  502  0.00000000000E+00 -0.00000000000E+00 -0.39810210604E+02  0.39810210604E+02  0.00000000000E+00 0.  1.
         25    2    1    2    0    0  0.20451120439E+01 -0.33015696022E+02  0.17431754478E+03  0.21703720564E+03  0.12499729416E+03 0.  0.
    9000005    1    3    3    0    0  0.47963190636E+02 -0.35618615106E+02  0.15682323110E+03  0.16782037782E+03  0.10000000000E+01 0.  0.
    9000005    1    3    3    0    0 -0.45918078592E+02  0.26029190834E+01  0.17494313675E+02  0.49216827816E+02  0.10000000000E+01 0.  0.
         -4    1    1    2    0  502 -0.20451120439E+01  0.33015696022E+02 -0.36054765043E+01  0.33299114522E+02  0.12700000000E+01 0. -1.
<mgrwt>
<rscale>  1 0.12930020E+03</rscale>
<asrwt>0</asrwt>
<pdfrwt beam="2">  1       21 0.61246479E-02 0.12930020E+03</pdfrwt>
<pdfrwt beam="1">  1       -4 0.32389895E-01 0.12930020E+03</pdfrwt>
<totfact> 0.70017677E+04</totfact>
</mgrwt>
</event>
<event>
 6    3  0.3813045E-003  0.1273664E+03  0.7818608E-02  0.1231417E+00
         -4   -1    0    0    0  501 -0.00000000000E+00  0.00000000000E+00  0.15150070697E+03  0.15150602996E+03  0.12700000000E+01 0. -1.
         21   -1    0    0  501  502  0.00000000000E+00 -0.00000000000E+00 -0.77405613222E+02  0.77405613222E+02  0.00000000000E+00 0.  1.
         25    2    1    2    0    0  0.23647266257E+02  0.62825667575E+01  0.12119932133E+03  0.17581658689E+03  0.12499413142E+03 0.  0.
    9000005    1    3    3    0    0 -0.36915591270E+02 -0.33235001825E+02  0.25444952864E+02  0.55819099342E+02  0.10000000000E+01 0.  0.
    9000005    1    3    3    0    0  0.60562857527E+02  0.39517568582E+02  0.95754368463E+02  0.11999748755E+03  0.10000000000E+01 0.  0.
         -4    1    1    2    0  502 -0.23647266257E+02 -0.62825667575E+01 -0.47104227577E+02  0.53095056287E+02  0.12700000000E+01 0.  1.
<mgrwt>
<rscale>  1 0.12736639E+03</rscale>
<asrwt>0</asrwt>
<pdfrwt beam="2">  1       21 0.11908556E-01 0.12736639E+03</pdfrwt>
<pdfrwt beam="1">  1       -4 0.23309012E-01 0.12736639E+03</pdfrwt>
<totfact> 0.40821612E+04</totfact>
</mgrwt>
</event>
<event>
 6    3  0.3813045E-003  0.1274533E+03  0.7818608E-02  0.1231284E+00
          4   -1    0    0  502    0 -0.00000000000E+00  0.00000000000E+00  0.23392682605E+02  0.23427131695E+02  0.12700000000E+01 0. -1.
         21   -1    0    0  501  502  0.00000000000E+00 -0.00000000000E+00 -0.27778696784E+03  0.27778696784E+03  0.00000000000E+00 0. -1.
         25    2    1    2    0    0 -0.39090458674E+01  0.24552242790E+02 -0.16543544939E+03  0.20883780040E+03  0.12500498269E+03 0.  0.
    9000005    1    3    3    0    0 -0.64415992302E+01 -0.50830183432E+02 -0.55826659638E+02  0.75781380792E+02  0.10000000000E+01 0.  0.
    9000005    1    3    3    0    0  0.25325533628E+01  0.75382426223E+02 -0.10960878975E+03  0.13305641961E+03  0.10000000000E+01 0.  0.
          4    1    1    2  501    0  0.39090458674E+01 -0.24552242790E+02 -0.88958835846E+02  0.92376299128E+02  0.12700000000E+01 0.  1.
<mgrwt>
<rscale>  1 0.12745328E+03</rscale>
<asrwt>0</asrwt>
<pdfrwt beam="2">  1       21 0.42736454E-01 0.12745328E+03</pdfrwt>
<pdfrwt beam="1">  1        4 0.36017477E-02 0.12745328E+03</pdfrwt>
<totfact> 0.85686841E+04</totfact>
</mgrwt>
</event>
<event>
 6    3  0.3813045E-003  0.1420846E+03  0.7818608E-02  0.1210551E+00
         -4   -1    0    0    0  501 -0.00000000000E+00  0.00000000000E+00  0.60848489309E+01  0.62159702792E+01  0.12700000000E+01 0.  1.
         21   -1    0    0  501  502  0.00000000000E+00 -0.00000000000E+00 -0.21819540122E+04  0.21819540122E+04  0.00000000000E+00 0.  1.
         25    2    1    2    0    0  0.30188669881E+02 -0.60428189937E+02 -0.96352881929E+03  0.97394856755E+03  0.12500041882E+03 0.  0.
    9000005    1    3    3    0    0 -0.45621722384E+02 -0.46009945146E+01 -0.24257630413E+03  0.24687400436E+03  0.10000000000E+01 0.  0.
    9000005    1    3    3    0    0  0.75810392265E+02 -0.55827195423E+02 -0.72095251516E+03  0.72707456319E+03  0.10000000000E+01 0.  0.
         -4    1    1    2    0  502 -0.30188669881E+02  0.60428189937E+02 -0.12123403440E+04  0.12142214150E+04  0.12700000000E+01 0. -1.
<mgrwt>
<rscale>  1 0.14208458E+03</rscale>
<asrwt>0</asrwt>
<pdfrwt beam="2">  1       21 0.33568559E+00 0.14208458E+03</pdfrwt>
<pdfrwt beam="1">  1       -4 0.94624429E-03 0.14208458E+03</pdfrwt>
<totfact> 0.29365978E+03</totfact>
</mgrwt>
</event>
<event>
 6    3  0.3813045E-003  0.1603501E+03  0.7818608E-02  0.1188302E+00
         21   -1    0    0  501  502  0.00000000000E+00  0.00000000000E+00  0.29424490745E+02  0.29424490745E+02  0.00000000000E+00 0. -1.
          4   -1    0    0  502    0 -0.00000000000E+00 -0.00000000000E+00 -0.18787790927E+04  0.18787795220E+04  0.12700000000E+01 0.  1.
         25    2    1    2    0    0  0.95294059901E+02  0.31719485125E+02 -0.17774707727E+04  0.17846889068E+04  0.12500024975E+03 0.  0.
    9000005    1    3    3    0    0  0.21997527448E+02  0.67087463494E+02 -0.11156795684E+04  0.11179116773E+04  0.10000000000E+01 0.  0.
    9000005    1    3    3    0    0  0.73296532453E+02 -0.35367978369E+02 -0.66179120436E+03  0.66677722947E+03  0.10000000000E+01 0.  0.
          4    1    1    2  501    0 -0.95294059901E+02 -0.31719485125E+02 -0.71883829251E+02  0.12351510595E+03  0.12700000000E+01 0. -1.
<mgrwt>
<rscale>  1 0.16035007E+03</rscale>
<asrwt>0</asrwt>
<pdfrwt beam="1">  1       21 0.45268420E-02 0.16035007E+03</pdfrwt>
<pdfrwt beam="2">  1        4 0.28904525E+00 0.16035007E+03</pdfrwt>
<totfact> 0.57775159E+02</totfact>
</mgrwt>
</event>
<event>
 6    3  0.3813045E-003  0.1274134E+03  0.7818608E-02  0.1231345E+00
          4   -1    0    0  502    0 -0.00000000000E+00  0.00000000000E+00  0.24501387684E+03  0.24501716826E+03  0.12700000000E+01 0.  1.
         21   -1    0    0  501  502  0.00000000000E+00 -0.00000000000E+00 -0.33509986471E+02  0.33509986471E+02  0.00000000000E+00 0.  1.
         25    2    1    2    0    0 -0.12808047927E+02 -0.21111992191E+02  0.21840729926E+03  0.25285553110E+03  0.12499763570E+03 0.  0.
    9000005    1    3    3    0    0 -0.70609712008E+01  0.34286596943E+02  0.18417061425E+03  0.18747064622E+03  0.10000000000E+01 0.  0.
    9000005    1    3    3    0    0 -0.57470767260E+01 -0.55398589134E+02  0.34236685012E+02  0.65384884871E+02  0.10000000000E+01 0.  0.
          4    1    1    2  501    0  0.12808047927E+02  0.21111992191E+02 -0.69034088892E+01  0.25671623639E+02  0.12700000000E+01 0. -1.
<mgrwt>
<rscale>  1 0.12741339E+03</rscale>
<asrwt>0</asrwt>
<pdfrwt beam="2">  1       21 0.51553827E-02 0.12741339E+03</pdfrwt>
<pdfrwt beam="1">  1        4 0.37696546E-01 0.12741339E+03</pdfrwt>
<totfact> 0.69777724E+04</totfact>
</mgrwt>
</event>
<event>
 6    3  0.3813045E-003  0.1299433E+03  0.7818608E-02  0.1227540E+00
         21   -1    0    0  501  502  0.00000000000E+00  0.00000000000E+00  0.19798129959E+03  0.19798129959E+03  0.00000000000E+00 0. -1.
          4   -1    0    0  502    0 -0.00000000000E+00 -0.00000000000E+00 -0.36306509345E+02  0.36328714825E+02  0.12700000000E+01 0. -1.
         25    2    1    2    0    0 -0.33499362586E+02 -0.11738898319E+02  0.10339627799E+03  0.16606042161E+03  0.12500105718E+03 0.  0.
    9000005    1    3    3    0    0  0.15374942499E+02  0.44456618843E+02  0.70213901579E+02  0.84520836430E+02  0.10000000000E+01 0.  0.
    9000005    1    3    3    0    0 -0.48874305085E+02 -0.56195517163E+02  0.33182376408E+02  0.81539585177E+02  0.10000000000E+01 0.  0.
          4    1    1    2  501    0  0.33499362586E+02  0.11738898319E+02  0.58278512254E+02  0.68249592804E+02  0.12700000000E+01 0.  1.
<mgrwt>
<rscale>  1 0.12994335E+03</rscale>
<asrwt>0</asrwt>
<pdfrwt beam="1">  1       21 0.30458661E-01 0.12994335E+03</pdfrwt>
<pdfrwt beam="2">  1        4 0.55876384E-02 0.12994335E+03</pdfrwt>
<totfact> 0.83110987E+04</totfact>
</mgrwt>
</event>
<event>
 6    3  0.3813045E-003  0.1275040E+03  0.7818608E-02  0.1231207E+00
         -4   -1    0    0    0  501 -0.00000000000E+00  0.00000000000E+00  0.61840946082E+02  0.61853985420E+02  0.12700000000E+01 0. -1.
         21   -1    0    0  501  502  0.00000000000E+00 -0.00000000000E+00 -0.10424252298E+03  0.10424252298E+03  0.00000000000E+00 0.  1.
         25    2    1    2    0    0  0.23309626016E+02  0.94820665557E+01 -0.14221477878E+02  0.12829466807E+03  0.12499609263E+03 0.  0.
    9000005    1    3    3    0    0  0.35606042121E+02 -0.16811181791E+02 -0.61367670375E+02  0.72920484337E+02  0.10000000000E+01 0.  0.
    9000005    1    3    3    0    0 -0.12296416105E+02  0.26293248346E+02  0.47146192497E+02  0.55374183737E+02  0.10000000000E+01 0.  0.
         -4    1    1    2    0  502 -0.23309626016E+02 -0.94820665557E+01 -0.28180099016E+02  0.37801840322E+02  0.12700000000E+01 0.  1.
<mgrwt>
<rscale>  1 0.12750401E+03</rscale>
<asrwt>0</asrwt>
<pdfrwt beam="2">  1       21 0.16037311E-01 0.12750401E+03</pdfrwt>
<pdfrwt beam="1">  1       -4 0.95155899E-02 0.12750401E+03</pdfrwt>
<totfact> 0.11447231E+05</totfact>
</mgrwt>
</event>
<event>
 6    3  0.3813045E-003  0.1279191E+03  0.7818608E-02  0.1230576E+00
         -4   -1    0    0    0  501 -0.00000000000E+00  0.00000000000E+00  0.35253148526E+03  0.35253377285E+03  0.12700000000E+01 0. -1.
         21   -1    0    0  501  502  0.00000000000E+00 -0.00000000000E+00 -0.27382658503E+02  0.27382658503E+02  0.00000000000E+00 0. -1.
         25    2    1    2    0    0 -0.69767589193E+01 -0.26267717205E+02  0.32847660476E+03  0.35250557331E+03  0.12499852482E+03 0.  0.
    9000005    1    3    3    0    0  0.36225381354E+02  0.93237902678E+01  0.26598632759E+03  0.26860554310E+03  0.10000000000E+01 0.  0.
    9000005    1    3    3    0    0 -0.43202140274E+02 -0.35591507472E+02  0.62490277174E+02  0.83900030213E+02  0.10000000000E+01 0.  0.
         -4    1    1    2    0  502  0.69767589193E+01  0.26267717205E+02 -0.33277780047E+01  0.27410858042E+02  0.12700000000E+01 0.  1.
<mgrwt>
<rscale>  1 0.12791911E+03</rscale>
<asrwt>0</asrwt>
<pdfrwt beam="2">  1       21 0.42127170E-02 0.12791911E+03</pdfrwt>
<pdfrwt beam="1">  1       -4 0.54238051E-01 0.12791911E+03</pdfrwt>
<totfact> 0.47228777E+04</totfact>
</mgrwt>
</event>
<event>
 6    3  0.3813045E-003  0.1266889E+03  0.7818608E-02  0.1232453E+00
         -4   -1    0    0    0  501 -0.00000000000E+00  0.00000000000E+00  0.59816375336E+02  0.59829855911E+02  0.12700000000E+01 0. -1.
         21   -1    0    0  501  502  0.00000000000E+00 -0.00000000000E+00 -0.91227336604E+02  0.91227336604E+02  0.00000000000E+00 0. -1.
         25    2    1    2    0    0 -0.19312533268E+02  0.71981013154E+01 -0.30893503642E+02  0.13040126682E+03  0.12500118087E+03 0.  0.
    9000005    1    3    3    0    0 -0.13499000921E+02 -0.26766939641E+02 -0.71261277530E+02  0.77316633132E+02  0.10000000000E+01 0.  0.
    9000005    1    3    3    0    0 -0.58135323464E+01  0.33965040957E+02  0.40367773888E+02  0.53084633692E+02  0.10000000000E+01 0.  0.
         -4    1    1    2    0  502  0.19312533268E+02 -0.71981013154E+01 -0.51745762648E+00  0.20655925691E+02  0.12700000000E+01 0.  1.
<mgrwt>
<rscale>  1 0.12668892E+03</rscale>
<asrwt>0</asrwt>
<pdfrwt beam="2">  1       21 0.14034975E-01 0.12668892E+03</pdfrwt>
<pdfrwt beam="1">  1       -4 0.92042362E-02 0.12668892E+03</pdfrwt>
<totfact> 0.15376514E+05</totfact>
</mgrwt>
</event>
<event>
 6    3  0.3813045E-003  0.1270878E+03  0.7818608E-02  0.1231842E+00
         -4   -1    0    0    0  501 -0.00000000000E+00  0.00000000000E+00  0.42461369538E+02  0.42480357850E+02  0.12700000000E+01 0.  1.
         21   -1    0    0  501  502  0.00000000000E+00 -0.00000000000E+00 -0.16046772069E+03  0.16046772069E+03  0.00000000000E+00 0.  1.
         25    2    1    2    0    0  0.71293952219E+01 -0.21823776367E+02 -0.59977853741E+02  0.14052993292E+03  0.12499685442E+03 0.  0.
    9000005    1    3    3    0    0 -0.22395619954E+02 -0.62214792957E+02 -0.51982872821E+01  0.66334504193E+02  0.10000000000E+01 0.  0.
    9000005    1    3    3    0    0  0.29525015176E+02  0.40391016590E+02 -0.54779566459E+02  0.74195428726E+02  0.10000000000E+01 0.  0.
         -4    1    1    2    0  502 -0.71293952219E+01  0.21823776367E+02 -0.58028497414E+02  0.62418145625E+02  0.12700000000E+01 0. -1.
<mgrwt>
<rscale>  1 0.12708784E+03</rscale>
<asrwt>0</asrwt>
<pdfrwt beam="2">  1       21 0.24687342E-01 0.12708784E+03</pdfrwt>
<pdfrwt beam="1">  1       -4 0.65343657E-02 0.12708784E+03</pdfrwt>
<totfact> 0.95978650E+04</totfact>
</mgrwt>
</event>
<event>
 6    3  0.3813045E-003  0.1303660E+03  0.7818608E-02  0.1226914E+00
          4   -1    0    0  502    0 -0.00000000000E+00  0.00000000000E+00  0.10888372709E+03  0.10889113336E+03  0.12700000000E+01 0. -1.
         21   -1    0    0  501  502  0.00000000000E+00 -0.00000000000E+00 -0.65886354136E+02  0.65886354136E+02  0.00000000000E+00 0. -1.
         25    2    1    2    0    0  0.10337529077E+02  0.35574941308E+02  0.22104307286E+02  0.13222664674E+03  0.12499137870E+03 0.  0.
    9000005    1    3    3    0    0  0.55058072190E+02  0.53017577244E+02  0.32563957374E+02  0.83088303208E+02  0.10000000000E+01 0.  0.
    9000005    1    3    3    0    0 -0.44720543113E+02 -0.17442635936E+02 -0.10459650088E+02  0.49138343528E+02  0.10000000000E+01 0.  0.
          4    1    1    2  501    0 -0.10337529077E+02 -0.35574941308E+02  0.20893065665E+02  0.42550840760E+02  0.12700000000E+01 0.  1.
<mgrwt>
<rscale>  1 0.13036597E+03</rscale>
<asrwt>0</asrwt>
<pdfrwt beam="2">  1       21 0.10136362E-01 0.13036597E+03</pdfrwt>
<pdfrwt beam="1">  1        4 0.16752854E-01 0.13036597E+03</pdfrwt>
<totfact> 0.98377442E+04</totfact>
</mgrwt>
</event>
<event>
 6    3  0.3813045E-003  0.1268538E+03  0.7818608E-02  0.1232200E+00
         21   -1    0    0  501  502  0.00000000000E+00  0.00000000000E+00  0.13884622375E+02  0.13884622375E+02  0.00000000000E+00 0. -1.
          4   -1    0    0  502    0 -0.00000000000E+00 -0.00000000000E+00 -0.64924356355E+03  0.64924480568E+03  0.12700000000E+01 0. -1.
         25    2    1    2    0    0  0.13980455174E+02  0.16463945815E+02 -0.62736836302E+03  0.64006480411E+03  0.12500150360E+03 0.  0.
    9000005    1    3    3    0    0  0.57637100819E+02  0.46309031356E+02 -0.37107696256E+03  0.37837240111E+03  0.10000000000E+01 0.  0.
    9000005    1    3    3    0    0 -0.43656645646E+02 -0.29845085541E+02 -0.25629140046E+03  0.26169240300E+03  0.10000000000E+01 0.  0.
          4    1    1    2  501    0 -0.13980455174E+02 -0.16463945815E+02 -0.79905781505E+01  0.23064623948E+02  0.12700000000E+01 0.  1.
<mgrwt>
<rscale>  1 0.12685382E+03</rscale>
<asrwt>0</asrwt>
<pdfrwt beam="1">  1       21 0.21360956E-02 0.12685382E+03</pdfrwt>
<pdfrwt beam="2">  1        4 0.99888195E-01 0.12685382E+03</pdfrwt>
<totfact> 0.38028850E+04</totfact>
</mgrwt>
</event>
<event>
 6    3  0.3813045E-003  0.1272658E+03  0.7818608E-02  0.1231570E+00
         -4   -1    0    0    0  501 -0.00000000000E+00  0.00000000000E+00  0.99011909329E+02  0.99020053974E+02  0.12700000000E+01 0. -1.
         21   -1    0    0  501  502  0.00000000000E+00 -0.00000000000E+00 -0.10729194206E+03  0.10729194206E+03  0.00000000000E+00 0.  1.
         25    2    1    2    0    0 -0.66440167383E+00  0.23899625385E+02  0.55009019346E+02  0.13864553066E+03  0.12499982976E+03 0.  0.
    9000005    1    3    3    0    0 -0.31639341705E+02 -0.24064307086E+02 -0.19889742369E+02  0.44460551847E+02  0.10000000000E+01 0.  0.
    9000005    1    3    3    0    0  0.30974940031E+02  0.47963932471E+02  0.74898761715E+02  0.94184978815E+02  0.10000000000E+01 0.  0.
         -4    1    1    2    0  502  0.66440167383E+00 -0.23899625385E+02 -0.63289052077E+02  0.67666465372E+02  0.12700000000E+01 0.  1.
<mgrwt>
<rscale>  1 0.12726583E+03</rscale>
<asrwt>0</asrwt>
<pdfrwt beam="2">  1       21 0.16506453E-01 0.12726583E+03</pdfrwt>
<pdfrwt beam="1">  1       -4 0.15233806E-01 0.12726583E+03</pdfrwt>
<totfact> 0.48582959E+04</totfact>
</mgrwt>
</event>
<event>
 6    3  0.3813045E-003  0.1305991E+03  0.7818608E-02  0.1226569E+00
         21   -1    0    0  501  502  0.00000000000E+00  0.00000000000E+00  0.50897115785E+02  0.50897115785E+02  0.00000000000E+00 0. -1.
         -4   -1    0    0    0  501 -0.00000000000E+00 -0.00000000000E+00 -0.55176867322E+03  0.55177013479E+03  0.12700000000E+01 0.  1.
         25    2    1    2    0    0  0.32527054370E+02  0.19326766296E+02 -0.53560086885E+03  0.55129341354E+03  0.12499841573E+03 0.  0.
    9000005    1    3    3    0    0  0.78256407178E+02  0.28449109375E+02 -0.36958395498E+03  0.37884920069E+03  0.10000000000E+01 0.  0.
    9000005    1    3    3    0    0 -0.45729352808E+02 -0.91223430787E+01 -0.16601691387E+03  0.17244421285E+03  0.10000000000E+01 0.  0.
         -4    1    1    2    0  502 -0.32527054370E+02 -0.19326766296E+02  0.34729311411E+02  0.51373837043E+02  0.12700000000E+01 0. -1.
<mgrwt>
<rscale>  1 0.13059915E+03</rscale>
<asrwt>0</asrwt>
<pdfrwt beam="1">  1       21 0.78303252E-02 0.13059915E+03</pdfrwt>
<pdfrwt beam="2">  1       -4 0.84888823E-01 0.13059915E+03</pdfrwt>
<totfact> 0.63429982E+03</totfact>
</mgrwt>
</event>
<event>
 6    3  0.3813045E-003  0.1266216E+03  0.7818608E-02  0.1232557E+00
         21   -1    0    0  501  502  0.00000000000E+00  0.00000000000E+00  0.37477344814E+02  0.37477344814E+02  0.00000000000E+00 0. -1.
          4   -1    0    0  502    0 -0.00000000000E+00 -0.00000000000E+00 -0.14810343651E+03  0.14810888159E+03  0.12700000000E+01 0. -1.
         25    2    1    2    0    0 -0.14735401720E+02  0.13918989383E+02 -0.10504943204E+03  0.16452483133E+03  0.12498866598E+03 0.  0.
    9000005    1    3    3    0    0 -0.81611026046E+01  0.20990092760E+02  0.25258839751E+02  0.33855525035E+02  0.10000000000E+01 0.  0.
    9000005    1    3    3    0    0 -0.65742991150E+01 -0.70711033770E+01 -0.13030827179E+03  0.13066930630E+03  0.10000000000E+01 0.  0.
          4    1    1    2  501    0  0.14735401720E+02 -0.13918989383E+02 -0.55766596538E+01  0.21061395067E+02  0.12700000000E+01 0.  1.
<mgrwt>
<rscale>  1 0.12662163E+03</rscale>
<asrwt>0</asrwt>
<pdfrwt beam="1">  1       21 0.57657453E-02 0.12662163E+03</pdfrwt>
<pdfrwt beam="2">  1        4 0.22787218E-01 0.12662163E+03</pdfrwt>
<totfact> 0.14892069E+05</totfact>
</mgrwt>
</event>
<event>
 6    3  0.3813045E-003  0.1448902E+03  0.7818608E-02  0.1206896E+00
         21   -1    0    0  501  502  0.00000000000E+00  0.00000000000E+00  0.18635984919E+03  0.18635984919E+03  0.00000000000E+00 0.  1.
          4   -1    0    0  502    0 -0.00000000000E+00 -0.00000000000E+00 -0.68283983854E+02  0.68295793070E+02  0.12700000000E+01 0. -1.
         25    2    1    2    0    0 -0.36075516738E+02 -0.63772470065E+02  0.46370951617E+02  0.15212965337E+03  0.12499918174E+03 0.  0.
    9000005    1    3    3    0    0 -0.31745274892E+02 -0.35065186568E+02 -0.39402759152E+02  0.61570343639E+02  0.10000000000E+01 0.  0.
    9000005    1    3    3    0    0 -0.43302418457E+01 -0.28707283497E+02  0.85773710769E+02  0.90559309733E+02  0.10000000000E+01 0.  0.
          4    1    1    2  501    0  0.36075516738E+02  0.63772470065E+02  0.71704913720E+02  0.10252598889E+03  0.12700000000E+01 0.  1.
<mgrwt>
<rscale>  1 0.14489019E+03</rscale>
<asrwt>0</asrwt>
<pdfrwt beam="1">  1       21 0.28670746E-01 0.14489019E+03</pdfrwt>
<pdfrwt beam="2">  1        4 0.10506470E-01 0.14489019E+03</pdfrwt>
<totfact> 0.33289828E+04</totfact>
</mgrwt>
</event>
<event>
 6    3  0.3813045E-003  0.1294219E+03  0.7818608E-02  0.1228316E+00
         21   -1    0    0  501  502  0.00000000000E+00  0.00000000000E+00  0.41258023411E+02  0.41258023411E+02  0.00000000000E+00 0.  1.
          4   -1    0    0  502    0 -0.00000000000E+00 -0.00000000000E+00 -0.17980551148E+03  0.17980999654E+03  0.12700000000E+01 0.  1.
         25    2    1    2    0    0  0.11898119660E+02 -0.31358037549E+02 -0.76006480246E+02  0.15008997878E+03  0.12500049968E+03 0.  0.
    9000005    1    3    3    0    0  0.38119036369E+02 -0.34276881661E+02  0.16521060997E+02  0.53869388400E+02  0.10000000000E+01 0.  0.
    9000005    1    3    3    0    0 -0.26220916709E+02  0.29188441123E+01 -0.92527541243E+02  0.96220590377E+02  0.10000000000E+01 0.  0.
          4    1    1    2  501    0 -0.11898119660E+02  0.31358037549E+02 -0.62541007819E+02  0.70978041177E+02  0.12700000000E+01 0. -1.
<mgrwt>
<rscale>  1 0.12942186E+03</rscale>
<asrwt>0</asrwt>
<pdfrwt beam="1">  1       21 0.63473883E-02 0.12942186E+03</pdfrwt>
<pdfrwt beam="2">  1        4 0.27664235E-01 0.12942186E+03</pdfrwt>
<totfact> 0.88751963E+04</totfact>
</mgrwt>
</event>
<event>
 6    3  0.3813045E-003  0.1457871E+03  0.7818608E-02  0.1205747E+00
         21   -1    0    0  501  502  0.00000000000E+00  0.00000000000E+00  0.17425936486E+02  0.17425936486E+02  0.00000000000E+00 0.  1.
         -4   -1    0    0    0  501 -0.00000000000E+00 -0.00000000000E+00 -0.86762749929E+03  0.86762842878E+03  0.12700000000E+01 0. -1.
         25    2    1    2    0    0  0.28637138353E+02 -0.69342885636E+02 -0.72146121638E+03  0.73604358989E+03  0.12500143196E+03 0.  0.
    9000005    1    3    3    0    0  0.47937334390E+02 -0.61656740645E+02 -0.20831808531E+03  0.22247913692E+03  0.10000000000E+01 0.  0.
    9000005    1    3    3    0    0 -0.19300196037E+02 -0.76861449917E+01 -0.51314313106E+03  0.51356445297E+03  0.10000000000E+01 0.  0.
         -4    1    1    2    0  502 -0.28637138353E+02  0.69342885636E+02 -0.12874034643E+03  0.14901077538E+03  0.12700000000E+01 0.  1.
<mgrwt>
<rscale>  1 0.14578710E+03</rscale>
<asrwt>0</asrwt>
<pdfrwt beam="1">  1       21 0.26809129E-02 0.14578710E+03</pdfrwt>
<pdfrwt beam="2">  1       -4 0.13348480E+00 0.14578710E+03</pdfrwt>
<totfact> 0.13362274E+04</totfact>
</mgrwt>
</event>
<event>
 6    3  0.3813045E-003  0.1365353E+03  0.7818608E-02  0.1218069E+00
          4   -1    0    0  502    0 -0.00000000000E+00  0.00000000000E+00  0.50878326822E+02  0.50894174914E+02  0.12700000000E+01 0.  1.
         21   -1    0    0  501  502  0.00000000000E+00 -0.00000000000E+00 -0.18035344747E+03  0.18035344747E+03  0.00000000000E+00 0.  1.
         25    2    1    2    0    0 -0.52207531176E+02  0.17059896210E+02 -0.88453955595E+02  0.16268367229E+03  0.12500083439E+03 0.  0.
    9000005    1    3    3    0    0  0.37900671614E+02 -0.93138340082E+01 -0.99344693949E+01  0.40285259027E+02  0.10000000000E+01 0.  0.
    9000005    1    3    3    0    0 -0.90108202790E+02  0.26373730218E+02 -0.78519486200E+02  0.12239841326E+03  0.10000000000E+01 0.  0.
          4    1    1    2  501    0  0.52207531176E+02 -0.17059896210E+02 -0.41021165048E+02  0.68563950091E+02  0.12700000000E+01 0. -1.
<mgrwt>
<rscale>  1 0.13653525E+03</rscale>
<asrwt>0</asrwt>
<pdfrwt beam="2">  1       21 0.27746685E-01 0.13653525E+03</pdfrwt>
<pdfrwt beam="1">  1        4 0.78289978E-02 0.13653525E+03</pdfrwt>
<totfact> 0.57632543E+04</totfact>
</mgrwt>
</event>
<event>
 6    3  0.3813045E-003  0.1470566E+03  0.7818608E-02  0.1204137E+00
         -4   -1    0    0    0  501 -0.00000000000E+00  0.00000000000E+00  0.59853782489E+03  0.59853917226E+03  0.12700000000E+01 0.  1.
         21   -1    0    0  501  502  0.00000000000E+00 -0.00000000000E+00 -0.22466635240E+02  0.22466635240E+02  0.00000000000E+00 0.  1.
         25    2    1    2    0    0  0.37656927257E+02  0.67696133521E+02  0.44589563038E+03  0.46951950516E+03  0.12499936748E+03 0.  0.
    9000005    1    3    3    0    0  0.65648343663E+02  0.89806751346E+02  0.32911866783E+03  0.34741193867E+03  0.10000000000E+01 0.  0.
    9000005    1    3    3    0    0 -0.27991416406E+02 -0.22110617826E+02  0.11677696254E+03  0.12210756649E+03  0.10000000000E+01 0.  0.
         -4    1    1    2    0  502 -0.37656927257E+02 -0.67696133521E+02  0.13017555927E+03  0.15148630234E+03  0.12700000000E+01 0. -1.
<mgrwt>
<rscale>  1 0.14705663E+03</rscale>
<asrwt>0</asrwt>
<pdfrwt beam="2">  1       21 0.34564059E-02 0.14705663E+03</pdfrwt>
<pdfrwt beam="1">  1       -4 0.92085595E-01 0.14705663E+03</pdfrwt>
<totfact> 0.21208648E+04</totfact>
</mgrwt>
</event>
<event>
 6    3  0.3813045E-003  0.1305118E+03  0.7818608E-02  0.1226698E+00
         -4   -1    0    0    0  501 -0.00000000000E+00  0.00000000000E+00  0.17321015803E+02  0.17367512442E+02  0.12700000000E+01 0.  1.
         21   -1    0    0  501  502  0.00000000000E+00 -0.00000000000E+00 -0.41045624023E+03  0.41045624023E+03  0.00000000000E+00 0.  1.
         25    2    1    2    0    0 -0.12088042394E+02  0.35530602328E+02 -0.32053382800E+03  0.34608563345E+03  0.12499914527E+03 0.  0.
    9000005    1    3    3    0    0  0.75030785032E+01  0.55391518886E+02 -0.31189238153E+03  0.31686333680E+03  0.10000000000E+01 0.  0.
    9000005    1    3    3    0    0 -0.19591120897E+02 -0.19860916558E+02 -0.86414464724E+01  0.29222296653E+02  0.10000000000E+01 0.  0.
         -4    1    1    2    0  502  0.12088042394E+02 -0.35530602328E+02 -0.72601396425E+02  0.81738119220E+02  0.12700000000E+01 0. -1.
<mgrwt>
<rscale>  1 0.13051180E+03</rscale>
<asrwt>0</asrwt>
<pdfrwt beam="2">  1       21 0.63147106E-01 0.13051180E+03</pdfrwt>
<pdfrwt beam="1">  1       -4 0.26684998E-02 0.13051180E+03</pdfrwt>
<totfact> 0.61117584E+04</totfact>
</mgrwt>
</event>
<event>
 6    3  0.3813045E-003  0.1274004E+03  0.7818608E-02  0.1231365E+00
          4   -1    0    0  502    0 -0.00000000000E+00  0.00000000000E+00  0.53245200529E+03  0.53245351988E+03  0.12700000000E+01 0. -1.
         21   -1    0    0  501  502  0.00000000000E+00 -0.00000000000E+00 -0.44323592018E+02  0.44323592018E+02  0.00000000000E+00 0.  1.
         25    2    1    2    0    0  0.84194650286E+01  0.23132291495E+02  0.52062682900E+03  0.53598801744E+03  0.12499947786E+03 0.  0.
    9000005    1    3    3    0    0 -0.12906779858E+02  0.59120291095E+02  0.44879298878E+03  0.45285531968E+03  0.10000000000E+01 0.  0.
    9000005    1    3    3    0    0  0.21326244886E+02 -0.35987999601E+02  0.71833840223E+02  0.83132697764E+02  0.10000000000E+01 0.  0.
          4    1    1    2  501    0 -0.84194650286E+01 -0.23132291495E+02 -0.32498415735E+02  0.40789094454E+02  0.12700000000E+01 0.  1.
<mgrwt>
<rscale>  1 0.12740039E+03</rscale>
<asrwt>0</asrwt>
<pdfrwt beam="2">  1       21 0.68190145E-02 0.12740039E+03</pdfrwt>
<pdfrwt beam="1">  1        4 0.81917205E-01 0.12740039E+03</pdfrwt>
<totfact> 0.86847701E+03</totfact>
</mgrwt>
</event>
<event>
 6    3  0.3813045E-003  0.1275531E+03  0.7818608E-02  0.1231132E+00
         21   -1    0    0  501  502  0.00000000000E+00  0.00000000000E+00  0.23694122989E+02  0.23694122989E+02  0.00000000000E+00 0.  1.
          4   -1    0    0  502    0 -0.00000000000E+00 -0.00000000000E+00 -0.25299765130E+03  0.25300083885E+03  0.12700000000E+01 0.  1.
         25    2    1    2    0    0 -0.23089735995E+02  0.10537958873E+02 -0.20554515549E+03  0.24190620411E+03  0.12500246461E+03 0.  0.
    9000005    1    3    3    0    0 -0.33577038715E+02  0.59581449085E+02 -0.72278680940E+02  0.99511679327E+02  0.10000000000E+01 0.  0.
    9000005    1    3    3    0    0  0.10487302720E+02 -0.49043490212E+02 -0.13326647455E+03  0.14239452479E+03  0.10000000000E+01 0.  0.
          4    1    1    2  501    0  0.23089735995E+02 -0.10537958873E+02 -0.23758372816E+02  0.34788757730E+02  0.12700000000E+01 0. -1.
<mgrwt>
<rscale>  1 0.12755313E+03</rscale>
<asrwt>0</asrwt>
<pdfrwt beam="1">  1       21 0.36452496E-02 0.12755313E+03</pdfrwt>
<pdfrwt beam="2">  1        4 0.38925580E-01 0.12755313E+03</pdfrwt>
<totfact> 0.11683404E+05</totfact>
</mgrwt>
</event>
<event>
 6    3  0.3813045E-003  0.1269446E+03  0.7818608E-02  0.1232061E+00
         21   -1    0    0  501  502  0.00000000000E+00  0.00000000000E+00  0.20603941457E+03  0.20603941457E+03  0.00000000000E+00 0.  1.
         -4   -1    0    0    0  501 -0.00000000000E+00 -0.00000000000E+00 -0.36088838643E+02  0.36111177973E+02  0.12700000000E+01 0.  1.
         25    2    1    2    0    0  0.46568875818E+01 -0.21625477799E+02  0.81239757908E+02  0.15071443982E+03  0.12500238483E+03 0.  0.
    9000005    1    3    3    0    0  0.40847374437E+02 -0.59291942311E+02  0.62059749779E+02  0.95060270166E+02  0.10000000000E+01 0.  0.
    9000005    1    3    3    0    0 -0.36190486855E+02  0.37666464512E+02  0.19180008128E+02  0.55654169650E+02  0.10000000000E+01 0.  0.
         -4    1    1    2    0  502 -0.46568875818E+01  0.21625477799E+02  0.88710818018E+02  0.91436152727E+02  0.12700000000E+01 0. -1.
<mgrwt>
<rscale>  1 0.12694465E+03</rscale>
<asrwt>0</asrwt>
<pdfrwt beam="1">  1       21 0.31698371E-01 0.12694465E+03</pdfrwt>
<pdfrwt beam="2">  1       -4 0.55541486E-02 0.12694465E+03</pdfrwt>
<totfact> 0.77452061E+04</totfact>
</mgrwt>
</event>
<event>
 6    3  0.3813045E-003  0.1336995E+03  0.7818608E-02  0.1222067E+00
         -4   -1    0    0    0  501 -0.00000000000E+00  0.00000000000E+00  0.14570296717E+03  0.14570850195E+03  0.12700000000E+01 0.  1.
         21   -1    0    0  501  502  0.00000000000E+00 -0.00000000000E+00 -0.63299219502E+02  0.63299219502E+02  0.00000000000E+00 0. -1.
         25    2    1    2    0    0  0.47307658030E+02  0.36694667683E+01  0.89673868949E+02  0.16098744388E+03  0.12499629923E+03 0.  0.
    9000005    1    3    3    0    0 -0.15871368100E+02  0.16254439914E+02  0.93713381789E+02  0.96432904492E+02  0.10000000000E+01 0.  0.
    9000005    1    3    3    0    0  0.63179026129E+02 -0.12584973146E+02 -0.40395128408E+01  0.64554539389E+02  0.10000000000E+01 0.  0.
         -4    1    1    2    0  502 -0.47307658030E+02 -0.36694667683E+01 -0.72701212849E+01  0.48020277572E+02  0.12700000000E+01 0. -1.
<mgrwt>
<rscale>  1 0.13369949E+03</rscale>
<asrwt>0</asrwt>
<pdfrwt beam="2">  1       21 0.97383415E-02 0.13369949E+03</pdfrwt>
<pdfrwt beam="1">  1       -4 0.22417247E-01 0.13369949E+03</pdfrwt>
<totfact> 0.62825999E+04</totfact>
</mgrwt>
</event>
<event>
 6    3  0.3813045E-003  0.1279411E+03  0.7818608E-02  0.1230543E+00
         21   -1    0    0  501  502  0.00000000000E+00  0.00000000000E+00  0.23362339922E+02  0.23362339922E+02  0.00000000000E+00 0. -1.
          4   -1    0    0  502    0 -0.00000000000E+00 -0.00000000000E+00 -0.41522279817E+03  0.41522474037E+03  0.12700000000E+01 0. -1.
         25    2    1    2    0    0  0.23795786429E+02  0.13362703063E+02 -0.39083950723E+03  0.41124742913E+03  0.12499650503E+03 0.  0.
    9000005    1    3    3    0    0 -0.46898745743E+02 -0.83737819864E+01 -0.21968570177E+03  0.22479417283E+03  0.10000000000E+01 0.  0.
    9000005    1    3    3    0    0  0.70694532172E+02  0.21736485049E+02 -0.17115380546E+03  0.18645325630E+03  0.10000000000E+01 0.  0.
          4    1    1    2  501    0 -0.23795786429E+02 -0.13362703063E+02 -0.10209510191E+01  0.27339651167E+02  0.12700000000E+01 0.  1.
<mgrwt>
<rscale>  1 0.12794111E+03</rscale>
<asrwt>0</asrwt>
<pdfrwt beam="1">  1       21 0.35942063E-02 0.12794111E+03</pdfrwt>
<pdfrwt beam="2">  1        4 0.63883232E-01 0.12794111E+03</pdfrwt>
<totfact> 0.43650906E+04</totfact>
</mgrwt>
</event>
<event>
 6    3  0.3813045E-003  0.1361834E+03  0.7818608E-02  0.1218559E+00
         -4   -1    0    0    0  501 -0.00000000000E+00  0.00000000000E+00  0.41542485851E+03  0.41542679978E+03  0.12700000000E+01 0. -1.
         21   -1    0    0  501  502  0.00000000000E+00 -0.00000000000E+00 -0.28913723439E+02  0.28913723439E+02  0.00000000000E+00 0.  1.
         25    2    1    2    0    0 -0.40393595709E+02  0.35909481482E+02  0.35841069547E+03  0.38341121138E+03  0.12499918780E+03 0.  0.
    9000005    1    3    3    0    0 -0.47755362484E+02  0.47834586269E+01  0.34563835937E+03  0.34895605969E+03  0.10000000000E+01 0.  0.
    9000005    1    3    3    0    0  0.73617667745E+01  0.31126022855E+02  0.12772336096E+02  0.34455151692E+02  0.10000000000E+01 0.  0.
         -4    1    1    2    0  502  0.40393595709E+02 -0.35909481482E+02  0.28100439609E+02  0.60929311836E+02  0.12700000000E+01 0.  1.
<mgrwt>
<rscale>  1 0.13618344E+03</rscale>
<asrwt>0</asrwt>
<pdfrwt beam="2">  1       21 0.44482654E-02 0.13618344E+03</pdfrwt>
<pdfrwt beam="1">  1       -4 0.63913807E-01 0.13618344E+03</pdfrwt>
<totfact> 0.30831778E+04</totfact>
</mgrwt>
</event>
<event>
 6    3  0.3813045E-003  0.1347241E+03  0.7818608E-02  0.1220610E+00
         21   -1    0    0  501  502  0.00000000000E+00  0.00000000000E+00  0.96255662853E+02  0.96255662853E+02  0.00000000000E+00 0.  1.
         -4   -1    0    0    0  501 -0.00000000000E+00 -0.00000000000E+00 -0.15652647073E+03  0.15653162281E+03  0.12700000000E+01 0. -1.
         25    2    1    2    0    0 -0.96909723460E+01  0.49308078512E+02 -0.11596737783E+03  0.17776114117E+03  0.12500155614E+03 0.  0.
    9000005    1    3    3    0    0 -0.21014755270E+01 -0.19827833926E+02  0.17956041489E+02  0.26851045111E+02  0.10000000000E+01 0.  0.
    9000005    1    3    3    0    0 -0.75894968190E+01  0.69135912439E+02 -0.13392341932E+03  0.15091009606E+03  0.10000000000E+01 0.  0.
         -4    1    1    2    0  502  0.96909723460E+01 -0.49308078512E+02  0.55696569958E+02  0.75026144487E+02  0.12700000000E+01 0.  1.
<mgrwt>
<rscale>  1 0.13472413E+03</rscale>
<asrwt>0</asrwt>
<pdfrwt beam="1">  1       21 0.14808563E-01 0.13472413E+03</pdfrwt>
<pdfrwt beam="2">  1       -4 0.24082036E-01 0.13472413E+03</pdfrwt>
<totfact> 0.26220190E+04</totfact>
</mgrwt>
</event>
<event>
 6    3  0.3813045E-003  0.1393571E+03  0.7818608E-02  0.1214197E+00
         -4   -1    0    0    0  501 -0.00000000000E+00  0.00000000000E+00  0.23598364741E+03  0.23598706479E+03  0.12700000000E+01 0. -1.
         21   -1    0    0  501  502  0.00000000000E+00 -0.00000000000E+00 -0.59661566944E+02  0.59661566944E+02  0.00000000000E+00 0.  1.
         25    2    1    2    0    0  0.61501883702E+02 -0.37562599172E+01  0.18688215934E+03  0.23312088307E+03  0.12499525373E+03 0.  0.
    9000005    1    3    3    0    0  0.65350416372E+02 -0.56008548432E+02  0.10318147123E+03  0.13436908284E+03  0.10000000000E+01 0.  0.
    9000005    1    3    3    0    0 -0.38485326709E+01  0.52252288514E+02  0.83700688109E+02  0.98751800230E+02  0.10000000000E+01 0.  0.
         -4    1    1    2    0  502 -0.61501883702E+02  0.37562599172E+01 -0.10560078867E+02  0.62527748665E+02  0.12700000000E+01 0.  1.
<mgrwt>
<rscale>  1 0.13935711E+03</rscale>
<asrwt>0</asrwt>
<pdfrwt beam="2">  1       21 0.91787027E-02 0.13935711E+03</pdfrwt>
<pdfrwt beam="1">  1       -4 0.36306479E-01 0.13935711E+03</pdfrwt>
<totfact> 0.28291290E+04</totfact>
</mgrwt>
</event>
<event>
 6    3  0.3813045E-003  0.1475128E+03  0.7818608E-02  0.1203563E+00
         -4   -1    0    0    0  501 -0.00000000000E+00  0.00000000000E+00  0.33088088187E+02  0.33112452036E+02  0.12700000000E+01 0. -1.
         21   -1    0    0  501  502  0.00000000000E+00 -0.00000000000E+00 -0.80507724519E+03  0.80507724519E+03  0.00000000000E+00 0.  1.
         25    2    1    2    0    0 -0.35768502929E+02 -0.69680561315E+02 -0.14679713260E+03  0.20810918912E+03  0.12500108010E+03 0.  0.
    9000005    1    3    3    0    0 -0.62832680208E+01 -0.34370289182E+02 -0.15711274077E+03  0.16095406037E+03  0.10000000000E+01 0.  0.
    9000005    1    3    3    0    0 -0.29485234908E+02 -0.35310272133E+02  0.10315608167E+02  0.47155128751E+02  0.10000000000E+01 0.  0.
         -4    1    1    2    0  502  0.35768502929E+02  0.69680561315E+02 -0.62519202440E+03  0.63008050811E+03  0.12700000000E+01 0.  1.
<mgrwt>
<rscale>  1 0.14751283E+03</rscale>
<asrwt>0</asrwt>
<pdfrwt beam="2">  1       21 0.12385803E+00 0.14751283E+03</pdfrwt>
<pdfrwt beam="1">  1       -4 0.50924265E-02 0.14751283E+03</pdfrwt>
<totfact> 0.47337909E+03</totfact>
</mgrwt>
</event>
<event>
 6    3  0.3813045E-003  0.1293806E+03  0.7818608E-02  0.1228378E+00
         21   -1    0    0  501  502  0.00000000000E+00  0.00000000000E+00  0.25447551627E+03  0.25447551627E+03  0.00000000000E+00 0. -1.
         -4   -1    0    0    0  501 -0.00000000000E+00 -0.00000000000E+00 -0.32003889879E+02  0.32029078466E+02  0.12700000000E+01 0.  1.
         25    2    1    2    0    0 -0.21140657618E+02  0.25825280004E+02  0.11209639620E+03  0.17118687349E+03  0.12500188449E+03 0.  0.
    9000005    1    3    3    0    0 -0.49785705593E+02 -0.28092482254E+02  0.19771409076E+02  0.60495558989E+02  0.10000000000E+01 0.  0.
    9000005    1    3    3    0    0  0.28645047975E+02  0.53917762257E+02  0.92324987119E+02  0.11069131451E+03  0.10000000000E+01 0.  0.
         -4    1    1    2    0  502  0.21140657618E+02 -0.25825280004E+02  0.11037523019E+03  0.11531772124E+03  0.12700000000E+01 0. -1.
<mgrwt>
<rscale>  1 0.12938062E+03</rscale>
<asrwt>0</asrwt>
<pdfrwt beam="1">  1       21 0.39150078E-01 0.12938062E+03</pdfrwt>
<pdfrwt beam="2">  1       -4 0.49258569E-02 0.12938062E+03</pdfrwt>
<totfact> 0.62189933E+04</totfact>
</mgrwt>
</event>
<event>
 6    3  0.3813045E-003  0.1685525E+03  0.7818608E-02  0.1179366E+00
         21   -1    0    0  501  502  0.00000000000E+00  0.00000000000E+00  0.35279905781E+03  0.35279905781E+03  0.00000000000E+00 0.  1.
         -4   -1    0    0    0  501 -0.00000000000E+00 -0.00000000000E+00 -0.44185321689E+03  0.44185504204E+03  0.12700000000E+01 0. -1.
         25    2    1    2    0    0 -0.66558705846E+02  0.91399080829E+02 -0.41592409947E+03  0.44877923211E+03  0.12500435734E+03 0.  0.
    9000005    1    3    3    0    0 -0.70246452912E+02 -0.30528680334E+01 -0.13245441713E+03  0.14996351812E+03  0.10000000000E+01 0.  0.
    9000005    1    3    3    0    0  0.36877470660E+01  0.94451948863E+02 -0.28346968234E+03  0.29881571399E+03  0.10000000000E+01 0.  0.
         -4    1    1    2    0  502  0.66558705846E+02 -0.91399080829E+02  0.32686994039E+03  0.34587486773E+03  0.12700000000E+01 0.  1.
<mgrwt>
<rscale>  1 0.16855249E+03</rscale>
<asrwt>0</asrwt>
<pdfrwt beam="1">  1       21 0.54276778E-01 0.16855249E+03</pdfrwt>
<pdfrwt beam="2">  1       -4 0.67977734E-01 0.16855249E+03</pdfrwt>
<totfact> 0.27468468E+02</totfact>
</mgrwt>
</event>
<event>
 6    3  0.3813045E-003  0.1293085E+03  0.7818608E-02  0.1228485E+00
          4   -1    0    0  502    0 -0.00000000000E+00  0.00000000000E+00  0.46816295535E+02  0.46833518207E+02  0.12700000000E+01 0.  1.
         21   -1    0    0  501  502  0.00000000000E+00 -0.00000000000E+00 -0.14497009307E+03  0.14497009307E+03  0.00000000000E+00 0.  1.
         25    2    1    2    0    0 -0.32970815512E+02  0.25580717907E+01 -0.64123438314E+02  0.14433470929E+03  0.12500829796E+03 0.  0.
    9000005    1    3    3    0    0 -0.38487351873E+02  0.23163984986E+02  0.25866826641E+02  0.51845338991E+02  0.10000000000E+01 0.  0.
    9000005    1    3    3    0    0  0.55165363615E+01 -0.20605913195E+02 -0.89990264955E+02  0.92489370302E+02  0.10000000000E+01 0.  0.
          4    1    1    2  501    0  0.32970815512E+02 -0.25580717907E+01 -0.34030359219E+02  0.47468901982E+02  0.12700000000E+01 0. -1.
<mgrwt>
<rscale>  1 0.12930852E+03</rscale>
<asrwt>0</asrwt>
<pdfrwt beam="2">  1       21 0.22303091E-01 0.12930852E+03</pdfrwt>
<pdfrwt beam="1">  1        4 0.72042598E-02 0.12930852E+03</pdfrwt>
<totfact> 0.99218471E+04</totfact>
</mgrwt>
</event>
<event>
 6    3  0.3813045E-003  0.1461627E+03  0.7818608E-02  0.1205269E+00
         -4   -1    0    0    0  501 -0.00000000000E+00  0.00000000000E+00  0.64752831109E+03  0.64752955651E+03  0.12700000000E+01 0.  1.
         21   -1    0    0  501  502  0.00000000000E+00 -0.00000000000E+00 -0.23611719336E+02  0.23611719336E+02  0.00000000000E+00 0. -1.
         25    2    1    2    0    0  0.61173672586E+02 -0.44721844172E+02  0.53351260715E+03  0.55317197944E+03  0.12498510025E+03 0.  0.
    9000005    1    3    3    0    0  0.41582814893E+02  0.53795450292E+01  0.46086445285E+03  0.46276896384E+03  0.10000000000E+01 0.  0.
    9000005    1    3    3    0    0  0.19590857693E+02 -0.50101389201E+02  0.72648154307E+02  0.90403015598E+02  0.10000000000E+01 0.  0.
         -4    1    1    2    0  502 -0.61173672586E+02  0.44721844172E+02  0.90403984597E+02  0.11796929641E+03  0.12700000000E+01 0. -1.
<mgrwt>
<rscale>  1 0.14616271E+03</rscale>
<asrwt>0</asrwt>
<pdfrwt beam="2">  1       21 0.36325727E-02 0.14616271E+03</pdfrwt>
<pdfrwt beam="1">  1       -4 0.99622450E-01 0.14616271E+03</pdfrwt>
<totfact> 0.16298285E+04</totfact>
</mgrwt>
</event>
<event>
 6    3  0.3813045E-003  0.1445460E+03  0.7818608E-02  0.1207340E+00
         21   -1    0    0  501  502  0.00000000000E+00  0.00000000000E+00  0.42070411276E+03  0.42070411276E+03  0.00000000000E+00 0.  1.
          4   -1    0    0  502    0 -0.00000000000E+00 -0.00000000000E+00 -0.85041277939E+02  0.85050760453E+02  0.12700000000E+01 0. -1.
         25    2    1    2    0    0 -0.70373713214E+02 -0.17768799700E+02 -0.17142063934E+02  0.14555895536E+03  0.12500147749E+03 0.  0.
    9000005    1    3    3    0    0 -0.59499076818E+02  0.48219357570E+00  0.48365590938E+02  0.76685090074E+02  0.10000000000E+01 0.  0.
    9000005    1    3    3    0    0 -0.10874636396E+02 -0.18250993275E+02 -0.65507654872E+02  0.68873865284E+02  0.10000000000E+01 0.  0.
          4    1    1    2  501    0  0.70373713214E+02  0.17768799700E+02  0.35280489875E+03  0.36019591785E+03  0.12700000000E+01 0.  1.
<mgrwt>
<rscale>  1 0.14454605E+03</rscale>
<asrwt>0</asrwt>
<pdfrwt beam="1">  1       21 0.64723709E-01 0.14454605E+03</pdfrwt>
<pdfrwt beam="2">  1        4 0.13084151E-01 0.14454605E+03</pdfrwt>
<totfact> 0.43776670E+03</totfact>
</mgrwt>
</event>
<event>
 6    3  0.3813045E-003  0.1306951E+03  0.7818608E-02  0.1226428E+00
         -4   -1    0    0    0  501 -0.00000000000E+00  0.00000000000E+00  0.15705754920E+03  0.15706268386E+03  0.12700000000E+01 0.  1.
         21   -1    0    0  501  502  0.00000000000E+00 -0.00000000000E+00 -0.63371594454E+02  0.63371594454E+02  0.00000000000E+00 0. -1.
         25    2    1    2    0    0 -0.47584842394E+01  0.37849879183E+02  0.11724681207E+03  0.17557914010E+03  0.12500385183E+03 0.  0.
    9000005    1    3    3    0    0 -0.41575885015E+02  0.68788074445E+02  0.88442379858E+02  0.11951321247E+03  0.10000000000E+01 0.  0.
    9000005    1    3    3    0    0  0.36817400776E+02 -0.30938195262E+02  0.28804432210E+02  0.56065927629E+02  0.10000000000E+01 0.  0.
         -4    1    1    2    0  502  0.47584842394E+01 -0.37849879183E+02 -0.23560857321E+02  0.44855138213E+02  0.12700000000E+01 0. -1.
<mgrwt>
<rscale>  1 0.13069514E+03</rscale>
<asrwt>0</asrwt>
<pdfrwt beam="2">  1       21 0.97494761E-02 0.13069514E+03</pdfrwt>
<pdfrwt beam="1">  1       -4 0.24164074E-01 0.13069514E+03</pdfrwt>
<totfact> 0.54499131E+04</totfact>
</mgrwt>
</event>
<event>
 6    3  0.3813045E-003  0.1291684E+03  0.7818608E-02  0.1228695E+00
         -4   -1    0    0    0  501 -0.00000000000E+00  0.00000000000E+00  0.61916756768E+02  0.61929780144E+02  0.12700000000E+01 0.  1.
         21   -1    0    0  501  502  0.00000000000E+00 -0.00000000000E+00 -0.28778035730E+03  0.28778035730E+03  0.00000000000E+00 0. -1.
         25    2    1    2    0    0  0.13870453529E+02 -0.29400016874E+02 -0.79837891730E+01  0.12941493647E+03  0.12501093720E+03 0.  0.
    9000005    1    3    3    0    0 -0.50628334830E+02 -0.35056352836E+02  0.95601889560E+01  0.62326345751E+02  0.10000000000E+01 0.  0.
    9000005    1    3    3    0    0  0.64498788360E+02  0.56563359617E+01 -0.17543978129E+02  0.67088590721E+02  0.10000000000E+01 0.  0.
         -4    1    1    2    0  502 -0.13870453529E+02  0.29400016874E+02 -0.21787981136E+03  0.22029520098E+03  0.12700000000E+01 0. -1.
<mgrwt>
<rscale>  1 0.12916844E+03</rscale>
<asrwt>0</asrwt>
<pdfrwt beam="2">  1       21 0.44273901E-01 0.12916844E+03</pdfrwt>
<pdfrwt beam="1">  1       -4 0.95268723E-02 0.12916844E+03</pdfrwt>
<totfact> 0.16476942E+04</totfact>
</mgrwt>
</event>
<event>
 6    3  0.3813045E-003  0.1271403E+03  0.7818608E-02  0.1231762E+00
         21   -1    0    0  501  502  0.00000000000E+00  0.00000000000E+00  0.91267142156E+01  0.91267142156E+01  0.00000000000E+00 0. -1.
         -4   -1    0    0    0  501 -0.00000000000E+00 -0.00000000000E+00 -0.62342939337E+03  0.62343068694E+03  0.12700000000E+01 0. -1.
         25    2    1    2    0    0  0.32850815377E+01  0.23007067810E+02 -0.53572651566E+03  0.55060654210E+03  0.12499819077E+03 0.  0.
    9000005    1    3    3    0    0 -0.71935965691E+01  0.44295730344E+02 -0.63390023380E+02  0.77673384260E+02  0.10000000000E+01 0.  0.
    9000005    1    3    3    0    0  0.10478678107E+02 -0.21288662535E+02 -0.47233649228E+03  0.47293315784E+03  0.10000000000E+01 0.  0.
         -4    1    1    2    0  502 -0.32850815377E+01 -0.23007067810E+02 -0.78576163499E+02  0.81950859057E+02  0.12700000000E+01 0.  1.
<mgrwt>
<rscale>  1 0.12714033E+03</rscale>
<asrwt>0</asrwt>
<pdfrwt beam="1">  1       21 0.14041099E-02 0.12714033E+03</pdfrwt>
<pdfrwt beam="2">  1       -4 0.95919108E-01 0.12714033E+03</pdfrwt>
<totfact> 0.81855961E+04</totfact>
</mgrwt>
</event>
<event>
 6    3  0.3813045E-003  0.1326487E+03  0.7818608E-02  0.1223578E+00
         -4   -1    0    0    0  501 -0.00000000000E+00  0.00000000000E+00  0.31664831336E+03  0.31665086018E+03  0.12700000000E+01 0. -1.
         21   -1    0    0  501  502  0.00000000000E+00 -0.00000000000E+00 -0.31835303220E+02  0.31835303220E+02  0.00000000000E+00 0.  1.
         25    2    1    2    0    0  0.44355315245E+02  0.17471501192E+01  0.27142406322E+03  0.30210380335E+03  0.12500095751E+03 0.  0.
    9000005    1    3    3    0    0  0.55767408137E+02  0.41794386202E+02  0.79564348838E+02  0.10577457225E+03  0.10000000000E+01 0.  0.
    9000005    1    3    3    0    0 -0.11412092892E+02 -0.40047236083E+02  0.19185971438E+03  0.19632923110E+03  0.10000000000E+01 0.  0.
         -4    1    1    2    0  502 -0.44355315245E+02 -0.17471501192E+01  0.13388946917E+02  0.46382360048E+02  0.12700000000E+01 0.  1.
<mgrwt>
<rscale>  1 0.13264873E+03</rscale>
<asrwt>0</asrwt>
<pdfrwt beam="2">  1       21 0.48977392E-02 0.13264873E+03</pdfrwt>
<pdfrwt beam="1">  1       -4 0.48717267E-01 0.13264873E+03</pdfrwt>
<totfact> 0.45939887E+04</totfact>
</mgrwt>
</event>
<event>
 6    3  0.3813045E-003  0.1316492E+03  0.7818608E-02  0.1225029E+00
          4   -1    0    0  502    0 -0.00000000000E+00  0.00000000000E+00  0.27709849086E+02  0.27738937189E+02  0.12700000000E+01 0.  1.
         21   -1    0    0  501  502  0.00000000000E+00 -0.00000000000E+00 -0.39638178598E+03  0.39638178598E+03  0.00000000000E+00 0. -1.
         25    2    1    2    0    0 -0.33856528772E+02  0.23659284387E+02 -0.14170001725E+03  0.19341768572E+03  0.12500191992E+03 0.  0.
    9000005    1    3    3    0    0 -0.42274688734E+02 -0.40875778790E+02 -0.35023515328E+02  0.68451626900E+02  0.10000000000E+01 0.  0.
    9000005    1    3    3    0    0  0.84181599621E+01  0.64535063178E+02 -0.10667650192E+03  0.12496605882E+03  0.10000000000E+01 0.  0.
          4    1    1    2  501    0  0.33856528772E+02 -0.23659284387E+02 -0.22697191965E+03  0.23070303745E+03  0.12700000000E+01 0. -1.
<mgrwt>
<rscale>  1 0.13164918E+03</rscale>
<asrwt>0</asrwt>
<pdfrwt beam="2">  1       21 0.60981813E-01 0.13164918E+03</pdfrwt>
<pdfrwt beam="1">  1        4 0.42654478E-02 0.13164918E+03</pdfrwt>
<totfact> 0.31497921E+04</totfact>
</mgrwt>
</event>
<event>
 6    3  0.3813045E-003  0.1282188E+03  0.7818608E-02  0.1230123E+00
         21   -1    0    0  501  502  0.00000000000E+00  0.00000000000E+00  0.24399334524E+03  0.24399334524E+03  0.00000000000E+00 0. -1.
          4   -1    0    0  502    0 -0.00000000000E+00 -0.00000000000E+00 -0.41938148335E+02  0.41957373438E+02  0.12700000000E+01 0.  1.
         25    2    1    2    0    0 -0.97536818439E+01 -0.26944451224E+02  0.60965548084E+02  0.14197488853E+03  0.12497573028E+03 0.  0.
    9000005    1    3    3    0    0 -0.35553050531E+01  0.26151493456E+02  0.80754999807E+02  0.84964173613E+02  0.10000000000E+01 0.  0.
    9000005    1    3    3    0    0 -0.61983767908E+01 -0.53095944681E+02 -0.19789451722E+02  0.57010714921E+02  0.10000000000E+01 0.  0.
          4    1    1    2  501    0  0.97536818439E+01  0.26944451224E+02  0.14108964882E+03  0.14397583015E+03  0.12700000000E+01 0. -1.
<mgrwt>
<rscale>  1 0.12821884E+03</rscale>
<asrwt>0</asrwt>
<pdfrwt beam="1">  1       21 0.37537437E-01 0.12821884E+03</pdfrwt>
<pdfrwt beam="2">  1        4 0.64537561E-02 0.12821884E+03</pdfrwt>
<totfact> 0.43630944E+04</totfact>
</mgrwt>
</event>
<event>
 6    3  0.3813045E-003  0.1434433E+03  0.7818608E-02  0.1208769E+00
         21   -1    0    0  501  502  0.00000000000E+00  0.00000000000E+00  0.38282768120E+03  0.38282768120E+03  0.00000000000E+00 0. -1.
         -4   -1    0    0    0  501 -0.00000000000E+00 -0.00000000000E+00 -0.43334877561E+02  0.43353483288E+02  0.12700000000E+01 0.  1.
         25    2    1    2    0    0 -0.58723816247E+02 -0.38814995831E+02  0.95726486156E+02  0.17245154277E+03  0.12498353474E+03 0.  0.
    9000005    1    3    3    0    0  0.14259123397E+02 -0.54729476281E+02  0.78416490560E+01  0.57106301175E+02  0.10000000000E+01 0.  0.
    9000005    1    3    3    0    0 -0.72982939645E+02  0.15914480449E+02  0.87884837100E+02  0.11534524160E+03  0.10000000000E+01 0.  0.
         -4    1    1    2    0  502  0.58723816247E+02  0.38814995831E+02  0.24376631748E+03  0.25372962171E+03  0.12700000000E+01 0. -1.
<mgrwt>
<rscale>  1 0.14344328E+03</rscale>
<asrwt>0</asrwt>
<pdfrwt beam="1">  1       21 0.58896564E-01 0.14344328E+03</pdfrwt>
<pdfrwt beam="2">  1       -4 0.66684977E-02 0.14344328E+03</pdfrwt>
<totfact> 0.16607595E+04</totfact>
</mgrwt>
</event>
<event>
 6    3  0.3813045E-003  0.1293652E+03  0.7818608E-02  0.1228401E+00
         21   -1    0    0  501  502  0.00000000000E+00  0.00000000000E+00  0.88447851655E+01  0.88447851655E+01  0.00000000000E+00 0. -1.
          4   -1    0    0  502    0 -0.00000000000E+00 -0.00000000000E+00 -0.80779804001E+03  0.80779903834E+03  0.12700000000E+01 0. -1.
         25    2    1    2    0    0 -0.95587680897E+01  0.31921876373E+02 -0.70906677359E+03  0.72077115456E+03  0.12499996639E+03 0.  0.
    9000005    1    3    3    0    0 -0.52681515176E+02 -0.24684821931E+02 -0.32354875033E+03  0.32873922236E+03  0.10000000000E+01 0.  0.
    9000005    1    3    3    0    0  0.43122747086E+02  0.56606698304E+02 -0.38551802325E+03  0.39203193220E+03  0.10000000000E+01 0.  0.
          4    1    1    2  501    0  0.95587680897E+01 -0.31921876373E+02 -0.89886481252E+02  0.95872668944E+02  0.12700000000E+01 0.  1.
<mgrwt>
<rscale>  1 0.12936525E+03</rscale>
<asrwt>0</asrwt>
<pdfrwt beam="1">  1       21 0.13607357E-02 0.12936525E+03</pdfrwt>
<pdfrwt beam="2">  1        4 0.12428375E+00 0.12936525E+03</pdfrwt>
<totfact> 0.46902517E+04</totfact>
</mgrwt>
</event>
<event>
 6    3  0.3813045E-003  0.1374422E+03  0.7818608E-02  0.1216813E+00
          4   -1    0    0  502    0 -0.00000000000E+00  0.00000000000E+00  0.72677847276E+03  0.72677958238E+03  0.12700000000E+01 0. -1.
         21   -1    0    0  501  502  0.00000000000E+00 -0.00000000000E+00 -0.52425880806E+02  0.52425880806E+02  0.00000000000E+00 0.  1.
         25    2    1    2    0    0  0.52090131993E+02 -0.23501843331E+02  0.70226898282E+03  0.71559212913E+03  0.12499861019E+03 0.  0.
    9000005    1    3    3    0    0  0.30275270123E+02 -0.81196113380E+01  0.68025716281E+03  0.68097968224E+03  0.10000000000E+01 0.  0.
    9000005    1    3    3    0    0  0.21814861870E+02 -0.15382231993E+02  0.22011820009E+02  0.34612446889E+02  0.10000000000E+01 0.  0.
          4    1    1    2  501    0 -0.52090131993E+02  0.23501843331E+02 -0.27916390866E+02  0.63613334058E+02  0.12700000000E+01 0.  1.
<mgrwt>
<rscale>  1 0.13744225E+03</rscale>
<asrwt>0</asrwt>
<pdfrwt beam="2">  1       21 0.80655206E-02 0.13744225E+03</pdfrwt>
<pdfrwt beam="1">  1        4 0.11181333E+00 0.13744225E+03</pdfrwt>
<totfact> 0.32112362E+03</totfact>
</mgrwt>
</event>
<event>
 6    3  0.3813045E-003  0.1369381E+03  0.7818608E-02  0.1217509E+00
         -4   -1    0    0    0  501 -0.00000000000E+00  0.00000000000E+00  0.78348313019E+03  0.78348415951E+03  0.12700000000E+01 0. -1.
         21   -1    0    0  501  502  0.00000000000E+00 -0.00000000000E+00 -0.14161029401E+02  0.14161029401E+02  0.00000000000E+00 0. -1.
         25    2    1    2    0    0 -0.45016558704E+02  0.33192011762E+02  0.66812130179E+03  0.68201035496E+03  0.12499540060E+03 0.  0.
    9000005    1    3    3    0    0  0.39110466727E+02  0.14235748579E+02  0.34778107911E+03  0.35026413481E+03  0.10000000000E+01 0.  0.
    9000005    1    3    3    0    0 -0.84127025431E+02  0.18956263183E+02  0.32034022268E+03  0.33174622016E+03  0.10000000000E+01 0.  0.
         -4    1    1    2    0  502  0.45016558704E+02 -0.33192011762E+02  0.10120079900E+03  0.11563483394E+03  0.12700000000E+01 0.  1.
<mgrwt>
<rscale>  1 0.13693813E+03</rscale>
<asrwt>0</asrwt>
<pdfrwt beam="2">  1       21 0.21786205E-02 0.13693813E+03</pdfrwt>
<pdfrwt beam="1">  1       -4 0.12054029E+00 0.13693813E+03</pdfrwt>
<totfact> 0.23876019E+04</totfact>
</mgrwt>
</event>
<event>
 6    3  0.3813045E-003  0.1299549E+03  0.7818608E-02  0.1227523E+00
         21   -1    0    0  501  502  0.00000000000E+00  0.00000000000E+00  0.11206203547E+04  0.11206203547E+04  0.00000000000E+00 0.  1.
          4   -1    0    0  502    0 -0.00000000000E+00 -0.00000000000E+00 -0.76231411686E+01  0.77282068604E+01  0.12700000000E+01 0. -1.
         25    2    1    2    0    0 -0.29998326128E+01  0.35415536192E+02  0.58995761832E+03  0.60410120558E+03  0.12500006385E+03 0.  0.
    9000005    1    3    3    0    0 -0.45224486881E+02  0.39979095156E+02  0.50998075054E+03  0.51354157395E+03  0.10000000000E+01 0.  0.
    9000005    1    3    3    0    0  0.42224654268E+02 -0.45635589642E+01  0.79976867786E+02  0.90559631621E+02  0.10000000000E+01 0.  0.
          4    1    1    2  501    0  0.29998326128E+01 -0.35415536192E+02  0.52303959524E+03  0.52424735601E+03  0.12700000000E+01 0.  1.
<mgrwt>
<rscale>  1 0.12995490E+03</rscale>
<asrwt>0</asrwt>
<pdfrwt beam="1">  1       21 0.17240300E+00 0.12995490E+03</pdfrwt>
<pdfrwt beam="2">  1        4 0.11809292E-02 0.12995490E+03</pdfrwt>
<totfact> 0.19473064E+04</totfact>
</mgrwt>
</event>
<event>
 6    3  0.3813045E-003  0.1296569E+03  0.7818608E-02  0.1227966E+00
         21   -1    0    0  501  502  0.00000000000E+00  0.00000000000E+00  0.44876529639E+03  0.44876529639E+03  0.00000000000E+00 0.  1.
         -4   -1    0    0    0  501 -0.00000000000E+00 -0.00000000000E+00 -0.28087492722E+02  0.28116190130E+02  0.12700000000E+01 0.  1.
         25    2    1    2    0    0 -0.26569156197E+02 -0.21897773403E+02  0.12804118932E+03  0.18222366209E+03  0.12500193727E+03 0.  0.
    9000005    1    3    3    0    0 -0.26507978458E+02  0.59104885189E+01  0.14639058615E+03  0.14889194239E+03  0.10000000000E+01 0.  0.
    9000005    1    3    3    0    0 -0.61177738839E-01 -0.27808261922E+02 -0.18349396830E+02  0.33331719695E+02  0.10000000000E+01 0.  0.
         -4    1    1    2    0  502  0.26569156197E+02  0.21897773403E+02  0.29263661435E+03  0.29465782443E+03  0.12700000000E+01 0. -1.
<mgrwt>
<rscale>  1 0.12965692E+03</rscale>
<asrwt>0</asrwt>
<pdfrwt beam="1">  1       21 0.69040809E-01 0.12965692E+03</pdfrwt>
<pdfrwt beam="2">  1       -4 0.43234988E-02 0.12965692E+03</pdfrwt>
<totfact> 0.23564642E+04</totfact>
</mgrwt>
</event>
<event>
 6    3  0.3813045E-003  0.1266530E+03  0.7818608E-02  0.1232508E+00
         -4   -1    0    0    0  501 -0.00000000000E+00  0.00000000000E+00  0.20006727343E+03  0.20007130428E+03  0.12700000000E+01 0.  1.
         21   -1    0    0  501  502  0.00000000000E+00 -0.00000000000E+00 -0.29625696870E+02  0.29625696870E+02  0.00000000000E+00 0. -1.
         25    2    1    2    0    0 -0.19069059306E+02 -0.80053221704E+01  0.16548947928E+03  0.20839323685E+03  0.12495302800E+03 0.  0.
    9000005    1    3    3    0    0 -0.43988237041E+02 -0.11254988194E+02  0.17553204489E+03  0.18131226804E+03  0.10000000000E+01 0.  0.
    9000005    1    3    3    0    0  0.24919177735E+02  0.32496660232E+01 -0.10042565604E+02  0.27080968819E+02  0.10000000000E+01 0.  0.
         -4    1    1    2    0  502  0.19069059306E+02  0.80053221704E+01  0.49520972745E+01  0.21303764298E+02  0.12700000000E+01 0. -1.
<mgrwt>
<rscale>  1 0.12665296E+03</rscale>
<asrwt>0</asrwt>
<pdfrwt beam="2">  1       21 0.45577997E-02 0.12665296E+03</pdfrwt>
<pdfrwt beam="1">  1       -4 0.30781984E-01 0.12665296E+03</pdfrwt>
<totfact> 0.12648031E+05</totfact>
</mgrwt>
</event>
<event>
 6    3  0.3813045E-003  0.1283016E+03  0.7818608E-02  0.1229998E+00
         21   -1    0    0  501  502  0.00000000000E+00  0.00000000000E+00  0.43665288306E+03  0.43665288306E+03  0.00000000000E+00 0.  1.
          4   -1    0    0  502    0 -0.00000000000E+00 -0.00000000000E+00 -0.20971631143E+02  0.21010050280E+02  0.12700000000E+01 0.  1.
         25    2    1    2    0    0  0.24641526624E+02  0.15012020670E+02  0.18473961574E+03  0.22492226689E+03  0.12501493879E+03 0.  0.
    9000005    1    3    3    0    0  0.48086041809E+02 -0.21326141072E+02  0.17194378301E+03  0.17981305911E+03  0.10000000000E+01 0.  0.
    9000005    1    3    3    0    0 -0.23444515185E+02  0.36338161742E+02  0.12795832722E+02  0.45109207775E+02  0.10000000000E+01 0.  0.
          4    1    1    2  501    0 -0.24641526624E+02 -0.15012020670E+02  0.23094163618E+03  0.23274066645E+03  0.12700000000E+01 0. -1.
<mgrwt>
<rscale>  1 0.12830160E+03</rscale>
<asrwt>0</asrwt>
<pdfrwt beam="1">  1       21 0.67177360E-01 0.12830160E+03</pdfrwt>
<pdfrwt beam="2">  1        4 0.32295025E-02 0.12830160E+03</pdfrwt>
<totfact> 0.39623843E+04</totfact>
</mgrwt>
</event>
<event>
 6    3  0.3813045E-003  0.1284230E+03  0.7818608E-02  0.1229815E+00
         21   -1    0    0  501  502  0.00000000000E+00  0.00000000000E+00  0.20069705591E+03  0.20069705591E+03  0.00000000000E+00 0. -1.
         -4   -1    0    0    0  501 -0.00000000000E+00 -0.00000000000E+00 -0.51111594870E+02  0.51127370656E+02  0.12700000000E+01 0.  1.
         25    2    1    2    0    0 -0.28156552543E+02  0.86522212405E+01  0.34435148609E+02  0.13295954640E+03  0.12499923654E+03 0.  0.
    9000005    1    3    3    0    0 -0.30519693115E+02  0.50683191930E+02 -0.21490829196E+02  0.62953104384E+02  0.10000000000E+01 0.  0.
    9000005    1    3    3    0    0  0.23631405719E+01 -0.42030970689E+02  0.55925977805E+02  0.70006442017E+02  0.10000000000E+01 0.  0.
         -4    1    1    2    0  502  0.28156552543E+02 -0.86522212405E+01  0.11515031243E+03  0.11886488016E+03  0.12700000000E+01 0. -1.
<mgrwt>
<rscale>  1 0.12842298E+03</rscale>
<asrwt>0</asrwt>
<pdfrwt beam="1">  1       21 0.30876470E-01 0.12842298E+03</pdfrwt>
<pdfrwt beam="2">  1       -4 0.78648450E-02 0.12842298E+03</pdfrwt>
<totfact> 0.46235827E+04</totfact>
</mgrwt>
</event>
<event>
 6    3  0.3813045E-003  0.1332688E+03  0.7818608E-02  0.1222684E+00
         -4   -1    0    0    0  501 -0.00000000000E+00  0.00000000000E+00  0.65782255542E+02  0.65794513785E+02  0.12700000000E+01 0. -1.
         21   -1    0    0  501  502  0.00000000000E+00 -0.00000000000E+00 -0.12776028929E+03  0.12776028929E+03  0.00000000000E+00 0. -1.
         25    2    1    2    0    0  0.40672944813E+02 -0.21941731033E+02 -0.62781853418E+02  0.14731643128E+03  0.12499936722E+03 0.  0.
    9000005    1    3    3    0    0  0.63548504646E+02 -0.60486404976E+02 -0.48570256283E+02  0.10028503091E+03  0.10000000000E+01 0.  0.
    9000005    1    3    3    0    0 -0.22875559833E+02  0.38544673943E+02 -0.14211597135E+02  0.47031400364E+02  0.10000000000E+01 0.  0.
         -4    1    1    2    0  502 -0.40672944813E+02  0.21941731033E+02  0.80381967147E+00  0.46238371798E+02  0.12700000000E+01 0.  1.
<mgrwt>
<rscale>  1 0.13326879E+03</rscale>
<asrwt>0</asrwt>
<pdfrwt beam="2">  1       21 0.19655429E-01 0.13326879E+03</pdfrwt>
<pdfrwt beam="1">  1       -4 0.10121775E-01 0.13326879E+03</pdfrwt>
<totfact> 0.71547928E+04</totfact>
</mgrwt>
</event>
<event>
 6    3  0.3813045E-003  0.1689808E+03  0.7818608E-02  0.1178915E+00
         21   -1    0    0  501  502  0.00000000000E+00  0.00000000000E+00  0.15415182579E+04  0.15415182579E+04  0.00000000000E+00 0. -1.
         -4   -1    0    0    0  501 -0.00000000000E+00 -0.00000000000E+00 -0.13796147397E+02  0.13854478806E+02  0.12700000000E+01 0.  1.
         25    2    1    2    0    0 -0.50451695446E+02 -0.10189929852E+03  0.71284191406E+03  0.73259683278E+03  0.12500273741E+03 0.  0.
    9000005    1    3    3    0    0 -0.59879077502E+02 -0.84532822823E+01  0.43783461066E+03  0.44199220377E+03  0.10000000000E+01 0.  0.
    9000005    1    3    3    0    0  0.94273820561E+01 -0.93446016233E+02  0.27500730340E+03  0.29060462901E+03  0.10000000000E+01 0.  0.
         -4    1    1    2    0  502  0.50451695446E+02  0.10189929852E+03  0.81488019640E+03  0.82277590387E+03  0.12700000000E+01 0. -1.
<mgrwt>
<rscale>  1 0.16898084E+03</rscale>
<asrwt>0</asrwt>
<pdfrwt beam="1">  1       21 0.23715652E+00 0.16898084E+03</pdfrwt>
<pdfrwt beam="2">  1       -4 0.21270127E-02 0.16898084E+03</pdfrwt>
<totfact> 0.31015629E+03</totfact>
</mgrwt>
</event>
<event>
 6    3  0.3813045E-003  0.1291996E+03  0.7818608E-02  0.1228648E+00
         -4   -1    0    0    0  501 -0.00000000000E+00  0.00000000000E+00  0.11922205798E+02  0.11989657671E+02  0.12700000000E+01 0. -1.
         21   -1    0    0  501  502  0.00000000000E+00 -0.00000000000E+00 -0.71506213885E+03  0.71506213885E+03  0.00000000000E+00 0. -1.
         25    2    1    2    0    0  0.23111506909E+02 -0.23100647824E+02 -0.36231790760E+03  0.38466451928E+03  0.12499897818E+03 0.  0.
    9000005    1    3    3    0    0  0.65325247846E+01 -0.40829732057E+02 -0.29123781050E+02  0.50585922178E+02  0.10000000000E+01 0.  0.
    9000005    1    3    3    0    0  0.16578982124E+02  0.17729084233E+02 -0.33319412655E+03  0.33407859710E+03  0.10000000000E+01 0.  0.
         -4    1    1    2    0  502 -0.23111506909E+02  0.23100647824E+02 -0.34082202545E+03  0.34238727724E+03  0.12700000000E+01 0.  1.
<mgrwt>
<rscale>  1 0.12919956E+03</rscale>
<asrwt>0</asrwt>
<pdfrwt beam="2">  1       21 0.11000956E+00 0.12919956E+03</pdfrwt>
<pdfrwt beam="1">  1       -4 0.18394608E-02 0.12919956E+03</pdfrwt>
<totfact> 0.30981304E+04</totfact>
</mgrwt>
</event>
<event>
 6    3  0.3813045E-003  0.1272846E+03  0.7818608E-02  0.1231541E+00
         21   -1    0    0  501  502  0.00000000000E+00  0.00000000000E+00  0.48602229652E+02  0.48602229652E+02  0.00000000000E+00 0. -1.
         -4   -1    0    0    0  501 -0.00000000000E+00 -0.00000000000E+00 -0.53410731916E+03  0.53410882906E+03  0.12700000000E+01 0.  1.
         25    2    1    2    0    0 -0.89064466751E+01 -0.22216289540E+02 -0.52296892576E+03  0.53823589440E+03  0.12501396884E+03 0.  0.
    9000005    1    3    3    0    0 -0.62277329707E+02 -0.31655723014E+02 -0.23325980927E+03  0.24349884849E+03  0.10000000000E+01 0.  0.
    9000005    1    3    3    0    0  0.53370883031E+02  0.94394334742E+01 -0.28970911648E+03  0.29473704591E+03  0.10000000000E+01 0.  0.
         -4    1    1    2    0  502  0.89064466751E+01  0.22216289540E+02  0.37463836251E+02  0.44475164305E+02  0.12700000000E+01 0. -1.
<mgrwt>
<rscale>  1 0.12728464E+03</rscale>
<asrwt>0</asrwt>
<pdfrwt beam="1">  1       21 0.74772665E-02 0.12728464E+03</pdfrwt>
<pdfrwt beam="2">  1       -4 0.82171745E-01 0.12728464E+03</pdfrwt>
<totfact> 0.73657081E+03</totfact>
</mgrwt>
</event>
<event>
 6    3  0.3813045E-003  0.1273895E+03  0.7818608E-02  0.1231382E+00
         21   -1    0    0  501  502  0.00000000000E+00  0.00000000000E+00  0.14032540382E+03  0.14032540382E+03  0.00000000000E+00 0. -1.
          4   -1    0    0  502    0 -0.00000000000E+00 -0.00000000000E+00 -0.44692650701E+02  0.44710691413E+02  0.12700000000E+01 0.  1.
         25    2    1    2    0    0 -0.20769273778E+02 -0.13112661157E+02  0.57747112808E+02  0.13986708752E+03  0.12499907407E+03 0.  0.
    9000005    1    3    3    0    0  0.40074563271E+02 -0.97572056791E+01 -0.15951589802E+02  0.44233775571E+02  0.10000000000E+01 0.  0.
    9000005    1    3    3    0    0 -0.60843837049E+02 -0.33554554783E+01  0.73698702610E+02  0.95633311951E+02  0.10000000000E+01 0.  0.
          4    1    1    2  501    0  0.20769273778E+02  0.13112661157E+02  0.37885640316E+02  0.45169007716E+02  0.12700000000E+01 0. -1.
<mgrwt>
<rscale>  1 0.12738945E+03</rscale>
<asrwt>0</asrwt>
<pdfrwt beam="1">  1       21 0.21588523E-01 0.12738945E+03</pdfrwt>
<pdfrwt beam="2">  1        4 0.68776223E-02 0.12738945E+03</pdfrwt>
<totfact> 0.11353487E+05</totfact>
</mgrwt>
</event>
<event>
 6    3  0.3813045E-003  0.1320200E+03  0.7818608E-02  0.1224489E+00
         -4   -1    0    0    0  501 -0.00000000000E+00  0.00000000000E+00  0.18838090669E+02  0.18880851677E+02  0.12700000000E+01 0.  1.
         21   -1    0    0  501  502  0.00000000000E+00 -0.00000000000E+00 -0.42629546584E+03  0.42629546584E+03  0.00000000000E+00 0. -1.
         25    2    1    2    0    0  0.24825193476E+02  0.34451587087E+02 -0.25824608461E+03  0.29003501349E+03  0.12500426693E+03 0.  0.
    9000005    1    3    3    0    0 -0.28354691797E+02  0.56091598324E+02 -0.19369408186E+03  0.20363853588E+03  0.10000000000E+01 0.  0.
    9000005    1    3    3    0    0  0.53179885273E+02 -0.21640011238E+02 -0.64552002751E+02  0.86396477609E+02  0.10000000000E+01 0.  0.
         -4    1    1    2    0  502 -0.24825193476E+02 -0.34451587087E+02 -0.14921129056E+03  0.15514130403E+03  0.12700000000E+01 0. -1.
<mgrwt>
<rscale>  1 0.13201996E+03</rscale>
<asrwt>0</asrwt>
<pdfrwt beam="2">  1       21 0.65583923E-01 0.13201996E+03</pdfrwt>
<pdfrwt beam="1">  1       -4 0.29016024E-02 0.13201996E+03</pdfrwt>
<totfact> 0.49500903E+04</totfact>
</mgrwt>
</event>
<event>
 6    3  0.3813045E-003  0.1276341E+03  0.7818608E-02  0.1231009E+00
          4   -1    0    0  502    0 -0.00000000000E+00  0.00000000000E+00  0.11519938414E+03  0.11520638440E+03  0.12700000000E+01 0.  1.
         21   -1    0    0  501  502  0.00000000000E+00 -0.00000000000E+00 -0.78504988663E+02  0.78504988663E+02  0.00000000000E+00 0.  1.
         25    2    1    2    0    0 -0.62912480385E+01 -0.24760634668E+02  0.74709537813E+02  0.14789180543E+03  0.12505119848E+03 0.  0.
    9000005    1    3    3    0    0  0.58395035706E+02 -0.22084979526E+02  0.42849821738E+02  0.75728685046E+02  0.10000000000E+01 0.  0.
    9000005    1    3    3    0    0 -0.64686283745E+02 -0.26756551420E+01  0.31859716076E+02  0.72163120384E+02  0.10000000000E+01 0.  0.
          4    1    1    2  501    0  0.62912480385E+01  0.24760634668E+02 -0.38015142337E+02  0.45819567631E+02  0.12700000000E+01 0. -1.
<mgrwt>
<rscale>  1 0.12763413E+03</rscale>
<asrwt>0</asrwt>
<pdfrwt beam="2">  1       21 0.12077691E-01 0.12763413E+03</pdfrwt>
<pdfrwt beam="1">  1        4 0.17724311E-01 0.12763413E+03</pdfrwt>
<totfact> 0.65206485E+04</totfact>
</mgrwt>
</event>
<event>
 6    3  0.3813045E-003  0.1348837E+03  0.7818608E-02  0.1220384E+00
         21   -1    0    0  501  502  0.00000000000E+00  0.00000000000E+00  0.16597322303E+04  0.16597322303E+04  0.00000000000E+00 0. -1.
         -4   -1    0    0    0  501 -0.00000000000E+00 -0.00000000000E+00 -0.69357749589E+01  0.70510902902E+01  0.12700000000E+01 0.  1.
         25    2    1    2    0    0 -0.20811242028E+02 -0.46211580112E+02  0.71462709790E+03  0.72724514996E+03  0.12500000462E+03 0.  0.
    9000005    1    3    3    0    0 -0.57882415165E+02  0.15162582422E+02  0.24665143745E+03  0.25380742599E+03  0.10000000000E+01 0.  0.
    9000005    1    3    3    0    0  0.37071173137E+02 -0.61374162534E+02  0.46797566045E+03  0.47343772397E+03  0.10000000000E+01 0.  0.
         -4    1    1    2    0  502  0.20811242028E+02  0.46211580112E+02  0.93816935741E+03  0.93953817060E+03  0.12700000000E+01 0. -1.
<mgrwt>
<rscale>  1 0.13488372E+03</rscale>
<asrwt>0</asrwt>
<pdfrwt beam="1">  1       21 0.25534311E+00 0.13488372E+03</pdfrwt>
<pdfrwt beam="2">  1       -4 0.10759514E-02 0.13488372E+03</pdfrwt>
<totfact> 0.69230016E+03</totfact>
</mgrwt>
</event>
<event>
 6    3  0.3813045E-003  0.1330666E+03  0.7818608E-02  0.1222975E+00
         21   -1    0    0  501  502  0.00000000000E+00  0.00000000000E+00  0.22499332772E+03  0.22499332772E+03  0.00000000000E+00 0.  1.
          4   -1    0    0  502    0 -0.00000000000E+00 -0.00000000000E+00 -0.45474234394E+02  0.45491965155E+02  0.12700000000E+01 0. -1.
         25    2    1    2    0    0  0.41063615258E+02 -0.19899124904E+02  0.66839315942E+02  0.14891004539E+03  0.12499804715E+03 0.  0.
    9000005    1    3    3    0    0 -0.32575043073E+01 -0.66952356685E+02  0.23322453827E+02  0.70980041226E+02  0.10000000000E+01 0.  0.
    9000005    1    3    3    0    0  0.44321119565E+02  0.47053231781E+02  0.43516862115E+02  0.77930004163E+02  0.10000000000E+01 0.  0.
          4    1    1    2  501    0 -0.41063615258E+02  0.19899124904E+02  0.11267977738E+03  0.12157524748E+03  0.12700000000E+01 0.  1.
<mgrwt>
<rscale>  1 0.13306655E+03</rscale>
<asrwt>0</asrwt>
<pdfrwt beam="1">  1       21 0.34614357E-01 0.13306655E+03</pdfrwt>
<pdfrwt beam="2">  1        4 0.69976758E-02 0.13306655E+03</pdfrwt>
<totfact> 0.45035273E+04</totfact>
</mgrwt>
</event>
<event>
 6    3  0.3813045E-003  0.1291762E+03  0.7818608E-02  0.1228683E+00
          4   -1    0    0  502    0 -0.00000000000E+00  0.00000000000E+00  0.21892333575E+03  0.21892701943E+03  0.12700000000E+01 0. -1.
         21   -1    0    0  501  502  0.00000000000E+00 -0.00000000000E+00 -0.46649906244E+02  0.46649906244E+02  0.00000000000E+00 0. -1.
         25    2    1    2    0    0  0.14739573372E+02  0.29014931375E+02  0.18902890485E+03  0.22895070392E+03  0.12500950640E+03 0.  0.
    9000005    1    3    3    0    0  0.52880918031E+02  0.57347918725E+02  0.14241056068E+03  0.16237901055E+03  0.10000000000E+01 0.  0.
    9000005    1    3    3    0    0 -0.38141344658E+02 -0.28332987351E+02  0.46618344168E+02  0.66571693366E+02  0.10000000000E+01 0.  0.
          4    1    1    2  501    0 -0.14739573372E+02 -0.29014931375E+02 -0.16755475347E+02  0.36626221754E+02  0.12700000000E+01 0.  1.
<mgrwt>
<rscale>  1 0.12917623E+03</rscale>
<asrwt>0</asrwt>
<pdfrwt beam="2">  1       21 0.71769088E-02 0.12917623E+03</pdfrwt>
<pdfrwt beam="1">  1        4 0.33682126E-01 0.12917623E+03</pdfrwt>
<totfact> 0.49570088E+04</totfact>
</mgrwt>
</event>
<event>
 6    3  0.3813045E-003  0.1269525E+03  0.7818608E-02  0.1232049E+00
         21   -1    0    0  501  502  0.00000000000E+00  0.00000000000E+00  0.10704434825E+03  0.10704434825E+03  0.00000000000E+00 0. -1.
          4   -1    0    0  502    0 -0.00000000000E+00 -0.00000000000E+00 -0.96228837455E+02  0.96237217634E+02  0.12700000000E+01 0. -1.
         25    2    1    2    0    0 -0.21447991533E+02  0.57668092347E+01 -0.51586202659E+02  0.13703310046E+03  0.12499464743E+03 0.  0.
    9000005    1    3    3    0    0 -0.10921559783E+02  0.63826363448E+02 -0.11716858407E+02  0.65813143900E+02  0.10000000000E+01 0.  0.
    9000005    1    3    3    0    0 -0.10526431750E+02 -0.58059554213E+02 -0.39869344252E+02  0.71219956556E+02  0.10000000000E+01 0.  0.
          4    1    1    2  501    0  0.21447991533E+02 -0.57668092347E+01  0.62401713450E+02  0.66248465424E+02  0.12700000000E+01 0.  1.
<mgrwt>
<rscale>  1 0.12695249E+03</rscale>
<asrwt>0</asrwt>
<pdfrwt beam="1">  1       21 0.16468361E-01 0.12695249E+03</pdfrwt>
<pdfrwt beam="2">  1        4 0.14805661E-01 0.12695249E+03</pdfrwt>
<totfact> 0.51258116E+04</totfact>
</mgrwt>
</event>
<event>
 6    3  0.3813045E-003  0.1393184E+03  0.7818608E-02  0.1214249E+00
         21   -1    0    0  501  502  0.00000000000E+00  0.00000000000E+00  0.67665891117E+03  0.67665891117E+03  0.00000000000E+00 0.  1.
          4   -1    0    0  502    0 -0.00000000000E+00 -0.00000000000E+00 -0.63488422628E+02  0.63501123673E+02  0.12700000000E+01 0. -1.
         25    2    1    2    0    0 -0.34299608211E+02 -0.51072156065E+02  0.16462529227E+02  0.14028769021E+03  0.12499917162E+03 0.  0.
    9000005    1    3    3    0    0 -0.54398597284E+02 -0.84299147310E+02  0.90360681486E+01  0.10073829536E+03  0.10000000000E+01 0.  0.
    9000005    1    3    3    0    0  0.20098989073E+02  0.33226991245E+02  0.74264610788E+01  0.39549394852E+02  0.10000000000E+01 0.  0.
          4    1    1    2  501    0  0.34299608211E+02  0.51072156065E+02  0.59670795932E+03  0.59987234464E+03  0.12700000000E+01 0.  1.
<mgrwt>
<rscale>  1 0.13931842E+03</rscale>
<asrwt>0</asrwt>
<pdfrwt beam="1">  1       21 0.10410137E+00 0.13931842E+03</pdfrwt>
<pdfrwt beam="2">  1        4 0.97685188E-02 0.13931842E+03</pdfrwt>
<totfact> 0.24620927E+03</totfact>
</mgrwt>
</event>
<event>
 6    3  0.3813045E-003  0.1299890E+03  0.7818608E-02  0.1227472E+00
         -4   -1    0    0    0  501 -0.00000000000E+00  0.00000000000E+00  0.41326238500E+03  0.41326433642E+03  0.12700000000E+01 0.  1.
         21   -1    0    0  501  502  0.00000000000E+00 -0.00000000000E+00 -0.28519887826E+02  0.28519887826E+02  0.00000000000E+00 0.  1.
         25    2    1    2    0    0 -0.25334321890E+02 -0.25110833488E+02  0.38472442474E+03  0.40609115698E+03  0.12499905185E+03 0.  0.
    9000005    1    3    3    0    0 -0.27246360386E+02 -0.40219269523E+02  0.38753801701E+03  0.39057223202E+03  0.10000000000E+01 0.  0.
    9000005    1    3    3    0    0  0.19120384960E+01  0.15108436035E+02 -0.28135922676E+01  0.15518924966E+02  0.10000000000E+01 0.  0.
         -4    1    1    2    0  502  0.25334321890E+02  0.25110833488E+02  0.18072433353E-01  0.35693067264E+02  0.12700000000E+01 0. -1.
<mgrwt>
<rscale>  1 0.12998902E+03</rscale>
<asrwt>0</asrwt>
<pdfrwt beam="2">  1       21 0.43876753E-02 0.12998902E+03</pdfrwt>
<pdfrwt beam="1">  1       -4 0.63581150E-01 0.12998902E+03</pdfrwt>
<totfact> 0.31723063E+04</totfact>
</mgrwt>
</event>
<event>
 6    3  0.3813045E-003  0.1332307E+03  0.7818608E-02  0.1222739E+00
         21   -1    0    0  501  502  0.00000000000E+00  0.00000000000E+00  0.18238182893E+03  0.18238182893E+03  0.00000000000E+00 0. -1.
         -4   -1    0    0    0  501 -0.00000000000E+00 -0.00000000000E+00 -0.45248813752E+02  0.45266632810E+02  0.12700000000E+01 0. -1.
         25    2    1    2    0    0 -0.29993482304E+02 -0.35020002188E+02  0.11703195514E+03  0.17733270826E+03  0.12499760542E+03 0.  0.
    9000005    1    3    3    0    0 -0.65919146310E+02  0.30340423826E+01  0.10436158673E+03  0.12347825739E+03  0.10000000000E+01 0.  0.
    9000005    1    3    3    0    0  0.35925664006E+02 -0.38054044571E+02  0.12670368411E+02  0.53854450866E+02  0.10000000000E+01 0.  0.
         -4    1    1    2    0  502  0.29993482304E+02  0.35020002188E+02  0.20101060037E+02  0.50315753483E+02  0.12700000000E+01 0.  1.
<mgrwt>
<rscale>  1 0.13323067E+03</rscale>
<asrwt>0</asrwt>
<pdfrwt beam="1">  1       21 0.28058743E-01 0.13323067E+03</pdfrwt>
<pdfrwt beam="2">  1       -4 0.69630669E-02 0.13323067E+03</pdfrwt>
<totfact> 0.68231668E+04</totfact>
</mgrwt>
</event>
<event>
 6    3  0.3813045E-003  0.1281051E+03  0.7818608E-02  0.1230295E+00
         21   -1    0    0  501  502  0.00000000000E+00  0.00000000000E+00  0.17991816934E+02  0.17991816934E+02  0.00000000000E+00 0.  1.
         -4   -1    0    0    0  501 -0.00000000000E+00 -0.00000000000E+00 -0.33897547319E+03  0.33897785226E+03  0.12700000000E+01 0.  1.
         25    2    1    2    0    0 -0.26054098620E+02  0.10291739532E+02 -0.26666833824E+03  0.29584273054E+03  0.12500473047E+03 0.  0.
    9000005    1    3    3    0    0 -0.42433631922E+02 -0.23846984522E+01 -0.17761320256E+02  0.46073467441E+02  0.10000000000E+01 0.  0.
    9000005    1    3    3    0    0  0.16379533303E+02  0.12676437984E+02 -0.24890701798E+03  0.24976926310E+03  0.10000000000E+01 0.  0.
         -4    1    1    2    0  502  0.26054098620E+02 -0.10291739532E+02 -0.54315318022E+02  0.61126938655E+02  0.12700000000E+01 0. -1.
<mgrwt>
<rscale>  1 0.12810511E+03</rscale>
<asrwt>0</asrwt>
<pdfrwt beam="1">  1       21 0.27679716E-02 0.12810511E+03</pdfrwt>
<pdfrwt beam="2">  1       -4 0.52153709E-01 0.12810511E+03</pdfrwt>
<totfact> 0.10234631E+05</totfact>
</mgrwt>
</event>
<event>
 6    3  0.3813045E-003  0.1310684E+03  0.7818608E-02  0.1225879E+00
          4   -1    0    0  502    0 -0.00000000000E+00  0.00000000000E+00  0.50212709959E+03  0.50212870566E+03  0.12700000000E+01 0.  1.
         21   -1    0    0  501  502  0.00000000000E+00 -0.00000000000E+00 -0.58116939620E+02  0.58116939620E+02  0.00000000000E+00 0. -1.
         25    2    1    2    0    0  0.30037046090E+02  0.25401685696E+02  0.48560440335E+03  0.50298166221E+03  0.12502578211E+03 0.  0.
    9000005    1    3    3    0    0 -0.29358481039E+02 -0.28798417423E+02  0.26508216044E+03  0.26825514168E+03  0.10000000000E+01 0.  0.
    9000005    1    3    3    0    0  0.59395527128E+02  0.54200103119E+02  0.22052224291E+03  0.23472652053E+03  0.10000000000E+01 0.  0.
          4    1    1    2  501    0 -0.30037046090E+02 -0.25401685696E+02 -0.41594243381E+02  0.57263983065E+02  0.12700000000E+01 0. -1.
<mgrwt>
<rscale>  1 0.13106836E+03</rscale>
<asrwt>0</asrwt>
<pdfrwt beam="2">  1       21 0.89410680E-02 0.13106836E+03</pdfrwt>
<pdfrwt beam="1">  1        4 0.77251511E-01 0.13106836E+03</pdfrwt>
<totfact> 0.62149460E+03</totfact>
</mgrwt>
</event>
<event>
 6    3  0.3813045E-003  0.1919482E+03  0.7818608E-02  0.1156716E+00
         21   -1    0    0  501  502  0.00000000000E+00  0.00000000000E+00  0.57101675817E+02  0.57101675817E+02  0.00000000000E+00 0. -1.
          4   -1    0    0  502    0 -0.00000000000E+00 -0.00000000000E+00 -0.82582976272E+03  0.82583073925E+03  0.12700000000E+01 0.  1.
         25    2    1    2    0    0 -0.14005256992E+03  0.40050399756E+02 -0.69232195577E+03  0.71843844364E+03  0.12500139997E+03 0.  0.
    9000005    1    3    3    0    0 -0.94917091608E+02 -0.70150104786E+01 -0.58620940809E+03  0.59388629786E+03  0.10000000000E+01 0.  0.
    9000005    1    3    3    0    0 -0.45135478313E+02  0.47065410235E+02 -0.10611254769E+03  0.12455214578E+03  0.10000000000E+01 0.  0.
          4    1    1    2  501    0  0.14005256992E+03 -0.40050399756E+02 -0.76406131131E+02  0.16449397143E+03  0.12700000000E+01 0. -1.
<mgrwt>
<rscale>  1 0.19194819E+03</rscale>
<asrwt>0</asrwt>
<pdfrwt beam="1">  1       21 0.87848742E-02 0.19194819E+03</pdfrwt>
<pdfrwt beam="2">  1        4 0.12705188E+00 0.19194819E+03</pdfrwt>
<totfact> 0.20659049E+03</totfact>
</mgrwt>
</event>
<event>
 6    3  0.3813045E-003  0.1267811E+03  0.7818608E-02  0.1232312E+00
         21   -1    0    0  501  502  0.00000000000E+00  0.00000000000E+00  0.14776380731E+02  0.14776380731E+02  0.00000000000E+00 0.  1.
          4   -1    0    0  502    0 -0.00000000000E+00 -0.00000000000E+00 -0.79999280125E+03  0.79999380932E+03  0.12700000000E+01 0.  1.
         25    2    1    2    0    0 -0.14569662555E+02  0.15369457099E+02 -0.78327133557E+03  0.79346545973E+03  0.12499982152E+03 0.  0.
    9000005    1    3    3    0    0  0.12928511796E+01  0.69770123728E+02 -0.45992752358E+03  0.46519229205E+03  0.10000000000E+01 0.  0.
    9000005    1    3    3    0    0 -0.15862513735E+02 -0.54400666629E+02 -0.32334381199E+03  0.32827316769E+03  0.10000000000E+01 0.  0.
          4    1    1    2  501    0  0.14569662555E+02 -0.15369457099E+02 -0.19450849447E+01  0.21304730318E+02  0.12700000000E+01 0. -1.
<mgrwt>
<rscale>  1 0.12678111E+03</rscale>
<asrwt>0</asrwt>
<pdfrwt beam="1">  1       21 0.22732896E-02 0.12678111E+03</pdfrwt>
<pdfrwt beam="2">  1        4 0.12308008E+00 0.12678111E+03</pdfrwt>
<totfact> 0.21009985E+04</totfact>
</mgrwt>
</event>
<event>
 6    3  0.3813045E-003  0.1294362E+03  0.7818608E-02  0.1228295E+00
         21   -1    0    0  501  502  0.00000000000E+00  0.00000000000E+00  0.11147166980E+02  0.11147166980E+02  0.00000000000E+00 0.  1.
         -4   -1    0    0    0  501 -0.00000000000E+00 -0.00000000000E+00 -0.95867839229E+03  0.95867923350E+03  0.12700000000E+01 0.  1.
         25    2    1    2    0    0 -0.32504941681E+02  0.85748196393E+01 -0.91106213026E+03  0.92021081261E+03  0.12499454266E+03 0.  0.
    9000005    1    3    3    0    0 -0.47962613995E+02 -0.27649832306E+02 -0.18569378423E+03  0.19377333941E+03  0.10000000000E+01 0.  0.
    9000005    1    3    3    0    0  0.15457672314E+02  0.36224651946E+02 -0.72536834603E+03  0.72643747320E+03  0.10000000000E+01 0.  0.
         -4    1    1    2    0  502  0.32504941681E+02 -0.85748196393E+01 -0.36469095055E+02  0.49615587870E+02  0.12700000000E+01 0. -1.
<mgrwt>
<rscale>  1 0.12943622E+03</rscale>
<asrwt>0</asrwt>
<pdfrwt beam="1">  1       21 0.17149486E-02 0.12943622E+03</pdfrwt>
<pdfrwt beam="2">  1       -4 0.14749463E+00 0.12943622E+03</pdfrwt>
<totfact> 0.21220947E+04</totfact>
</mgrwt>
</event>
<event>
 6    3  0.3813045E-003  0.1297573E+03  0.7818608E-02  0.1227816E+00
          4   -1    0    0  502    0 -0.00000000000E+00  0.00000000000E+00  0.16774560126E+02  0.16822567207E+02  0.12700000000E+01 0. -1.
         21   -1    0    0  501  502  0.00000000000E+00 -0.00000000000E+00 -0.41102893795E+03  0.41102893795E+03  0.00000000000E+00 0. -1.
         25    2    1    2    0    0  0.76084606635E+01  0.33978133555E+02 -0.28436620596E+03  0.31257173482E+03  0.12499819232E+03 0.  0.
    9000005    1    3    3    0    0  0.35440457798E+02  0.45050858237E+02 -0.49325977007E+02  0.75628419820E+02  0.10000000000E+01 0.  0.
    9000005    1    3    3    0    0 -0.27831997135E+02 -0.11072724682E+02 -0.23504022896E+03  0.23694331500E+03  0.10000000000E+01 0.  0.
          4    1    1    2  501    0 -0.76084606635E+01 -0.33978133555E+02 -0.10988817187E+03  0.11527977034E+03  0.12700000000E+01 0.  1.
<mgrwt>
<rscale>  1 0.12975727E+03</rscale>
<asrwt>0</asrwt>
<pdfrwt beam="2">  1       21 0.63235213E-01 0.12975727E+03</pdfrwt>
<pdfrwt beam="1">  1        4 0.25845457E-02 0.12975727E+03</pdfrwt>
<totfact> 0.64001250E+04</totfact>
</mgrwt>
</event>
<event>
 6    3  0.3813045E-003  0.1277164E+03  0.7818608E-02  0.1230884E+00
         21   -1    0    0  501  502  0.00000000000E+00  0.00000000000E+00  0.41750808560E+02  0.41750808560E+02  0.00000000000E+00 0.  1.
          4   -1    0    0  502    0 -0.00000000000E+00 -0.00000000000E+00 -0.14583332665E+03  0.14583885649E+03  0.12700000000E+01 0.  1.
         25    2    1    2    0    0  0.12669563891E+02 -0.22910523221E+02 -0.97179696374E+02  0.16048483576E+03  0.12500431671E+03 0.  0.
    9000005    1    3    3    0    0 -0.32497704432E+02 -0.30839589533E+02  0.81985054051E+01  0.45556520574E+02  0.10000000000E+01 0.  0.
    9000005    1    3    3    0    0  0.45167268323E+02  0.79290663124E+01 -0.10537820178E+03  0.11492831518E+03  0.10000000000E+01 0.  0.
          4    1    1    2  501    0 -0.12669563891E+02  0.22910523221E+02 -0.69028217177E+01  0.27104829295E+02  0.12700000000E+01 0. -1.
<mgrwt>
<rscale>  1 0.12771644E+03</rscale>
<asrwt>0</asrwt>
<pdfrwt beam="1">  1       21 0.64232013E-02 0.12771644E+03</pdfrwt>
<pdfrwt beam="2">  1        4 0.22437808E-01 0.12771644E+03</pdfrwt>
<totfact> 0.12770239E+05</totfact>
</mgrwt>
</event>
<event>
 6    3  0.3813045E-003  0.1312435E+03  0.7818608E-02  0.1225622E+00
         21   -1    0    0  501  502  0.00000000000E+00  0.00000000000E+00  0.34029461705E+02  0.34029461705E+02  0.00000000000E+00 0. -1.
         -4   -1    0    0    0  501 -0.00000000000E+00 -0.00000000000E+00 -0.25328866025E+03  0.25329184415E+03  0.12700000000E+01 0. -1.
         25    2    1    2    0    0 -0.39289231653E+02 -0.74749027861E+01 -0.20766451500E+03  0.24566116325E+03  0.12500135376E+03 0.  0.
    9000005    1    3    3    0    0 -0.82942045191E+02 -0.85398856529E+01 -0.10493696290E+03  0.13403387143E+03  0.10000000000E+01 0.  0.
    9000005    1    3    3    0    0  0.43652813538E+02  0.10649828669E+01 -0.10272755210E+03  0.11162729182E+03  0.10000000000E+01 0.  0.
         -4    1    1    2    0  502  0.39289231653E+02  0.74749027861E+01 -0.11594683549E+02  0.41660142609E+02  0.12700000000E+01 0.  1.
<mgrwt>
<rscale>  1 0.13124350E+03</rscale>
<asrwt>0</asrwt>
<pdfrwt beam="1">  1       21 0.52353016E-02 0.13124350E+03</pdfrwt>
<pdfrwt beam="2">  1       -4 0.38969556E-01 0.13124350E+03</pdfrwt>
<totfact> 0.63986283E+04</totfact>
</mgrwt>
</event>
<event>
 6    3  0.3813045E-003  0.1267865E+03  0.7818608E-02  0.1232303E+00
         21   -1    0    0  501  502  0.00000000000E+00  0.00000000000E+00  0.49635386974E+01  0.49635386974E+01  0.00000000000E+00 0. -1.
          4   -1    0    0  502    0 -0.00000000000E+00 -0.00000000000E+00 -0.14159026307E+04  0.14159032003E+04  0.12700000000E+01 0. -1.
         25    2    1    2    0    0  0.20775878445E+02  0.42816245627E+01 -0.13567303447E+04  0.13626415673E+04  0.12499937279E+03 0.  0.
    9000005    1    3    3    0    0  0.35014631900E+02  0.56308725046E+02 -0.52644962984E+03  0.53060994122E+03  0.10000000000E+01 0.  0.
    9000005    1    3    3    0    0 -0.14238753454E+02 -0.52027100483E+02 -0.83028071488E+03  0.83203162607E+03  0.10000000000E+01 0.  0.
          4    1    1    2  501    0 -0.20775878445E+02 -0.42816245627E+01 -0.54208747292E+02  0.58225171679E+02  0.12700000000E+01 0.  1.
<mgrwt>
<rscale>  1 0.12678648E+03</rscale>
<asrwt>0</asrwt>
<pdfrwt beam="1">  1       21 0.76362066E-03 0.12678648E+03</pdfrwt>
<pdfrwt beam="2">  1        4 0.21784391E+00 0.12678648E+03</pdfrwt>
<totfact> 0.26292005E+04</totfact>
</mgrwt>
</event>
<event>
 6    3  0.3813045E-003  0.1269742E+03  0.7818608E-02  0.1232016E+00
         21   -1    0    0  501  502  0.00000000000E+00  0.00000000000E+00  0.47083454959E+03  0.47083454959E+03  0.00000000000E+00 0. -1.
          4   -1    0    0  502    0 -0.00000000000E+00 -0.00000000000E+00 -0.20212822499E+02  0.20252681141E+02  0.12700000000E+01 0.  1.
         25    2    1    2    0    0 -0.19963598655E+02 -0.99154194045E+01  0.18415156767E+03  0.22368337964E+03  0.12500237454E+03 0.  0.
    9000005    1    3    3    0    0 -0.11648102456E+02 -0.50453714947E+00 -0.17820341631E+02  0.21318945200E+02  0.10000000000E+01 0.  0.
    9000005    1    3    3    0    0 -0.83154961984E+01 -0.94108822550E+01  0.20197190930E+03  0.20236443444E+03  0.10000000000E+01 0.  0.
          4    1    1    2  501    0  0.19963598655E+02  0.99154194045E+01  0.26647015943E+03  0.26740385109E+03  0.12700000000E+01 0. -1.
<mgrwt>
<rscale>  1 0.12697423E+03</rscale>
<asrwt>0</asrwt>
<pdfrwt beam="1">  1       21 0.72436077E-01 0.12697423E+03</pdfrwt>
<pdfrwt beam="2">  1        4 0.31128631E-02 0.12697423E+03</pdfrwt>
<totfact> 0.35584620E+04</totfact>
</mgrwt>
</event>
<event>
 6    3  0.3813045E-003  0.1282034E+03  0.7818608E-02  0.1230146E+00
         21   -1    0    0  501  502  0.00000000000E+00  0.00000000000E+00  0.50842495987E+03  0.50842495987E+03  0.00000000000E+00 0. -1.
         -4   -1    0    0    0  501 -0.00000000000E+00 -0.00000000000E+00 -0.12691001521E+02  0.12754388249E+02  0.12700000000E+01 0.  1.
         25    2    1    2    0    0 -0.24515582355E+02 -0.14484925198E+02  0.35136112513E+03  0.37401972489E+03  0.12500115008E+03 0.  0.
    9000005    1    3    3    0    0 -0.22622948726E+02  0.44741945841E+02  0.26224197613E+03  0.26699343358E+03  0.10000000000E+01 0.  0.
    9000005    1    3    3    0    0 -0.18926336288E+01 -0.59226871039E+02  0.89119148998E+02  0.10702629132E+03  0.10000000000E+01 0.  0.
         -4    1    1    2    0  502  0.24515582355E+02  0.14484925198E+02  0.14437283321E+03  0.14715962322E+03  0.12700000000E+01 0. -1.
<mgrwt>
<rscale>  1 0.12820341E+03</rscale>
<asrwt>0</asrwt>
<pdfrwt beam="1">  1       21 0.78219209E-01 0.12820341E+03</pdfrwt>
<pdfrwt beam="2">  1       -4 0.19574601E-02 0.12820341E+03</pdfrwt>
<totfact> 0.61748307E+04</totfact>
</mgrwt>
</event>
<event>
 6    3  0.3813045E-003  0.1279283E+03  0.7818608E-02  0.1230563E+00
         21   -1    0    0  501  502  0.00000000000E+00  0.00000000000E+00  0.14517914047E+03  0.14517914047E+03  0.00000000000E+00 0. -1.
          4   -1    0    0  502    0 -0.00000000000E+00 -0.00000000000E+00 -0.17349924192E+03  0.17350389001E+03  0.12700000000E+01 0.  1.
         25    2    1    2    0    0  0.26244542366E+02 -0.70615050406E+01 -0.14818659115E+03  0.19576749399E+03  0.12500801995E+03 0.  0.
    9000005    1    3    3    0    0 -0.14918617367E+02 -0.28619214147E+02 -0.14568766012E+03  0.14922305075E+03  0.10000000000E+01 0.  0.
    9000005    1    3    3    0    0  0.41163159732E+02  0.21557709107E+02 -0.24989310283E+01  0.46544443249E+02  0.10000000000E+01 0.  0.
          4    1    1    2  501    0 -0.26244542366E+02  0.70615050406E+01  0.11986648970E+03  0.12291553649E+03  0.12700000000E+01 0. -1.
<mgrwt>
<rscale>  1 0.12792828E+03</rscale>
<asrwt>0</asrwt>
<pdfrwt beam="1">  1       21 0.22335252E-01 0.12792828E+03</pdfrwt>
<pdfrwt beam="2">  1        4 0.26692976E-01 0.12792828E+03</pdfrwt>
<totfact> 0.10150968E+04</totfact>
</mgrwt>
</event>
<event>
 6    3  0.3813045E-003  0.1292043E+03  0.7818608E-02  0.1228641E+00
         21   -1    0    0  501  502  0.00000000000E+00  0.00000000000E+00  0.15461884116E+03  0.15461884116E+03  0.00000000000E+00 0.  1.
         -4   -1    0    0    0  501 -0.00000000000E+00 -0.00000000000E+00 -0.46200182072E+02  0.46217634334E+02  0.12700000000E+01 0.  1.
         25    2    1    2    0    0 -0.32461788979E+02  0.37558392716E+01  0.60117627652E+02  0.14250572365E+03  0.12500351214E+03 0.  0.
    9000005    1    3    3    0    0 -0.21132167272E+00  0.43776099579E+02 -0.19339612094E+02  0.47868696944E+02  0.10000000000E+01 0.  0.
    9000005    1    3    3    0    0 -0.32250467307E+02 -0.40020260307E+02  0.79457239746E+02  0.94637026711E+02  0.10000000000E+01 0.  0.
         -4    1    1    2    0  502  0.32461788979E+02 -0.37558392716E+01  0.48301031438E+02  0.58330751841E+02  0.12700000000E+01 0. -1.
<mgrwt>
<rscale>  1 0.12920430E+03</rscale>
<asrwt>0</asrwt>
<pdfrwt beam="1">  1       21 0.23787514E-01 0.12920430E+03</pdfrwt>
<pdfrwt beam="2">  1       -4 0.71094641E-02 0.12920430E+03</pdfrwt>
<totfact> 0.89855173E+04</totfact>
</mgrwt>
</event>
<event>
 6    3  0.3813045E-003  0.1313934E+03  0.7818608E-02  0.1225403E+00
          4   -1    0    0  502    0 -0.00000000000E+00  0.00000000000E+00  0.13991836345E+04  0.13991842109E+04  0.12700000000E+01 0.  1.
         21   -1    0    0  501  502  0.00000000000E+00 -0.00000000000E+00 -0.11769366755E+02  0.11769366755E+02  0.00000000000E+00 0.  1.
         25    2    1    2    0    0  0.17359286834E+02  0.36573875546E+02  0.13481633656E+04  0.13545511005E+04  0.12500092067E+03 0.  0.
    9000005    1    3    3    0    0 -0.12367391569E+02 -0.54686465707E+01  0.14346335854E+02  0.19740208256E+02  0.10000000000E+01 0.  0.
    9000005    1    3    3    0    0  0.29726678403E+02  0.42042522116E+02  0.13338170298E+04  0.13348108922E+04  0.10000000000E+01 0.  0.
          4    1    1    2  501    0 -0.17359286834E+02 -0.36573875546E+02  0.39250902121E+02  0.56402477154E+02  0.12700000000E+01 0. -1.
<mgrwt>
<rscale>  1 0.13139339E+03</rscale>
<asrwt>0</asrwt>
<pdfrwt beam="2">  1       21 0.18106729E-02 0.13139339E+03</pdfrwt>
<pdfrwt beam="1">  1        4 0.21526420E+00 0.13139339E+03</pdfrwt>
<totfact> 0.69583643E+03</totfact>
</mgrwt>
</event>
<event>
 6    3  0.3813045E-003  0.1392207E+03  0.7818608E-02  0.1214381E+00
          4   -1    0    0  502    0 -0.00000000000E+00  0.00000000000E+00  0.26963658851E+03  0.26963957937E+03  0.12700000000E+01 0. -1.
         21   -1    0    0  501  502  0.00000000000E+00 -0.00000000000E+00 -0.54963795034E+02  0.54963795034E+02  0.00000000000E+00 0.  1.
         25    2    1    2    0    0 -0.55709904253E+02 -0.25577017443E+02  0.22283304185E+03  0.26274886926E+03  0.12499850601E+03 0.  0.
    9000005    1    3    3    0    0  0.31568508326E+02 -0.16764702976E+02  0.13081084600E+03  0.13561011546E+03  0.10000000000E+01 0.  0.
    9000005    1    3    3    0    0 -0.87278412580E+02 -0.88123144672E+01  0.92022195852E+02  0.12713875380E+03  0.10000000000E+01 0.  0.
          4    1    1    2  501    0  0.55709904253E+02  0.25577017443E+02 -0.81602483754E+01  0.61854505145E+02  0.12700000000E+01 0.  1.
<mgrwt>
<rscale>  1 0.13922070E+03</rscale>
<asrwt>0</asrwt>
<pdfrwt beam="2">  1       21 0.84559686E-02 0.13922070E+03</pdfrwt>
<pdfrwt beam="1">  1        4 0.41483910E-01 0.13922070E+03</pdfrwt>
<totfact> 0.25120469E+04</totfact>
</mgrwt>
</event>
<event>
 6    3  0.3813045E-003  0.1274986E+03  0.7818608E-02  0.1231215E+00
         -4   -1    0    0    0  501 -0.00000000000E+00  0.00000000000E+00  0.12807582986E+02  0.12870395563E+02  0.12700000000E+01 0.  1.
         21   -1    0    0  501  502  0.00000000000E+00 -0.00000000000E+00 -0.46148039379E+03  0.46148039379E+03  0.00000000000E+00 0.  1.
         25    2    1    2    0    0 -0.20089845187E+02 -0.15077137823E+02 -0.34920468780E+03  0.37175233732E+03  0.12499985744E+03 0.  0.
    9000005    1    3    3    0    0 -0.27053891236E+02 -0.63210817280E+02 -0.27153451006E+03  0.28010624878E+03  0.10000000000E+01 0.  0.
    9000005    1    3    3    0    0  0.69640460489E+01  0.48133679458E+02 -0.77670177740E+02  0.91646088546E+02  0.10000000000E+01 0.  0.
         -4    1    1    2    0  502  0.20089845187E+02  0.15077137823E+02 -0.99468123003E+02  0.10259845203E+03  0.12700000000E+01 0. -1.
<mgrwt>
<rscale>  1 0.12749857E+03</rscale>
<asrwt>0</asrwt>
<pdfrwt beam="2">  1       21 0.70996986E-01 0.12749857E+03</pdfrwt>
<pdfrwt beam="1">  1       -4 0.19753635E-02 0.12749857E+03</pdfrwt>
<totfact> 0.75340458E+04</totfact>
</mgrwt>
</event>
<event>
 6    3  0.3813045E-003  0.1504372E+03  0.7818608E-02  0.1199937E+00
         -4   -1    0    0    0  501 -0.00000000000E+00  0.00000000000E+00  0.55633417296E+02  0.55647911192E+02  0.12700000000E+01 0. -1.
         21   -1    0    0  501  502  0.00000000000E+00 -0.00000000000E+00 -0.24637752659E+03  0.24637752659E+03  0.00000000000E+00 0. -1.
         25    2    1    2    0    0 -0.79525892889E+02  0.26168689065E+02 -0.12332170497E+03  0.19452398927E+03  0.12498868572E+03 0.  0.
    9000005    1    3    3    0    0 -0.82749688661E+02  0.65902574833E+02 -0.65980419175E+02  0.12467989436E+03  0.10000000000E+01 0.  0.
    9000005    1    3    3    0    0  0.32237957724E+01 -0.39733885769E+02 -0.57341285791E+02  0.69844094908E+02  0.10000000000E+01 0.  0.
         -4    1    1    2    0  502  0.79525892889E+02 -0.26168689065E+02 -0.67422404329E+02  0.10750144851E+03  0.12700000000E+01 0.  1.
<mgrwt>
<rscale>  1 0.15043716E+03</rscale>
<asrwt>0</asrwt>
<pdfrwt beam="2">  1       21 0.37904235E-01 0.15043716E+03</pdfrwt>
<pdfrwt beam="1">  1       -4 0.85603540E-02 0.15043716E+03</pdfrwt>
<totfact> 0.27294948E+04</totfact>
</mgrwt>
</event>
<event>
 6    3  0.3813045E-003  0.1729201E+03  0.7818608E-02  0.1174836E+00
          4   -1    0    0  502    0 -0.00000000000E+00  0.00000000000E+00  0.96213646136E+02  0.96222027638E+02  0.12700000000E+01 0. -1.
         21   -1    0    0  501  502  0.00000000000E+00 -0.00000000000E+00 -0.48049677722E+03  0.48049677722E+03  0.00000000000E+00 0.  1.
         25    2    1    2    0    0 -0.63895393210E+02  0.10099884980E+03  0.14158880104E+01  0.17292586886E+03  0.12497184662E+03 0.  0.
    9000005    1    3    3    0    0 -0.71976860956E+02  0.97803470857E+02  0.44218888496E+02  0.12923814268E+03  0.10000000000E+01 0.  0.
    9000005    1    3    3    0    0  0.80814677458E+01  0.31953789402E+01 -0.42803000486E+02  0.43687726172E+02  0.10000000000E+01 0.  0.
          4    1    1    2  501    0  0.63895393210E+02 -0.10099884980E+03 -0.38569901910E+03  0.40379293600E+03  0.12700000000E+01 0.  1.
<mgrwt>
<rscale>  1 0.17292007E+03</rscale>
<asrwt>0</asrwt>
<pdfrwt beam="2">  1       21 0.73922581E-01 0.17292007E+03</pdfrwt>
<pdfrwt beam="1">  1        4 0.14802873E-01 0.17292007E+03</pdfrwt>
<totfact> 0.26579877E+03</totfact>
</mgrwt>
</event>
<event>
 6    3  0.3813045E-003  0.1269244E+03  0.7818608E-02  0.1232092E+00
         21   -1    0    0  501  502  0.00000000000E+00  0.00000000000E+00  0.28851554016E+03  0.28851554016E+03  0.00000000000E+00 0.  1.
          4   -1    0    0  502    0 -0.00000000000E+00 -0.00000000000E+00 -0.89483407669E+02  0.89492419500E+02  0.12700000000E+01 0. -1.
         25    2    1    2    0    0 -0.15512338974E+02  0.15659479188E+02 -0.43728017573E+02  0.13424587215E+03  0.12499585081E+03 0.  0.
    9000005    1    3    3    0    0 -0.26031551959E+02  0.56019007416E+02  0.13682943934E+02  0.63277119434E+02  0.10000000000E+01 0.  0.
    9000005    1    3    3    0    0  0.10519212985E+02 -0.40359528227E+02 -0.57410961507E+02  0.70968752714E+02  0.10000000000E+01 0.  0.
          4    1    1    2  501    0  0.15512338974E+02 -0.15659479188E+02  0.24276015006E+03  0.24376208751E+03  0.12700000000E+01 0.  1.
<mgrwt>
<rscale>  1 0.12692444E+03</rscale>
<asrwt>0</asrwt>
<pdfrwt beam="1">  1       21 0.44387006E-01 0.12692444E+03</pdfrwt>
<pdfrwt beam="2">  1        4 0.13767586E-01 0.12692444E+03</pdfrwt>
<totfact> 0.87463099E+03</totfact>
</mgrwt>
</event>
<event>
 6    3  0.3813045E-003  0.1271841E+03  0.7818608E-02  0.1231695E+00
         -4   -1    0    0    0  501 -0.00000000000E+00  0.00000000000E+00  0.13858746176E+03  0.13859328070E+03  0.12700000000E+01 0. -1.
         21   -1    0    0  501  502  0.00000000000E+00 -0.00000000000E+00 -0.41120196277E+02  0.41120196277E+02  0.00000000000E+00 0. -1.
         25    2    1    2    0    0 -0.97593918796E+01 -0.21304967795E+02  0.77790635972E+02  0.14908783362E+03  0.12500660665E+03 0.  0.
    9000005    1    3    3    0    0 -0.15228139891E+02 -0.39084045157E+02  0.10672454251E+03  0.11467600797E+03  0.10000000000E+01 0.  0.
    9000005    1    3    3    0    0  0.54687480109E+01  0.17779077361E+02 -0.28933906538E+02  0.34411825645E+02  0.10000000000E+01 0.  0.
         -4    1    1    2    0  502  0.97593918796E+01  0.21304967795E+02  0.19676629508E+02  0.30625643364E+02  0.12700000000E+01 0.  1.
<mgrwt>
<rscale>  1 0.12718411E+03</rscale>
<asrwt>0</asrwt>
<pdfrwt beam="2">  1       21 0.63261841E-02 0.12718411E+03</pdfrwt>
<pdfrwt beam="1">  1       -4 0.21323104E-01 0.12718411E+03</pdfrwt>
<totfact> 0.14365747E+05</totfact>
</mgrwt>
</event>
<event>
 6    3  0.3813045E-003  0.1299893E+03  0.7818608E-02  0.1227472E+00
         21   -1    0    0  501  502  0.00000000000E+00  0.00000000000E+00  0.18823366121E+03  0.18823366121E+03  0.00000000000E+00 0.  1.
         -4   -1    0    0    0  501 -0.00000000000E+00 -0.00000000000E+00 -0.11638277414E+03  0.11638970322E+03  0.12700000000E+01 0.  1.
         25    2    1    2    0    0 -0.19898211610E+01  0.35584220136E+02 -0.77321299082E+02  0.15124751845E+03  0.12500812947E+03 0.  0.
    9000005    1    3    3    0    0  0.30683804670E+02 -0.11384106972E+02 -0.87229249254E+02  0.93172075677E+02  0.10000000000E+01 0.  0.
    9000005    1    3    3    0    0 -0.32673625831E+02  0.46968327108E+02  0.99079501719E+01  0.58075442769E+02  0.10000000000E+01 0.  0.
         -4    1    1    2    0  502  0.19898211610E+01 -0.35584220136E+02  0.14917218615E+03  0.15337584598E+03  0.12700000000E+01 0. -1.
<mgrwt>
<rscale>  1 0.12998934E+03</rscale>
<asrwt>0</asrwt>
<pdfrwt beam="1">  1       21 0.28959025E-01 0.12998934E+03</pdfrwt>
<pdfrwt beam="2">  1       -4 0.17905905E-01 0.12998934E+03</pdfrwt>
<totfact> 0.12834802E+04</totfact>
</mgrwt>
</event>
<event>
 6    3  0.3813045E-003  0.1268009E+03  0.7818608E-02  0.1232281E+00
         21   -1    0    0  501  502  0.00000000000E+00  0.00000000000E+00  0.11980882608E+04  0.11980882608E+04  0.00000000000E+00 0.  1.
          4   -1    0    0  502    0 -0.00000000000E+00 -0.00000000000E+00 -0.73322555815E+01  0.74414294267E+01  0.12700000000E+01 0. -1.
         25    2    1    2    0    0 -0.17444962039E+02 -0.12161127831E+02  0.55031703716E+03  0.56473650640E+03  0.12500504207E+03 0.  0.
    9000005    1    3    3    0    0  0.42001876098E+02  0.31864274884E+02  0.23955076100E+03  0.24528566347E+03  0.10000000000E+01 0.  0.
    9000005    1    3    3    0    0 -0.59446838137E+02 -0.44025402715E+02  0.31076627617E+03  0.31945084293E+03  0.10000000000E+01 0.  0.
          4    1    1    2  501    0  0.17444962039E+02  0.12161127831E+02  0.64043896803E+03  0.64079318380E+03  0.12700000000E+01 0.  1.
<mgrwt>
<rscale>  1 0.12680095E+03</rscale>
<asrwt>0</asrwt>
<pdfrwt beam="1">  1       21 0.18432112E+00 0.12680095E+03</pdfrwt>
<pdfrwt beam="2">  1        4 0.11364900E-02 0.12680095E+03</pdfrwt>
<totfact> 0.17143269E+04</totfact>
</mgrwt>
</event>
<event>
 6    3  0.3813045E-003  0.1327458E+03  0.7818608E-02  0.1223437E+00
         21   -1    0    0  501  502  0.00000000000E+00  0.00000000000E+00  0.14661939360E+02  0.14661939360E+02  0.00000000000E+00 0. -1.
         -4   -1    0    0    0  501 -0.00000000000E+00 -0.00000000000E+00 -0.63932702758E+03  0.63932828898E+03  0.12700000000E+01 0. -1.
         25    2    1    2    0    0  0.70511523474E+01 -0.44119508724E+02 -0.32586786023E+03  0.35186832223E+03  0.12500081623E+03 0.  0.
    9000005    1    3    3    0    0 -0.33444218200E+02  0.23596903008E+02 -0.19334451983E+03  0.19763206449E+03  0.10000000000E+01 0.  0.
    9000005    1    3    3    0    0  0.40495370548E+02 -0.67716411732E+02 -0.13252334040E+03  0.15423625775E+03  0.10000000000E+01 0.  0.
         -4    1    1    2    0  502 -0.70511523474E+01  0.44119508724E+02 -0.29879722798E+03  0.30212190611E+03  0.12700000000E+01 0.  1.
<mgrwt>
<rscale>  1 0.13274582E+03</rscale>
<asrwt>0</asrwt>
<pdfrwt beam="1">  1       21 0.22556832E-02 0.13274582E+03</pdfrwt>
<pdfrwt beam="2">  1       -4 0.98362324E-01 0.13274582E+03</pdfrwt>
<totfact> 0.36283473E+04</totfact>
</mgrwt>
</event>
<event>
 6    3  0.3813045E-003  0.1288276E+03  0.7818608E-02  0.1229206E+00
         21   -1    0    0  501  502  0.00000000000E+00  0.00000000000E+00  0.13983078130E+03  0.13983078130E+03  0.00000000000E+00 0. -1.
          4   -1    0    0  502    0 -0.00000000000E+00 -0.00000000000E+00 -0.12259178493E+03  0.12259836309E+03  0.12700000000E+01 0.  1.
         25    2    1    2    0    0  0.30067760851E+02  0.81900739309E+01 -0.85792647740E+02  0.15478027007E+03  0.12500162416E+03 0.  0.
    9000005    1    3    3    0    0  0.50047814712E+02  0.23560430754E+02  0.95614296853E+01  0.56145334556E+02  0.10000000000E+01 0.  0.
    9000005    1    3    3    0    0 -0.19980053861E+02 -0.15370356824E+02 -0.95354077426E+02  0.98634935509E+02  0.10000000000E+01 0.  0.
          4    1    1    2  501    0 -0.30067760851E+02 -0.81900739309E+01  0.10303164411E+03  0.10764887432E+03  0.12700000000E+01 0. -1.
<mgrwt>
<rscale>  1 0.12882761E+03</rscale>
<asrwt>0</asrwt>
<pdfrwt beam="1">  1       21 0.21512428E-01 0.12882761E+03</pdfrwt>
<pdfrwt beam="2">  1        4 0.18861224E-01 0.12882761E+03</pdfrwt>
<totfact> 0.20504831E+04</totfact>
</mgrwt>
</event>
<event>
 6    3  0.3813045E-003  0.1971985E+03  0.7818608E-02  0.1152124E+00
          4   -1    0    0  502    0 -0.00000000000E+00  0.00000000000E+00  0.94276674055E+03  0.94276759596E+03  0.12700000000E+01 0.  1.
         21   -1    0    0  501  502  0.00000000000E+00 -0.00000000000E+00 -0.81545415952E+02  0.81545415952E+02  0.00000000000E+00 0. -1.
         25    2    1    2    0    0 -0.10355382617E+03 -0.11196783843E+03  0.84866965545E+03  0.87127919520E+03  0.12500824036E+03 0.  0.
    9000005    1    3    3    0    0 -0.92904295747E+02 -0.12223516329E+03  0.84038405608E+03  0.85429444867E+03  0.10000000000E+01 0.  0.
    9000005    1    3    3    0    0 -0.10649530421E+02  0.10267324857E+02  0.82855993650E+01  0.16984746532E+02  0.10000000000E+01 0.  0.
          4    1    1    2  501    0  0.10355382617E+03  0.11196783843E+03  0.12551669152E+02  0.15303381671E+03  0.12700000000E+01 0. -1.
<mgrwt>
<rscale>  1 0.19719851E+03</rscale>
<asrwt>0</asrwt>
<pdfrwt beam="2">  1       21 0.12545449E-01 0.19719851E+03</pdfrwt>
<pdfrwt beam="1">  1        4 0.14504186E+00 0.19719851E+03</pdfrwt>
<totfact> 0.78878508E+02</totfact>
</mgrwt>
</event>
<event>
 6    3  0.3813045E-003  0.1303011E+03  0.7818608E-02  0.1227010E+00
         21   -1    0    0  501  502  0.00000000000E+00  0.00000000000E+00  0.61620993596E+02  0.61620993596E+02  0.00000000000E+00 0. -1.
         -4   -1    0    0    0  501 -0.00000000000E+00 -0.00000000000E+00 -0.15694829467E+03  0.15695343291E+03  0.12700000000E+01 0.  1.
         25    2    1    2    0    0 -0.23175133235E+02 -0.28568594036E+02 -0.11762475054E+03  0.17553908616E+03  0.12500054986E+03 0.  0.
    9000005    1    3    3    0    0  0.29992615420E+01 -0.46698219258E+02  0.66241202311E+01  0.47271537107E+02  0.10000000000E+01 0.  0.
    9000005    1    3    3    0    0 -0.26174394777E+02  0.18129625222E+02 -0.12424887077E+03  0.12826754906E+03  0.10000000000E+01 0.  0.
         -4    1    1    2    0  502  0.23175133235E+02  0.28568594036E+02  0.22297449463E+02  0.43035340340E+02  0.12700000000E+01 0. -1.
<mgrwt>
<rscale>  1 0.13030115E+03</rscale>
<asrwt>0</asrwt>
<pdfrwt beam="1">  1       21 0.94801530E-02 0.13030115E+03</pdfrwt>
<pdfrwt beam="2">  1       -4 0.24147293E-01 0.13030115E+03</pdfrwt>
<totfact> 0.57280430E+04</totfact>
</mgrwt>
</event>
<event>
 6    3  0.3813045E-003  0.1337821E+03  0.7818608E-02  0.1221949E+00
         21   -1    0    0  501  502  0.00000000000E+00  0.00000000000E+00  0.58855717909E+02  0.58855717909E+02  0.00000000000E+00 0. -1.
          4   -1    0    0  502    0 -0.00000000000E+00 -0.00000000000E+00 -0.14104273046E+03  0.14104844812E+03  0.12700000000E+01 0. -1.
         25    2    1    2    0    0 -0.29697355545E+02 -0.37370938833E+02 -0.52732149818E+02  0.14379960441E+03  0.12497650422E+03 0.  0.
    9000005    1    3    3    0    0  0.37263901387E+02 -0.20975137768E+02 -0.60847302160E+02  0.74377072618E+02  0.10000000000E+01 0.  0.
    9000005    1    3    3    0    0 -0.66961256932E+02 -0.16395801065E+02  0.81151523426E+01  0.69422531789E+02  0.10000000000E+01 0.  0.
          4    1    1    2  501    0  0.29697355545E+02  0.37370938833E+02 -0.29454862734E+02  0.56104561618E+02  0.12700000000E+01 0.  1.
<mgrwt>
<rscale>  1 0.13378209E+03</rscale>
<asrwt>0</asrwt>
<pdfrwt beam="1">  1       21 0.90547258E-02 0.13378209E+03</pdfrwt>
<pdfrwt beam="2">  1        4 0.21700375E-01 0.13378209E+03</pdfrwt>
<totfact> 0.75676486E+04</totfact>
</mgrwt>
</event>
<event>
 6    3  0.3813045E-003  0.1306894E+03  0.7818608E-02  0.1226436E+00
         -4   -1    0    0    0  501 -0.00000000000E+00  0.00000000000E+00  0.35306017826E+02  0.35328852157E+02  0.12700000000E+01 0.  1.
         21   -1    0    0  501  502  0.00000000000E+00 -0.00000000000E+00 -0.25615133837E+03  0.25615133837E+03  0.00000000000E+00 0.  1.
         25    2    1    2    0    0 -0.37840600384E+02 -0.47937376628E+01 -0.99445162311E+02  0.16422256884E+03  0.12499928340E+03 0.  0.
    9000005    1    3    3    0    0  0.35295351482E+02 -0.36541891510E+02 -0.42427974363E+02  0.66198222634E+02  0.10000000000E+01 0.  0.
    9000005    1    3    3    0    0 -0.73135951865E+02  0.31748153847E+02 -0.57017187947E+02  0.98024346207E+02  0.10000000000E+01 0.  0.
         -4    1    1    2    0  502  0.37840600384E+02  0.47937376628E+01 -0.12140015824E+03  0.12725762169E+03  0.12700000000E+01 0. -1.
<mgrwt>
<rscale>  1 0.13068937E+03</rscale>
<asrwt>0</asrwt>
<pdfrwt beam="2">  1       21 0.39407898E-01 0.13068937E+03</pdfrwt>
<pdfrwt beam="1">  1       -4 0.54336937E-02 0.13068937E+03</pdfrwt>
<totfact> 0.52476733E+04</totfact>
</mgrwt>
</event>
<event>
 6    3  0.3813045E-003  0.1292526E+03  0.7818608E-02  0.1228569E+00
         -4   -1    0    0    0  501 -0.00000000000E+00  0.00000000000E+00  0.12174467357E+02  0.12240529213E+02  0.12700000000E+01 0. -1.
         21   -1    0    0  501  502  0.00000000000E+00 -0.00000000000E+00 -0.67658439760E+03  0.67658439760E+03  0.00000000000E+00 0. -1.
         25    2    1    2    0    0  0.20411539737E+02  0.25778560634E+02 -0.35735022290E+03  0.38000711334E+03  0.12500023697E+03 0.  0.
    9000005    1    3    3    0    0 -0.37863588139E+02 -0.30192744787E+02 -0.13196556989E+03  0.14057441012E+03  0.10000000000E+01 0.  0.
    9000005    1    3    3    0    0  0.58275127876E+02  0.55971305421E+02 -0.22538465301E+03  0.23943270323E+03  0.10000000000E+01 0.  0.
         -4    1    1    2    0  502 -0.20411539737E+02 -0.25778560634E+02 -0.30705970734E+03  0.30881781347E+03  0.12700000000E+01 0.  1.
<mgrwt>
<rscale>  1 0.12925256E+03</rscale>
<asrwt>0</asrwt>
<pdfrwt beam="2">  1       21 0.10408990E+00 0.12925256E+03</pdfrwt>
<pdfrwt beam="1">  1       -4 0.18781684E-02 0.12925256E+03</pdfrwt>
<totfact> 0.34225877E+04</totfact>
</mgrwt>
</event>
<event>
 6    3  0.3813045E-003  0.1268924E+03  0.7818608E-02  0.1232141E+00
         21   -1    0    0  501  502  0.00000000000E+00  0.00000000000E+00  0.23391000380E+03  0.23391000380E+03  0.00000000000E+00 0.  1.
          4   -1    0    0  502    0 -0.00000000000E+00 -0.00000000000E+00 -0.35350454043E+02  0.35373259689E+02  0.12700000000E+01 0.  1.
         25    2    1    2    0    0  0.26633309842E+01  0.21656559715E+02  0.82889526206E+02  0.15156636938E+03  0.12500236342E+03 0.  0.
    9000005    1    3    3    0    0  0.57495548913E+02  0.36429748350E+02  0.31642040531E+02  0.75067192825E+02  0.10000000000E+01 0.  0.
    9000005    1    3    3    0    0 -0.54832217929E+02 -0.14773188634E+02  0.51247485675E+02  0.76499176554E+02  0.10000000000E+01 0.  0.
          4    1    1    2  501    0 -0.26633309842E+01 -0.21656559715E+02  0.11567002356E+03  0.11771689411E+03  0.12700000000E+01 0. -1.
<mgrwt>
<rscale>  1 0.12689244E+03</rscale>
<asrwt>0</asrwt>
<pdfrwt beam="1">  1       21 0.35986153E-01 0.12689244E+03</pdfrwt>
<pdfrwt beam="2">  1        4 0.54405510E-02 0.12689244E+03</pdfrwt>
<totfact> 0.62484904E+04</totfact>
</mgrwt>
</event>
<event>
 6    3  0.3813045E-003  0.1345301E+03  0.7818608E-02  0.1220885E+00
         21   -1    0    0  501  502  0.00000000000E+00  0.00000000000E+00  0.21069679124E+02  0.21069679124E+02  0.00000000000E+00 0. -1.
         -4   -1    0    0    0  501 -0.00000000000E+00 -0.00000000000E+00 -0.55678183596E+03  0.55678328438E+03  0.12700000000E+01 0.  1.
         25    2    1    2    0    0 -0.34892673531E+02  0.35432544074E+02 -0.49681097778E+03  0.51470331205E+03  0.12500155179E+03 0.  0.
    9000005    1    3    3    0    0 -0.47759584796E+02  0.71112017655E+02 -0.42433887628E+03  0.43289996410E+03  0.10000000000E+01 0.  0.
    9000005    1    3    3    0    0  0.12866911264E+02 -0.35679473580E+02 -0.72472101497E+02  0.81803347950E+02  0.10000000000E+01 0.  0.
         -4    1    1    2    0  502  0.34892673531E+02 -0.35432544074E+02 -0.38901179064E+02  0.63149651451E+02  0.12700000000E+01 0. -1.
<mgrwt>
<rscale>  1 0.13453011E+03</rscale>
<asrwt>0</asrwt>
<pdfrwt beam="1">  1       21 0.32414892E-02 0.13453011E+03</pdfrwt>
<pdfrwt beam="2">  1       -4 0.85661798E-01 0.13453011E+03</pdfrwt>
<totfact> 0.27492134E+04</totfact>
</mgrwt>
</event>
<event>
 6    3  0.3813045E-003  0.1362304E+03  0.7818608E-02  0.1218493E+00
         -4   -1    0    0    0  501 -0.00000000000E+00  0.00000000000E+00  0.18717942292E+03  0.18718373130E+03  0.12700000000E+01 0.  1.
         21   -1    0    0  501  502  0.00000000000E+00 -0.00000000000E+00 -0.53595826637E+02  0.53595826637E+02  0.00000000000E+00 0.  1.
         25    2    1    2    0    0  0.88173495302E+01  0.53453055268E+02  0.58684989777E+02  0.14833287641E+03  0.12499495761E+03 0.  0.
    9000005    1    3    3    0    0 -0.96555725298E+01  0.36535075059E+02  0.96115786470E+02  0.10328255515E+03  0.10000000000E+01 0.  0.
    9000005    1    3    3    0    0  0.18472922060E+02  0.16917980209E+02 -0.37430796693E+02  0.45050321251E+02  0.10000000000E+01 0.  0.
         -4    1    1    2    0  502 -0.88173495302E+01 -0.53453055268E+02  0.74898606503E+02  0.92446681532E+02  0.12700000000E+01 0. -1.
<mgrwt>
<rscale>  1 0.13623037E+03</rscale>
<asrwt>0</asrwt>
<pdfrwt beam="2">  1       21 0.82455119E-02 0.13623037E+03</pdfrwt>
<pdfrwt beam="1">  1       -4 0.28798323E-01 0.13623037E+03</pdfrwt>
<totfact> 0.52909111E+04</totfact>
</mgrwt>
</event>
<event>
 6    3  0.3813045E-003  0.1352036E+03  0.7818608E-02  0.1219933E+00
          4   -1    0    0  502    0 -0.00000000000E+00  0.00000000000E+00  0.12898150014E+02  0.12960523669E+02  0.12700000000E+01 0. -1.
         21   -1    0    0  501  502  0.00000000000E+00 -0.00000000000E+00 -0.78184687953E+03  0.78184687953E+03  0.00000000000E+00 0. -1.
         25    2    1    2    0    0 -0.47038316852E+02  0.21037379998E+02 -0.39899473203E+03  0.42127996409E+03  0.12499934939E+03 0.  0.
    9000005    1    3    3    0    0 -0.14624409497E+01  0.73014990817E+01  0.83094059361E+01  0.11202537631E+02  0.10000000000E+01 0.  0.
    9000005    1    3    3    0    0 -0.45575875902E+02  0.13735880916E+02 -0.40730413796E+03  0.41007742646E+03  0.10000000000E+01 0.  0.
          4    1    1    2  501    0  0.47038316852E+02 -0.21037379998E+02 -0.36995399749E+03  0.37352743911E+03  0.12700000000E+01 0.  1.
<mgrwt>
<rscale>  1 0.13520359E+03</rscale>
<asrwt>0</asrwt>
<pdfrwt beam="2">  1       21 0.12028416E+00 0.13520359E+03</pdfrwt>
<pdfrwt beam="1">  1        4 0.19892078E-02 0.13520359E+03</pdfrwt>
<totfact> 0.22225295E+04</totfact>
</mgrwt>
</event>
<event>
 6    3  0.3813045E-003  0.1314396E+03  0.7818608E-02  0.1225335E+00
         21   -1    0    0  501  502  0.00000000000E+00  0.00000000000E+00  0.66538727207E+02  0.66538727207E+02  0.00000000000E+00 0.  1.
          4   -1    0    0  502    0 -0.00000000000E+00 -0.00000000000E+00 -0.11127853943E+03  0.11128578632E+03  0.12700000000E+01 0.  1.
         25    2    1    2    0    0 -0.28384254973E+02 -0.29083545735E+02 -0.33534885784E+02  0.13565009190E+03  0.12499936122E+03 0.  0.
    9000005    1    3    3    0    0 -0.37128851622E+02 -0.75514327969E+02 -0.20141738277E+02  0.86531236973E+02  0.10000000000E+01 0.  0.
    9000005    1    3    3    0    0  0.87445966486E+01  0.46430782233E+02 -0.13393147507E+02  0.49118854929E+02  0.10000000000E+01 0.  0.
          4    1    1    2  501    0  0.28384254973E+02  0.29083545735E+02 -0.11204926435E+02  0.42174421624E+02  0.12700000000E+01 0. -1.
<mgrwt>
<rscale>  1 0.13143956E+03</rscale>
<asrwt>0</asrwt>
<pdfrwt beam="1">  1       21 0.10236727E-01 0.13143956E+03</pdfrwt>
<pdfrwt beam="2">  1        4 0.17121265E-01 0.13143956E+03</pdfrwt>
<totfact> 0.93158413E+04</totfact>
</mgrwt>
</event>
<event>
 6    3  0.3813045E-003  0.1272389E+03  0.7818608E-02  0.1231611E+00
         -4   -1    0    0    0  501 -0.00000000000E+00  0.00000000000E+00  0.15382058102E+03  0.15382582373E+03  0.12700000000E+01 0. -1.
         21   -1    0    0  501  502  0.00000000000E+00 -0.00000000000E+00 -0.63845971784E+02  0.63845971784E+02  0.00000000000E+00 0.  1.
         25    2    1    2    0    0 -0.22958385903E+02 -0.60856310676E+01  0.12300113833E+03  0.17697183344E+03  0.12500250962E+03 0.  0.
    9000005    1    3    3    0    0  0.46334402079E+01 -0.61950902038E+02  0.79846496153E+02  0.10117235778E+03  0.10000000000E+01 0.  0.
    9000005    1    3    3    0    0 -0.27591826111E+02  0.55865270970E+02  0.43154642180E+02  0.75799475660E+02  0.10000000000E+01 0.  0.
         -4    1    1    2    0  502  0.22958385903E+02  0.60856310676E+01 -0.33026529093E+02  0.40699962072E+02  0.12700000000E+01 0.  1.
<mgrwt>
<rscale>  1 0.12723895E+03</rscale>
<asrwt>0</asrwt>
<pdfrwt beam="2">  1       21 0.98224572E-02 0.12723895E+03</pdfrwt>
<pdfrwt beam="1">  1       -4 0.23666080E-01 0.12723895E+03</pdfrwt>
<totfact> 0.55693051E+04</totfact>
</mgrwt>
</event>
<event>
 6    3  0.3813045E-003  0.1278012E+03  0.7818608E-02  0.1230755E+00
         21   -1    0    0  501  502  0.00000000000E+00  0.00000000000E+00  0.96982401784E+02  0.96982401784E+02  0.00000000000E+00 0.  1.
         -4   -1    0    0    0  501 -0.00000000000E+00 -0.00000000000E+00 -0.62838518285E+02  0.62851350664E+02  0.12700000000E+01 0.  1.
         25    2    1    2    0    0 -0.26601426188E+02 -0.34156063760E+00  0.19029763892E+02  0.12921019860E+03  0.12500156387E+03 0.  0.
    9000005    1    3    3    0    0 -0.15754917414E+02  0.52635571600E+02  0.43268329891E+02  0.69941898687E+02  0.10000000000E+01 0.  0.
    9000005    1    3    3    0    0 -0.10846508774E+02 -0.52977132238E+02 -0.24238565999E+02  0.59268299911E+02  0.10000000000E+01 0.  0.
         -4    1    1    2    0  502  0.26601426188E+02  0.34156063760E+00  0.15114119607E+02  0.30623553850E+02  0.12700000000E+01 0. -1.
<mgrwt>
<rscale>  1 0.12780119E+03</rscale>
<asrwt>0</asrwt>
<pdfrwt beam="1">  1       21 0.14920370E-01 0.12780119E+03</pdfrwt>
<pdfrwt beam="2">  1       -4 0.96690911E-02 0.12780119E+03</pdfrwt>
<totfact> 0.12700859E+05</totfact>
</mgrwt>
</event>
<event>
 6    3  0.3813045E-003  0.1297072E+03  0.7818608E-02  0.1227891E+00
          4   -1    0    0  502    0 -0.00000000000E+00  0.00000000000E+00  0.10085480716E+03  0.10086280299E+03  0.12700000000E+01 0. -1.
         21   -1    0    0  501  502  0.00000000000E+00 -0.00000000000E+00 -0.67636853951E+02  0.67636853951E+02  0.00000000000E+00 0. -1.
         25    2    1    2    0    0 -0.64506172279E+01 -0.34014173004E+02  0.33066204593E+02  0.13385560471E+03  0.12500149838E+03 0.  0.
    9000005    1    3    3    0    0 -0.55143946167E+02  0.11199035158E+02  0.36888571546E+02  0.67290711826E+02  0.10000000000E+01 0.  0.
    9000005    1    3    3    0    0  0.48693328939E+02 -0.45213208162E+02 -0.38223669531E+01  0.66564892883E+02  0.10000000000E+01 0.  0.
          4    1    1    2  501    0  0.64506172279E+01  0.34014173004E+02  0.15174861942E+00  0.34644052237E+02  0.12700000000E+01 0.  1.
<mgrwt>
<rscale>  1 0.12970717E+03</rscale>
<asrwt>0</asrwt>
<pdfrwt beam="2">  1       21 0.10405670E-01 0.12970717E+03</pdfrwt>
<pdfrwt beam="1">  1        4 0.15517656E-01 0.12970717E+03</pdfrwt>
<totfact> 0.10741248E+05</totfact>
</mgrwt>
</event>
<event>
 6    3  0.3813045E-003  0.1276326E+03  0.7818608E-02  0.1231011E+00
         -4   -1    0    0    0  501 -0.00000000000E+00  0.00000000000E+00  0.17612600172E+02  0.17658329049E+02  0.12700000000E+01 0. -1.
         21   -1    0    0  501  502  0.00000000000E+00 -0.00000000000E+00 -0.36336481485E+03  0.36336481485E+03  0.00000000000E+00 0. -1.
         25    2    1    2    0    0 -0.34025774920E+01  0.25594703521E+02 -0.23637097583E+03  0.26862859468E+03  0.12499366898E+03 0.  0.
    9000005    1    3    3    0    0 -0.49391022667E+02 -0.27012959485E+02 -0.12580329446E+03  0.13782830623E+03  0.10000000000E+01 0.  0.
    9000005    1    3    3    0    0  0.45988445175E+02  0.52607663006E+02 -0.11056768137E+03  0.13080028846E+03  0.10000000000E+01 0.  0.
         -4    1    1    2    0  502  0.34025774920E+01 -0.25594703521E+02 -0.10938123885E+03  0.11239454922E+03  0.12700000000E+01 0.  1.
<mgrwt>
<rscale>  1 0.12763261E+03</rscale>
<asrwt>0</asrwt>
<pdfrwt beam="2">  1       21 0.55902277E-01 0.12763261E+03</pdfrwt>
<pdfrwt beam="1">  1       -4 0.27133192E-02 0.12763261E+03</pdfrwt>
<totfact> 0.76914550E+04</totfact>
</mgrwt>
</event>
<event>
 6    3  0.3813045E-003  0.1323140E+03  0.7818608E-02  0.1224062E+00
          4   -1    0    0  502    0 -0.00000000000E+00  0.00000000000E+00  0.56554449067E+02  0.56568706979E+02  0.12700000000E+01 0. -1.
         21   -1    0    0  501  502  0.00000000000E+00 -0.00000000000E+00 -0.14627481637E+03  0.14627481637E+03  0.00000000000E+00 0.  1.
         25    2    1    2    0    0 -0.31590255911E+02  0.29727991928E+02 -0.43114223141E+02  0.13916116044E+03  0.12500117825E+03 0.  0.
    9000005    1    3    3    0    0  0.34260023177E+02 -0.27894259757E+02 -0.20866484889E+02  0.48869715644E+02  0.10000000000E+01 0.  0.
    9000005    1    3    3    0    0 -0.65850279088E+02  0.57622251685E+02 -0.22247738251E+02  0.90291444792E+02  0.10000000000E+01 0.  0.
          4    1    1    2  501    0  0.31590255911E+02 -0.29727991928E+02 -0.46606144160E+02  0.63682362912E+02  0.12700000000E+01 0.  1.
<mgrwt>
<rscale>  1 0.13231399E+03</rscale>
<asrwt>0</asrwt>
<pdfrwt beam="2">  1       21 0.22503818E-01 0.13231399E+03</pdfrwt>
<pdfrwt beam="1">  1        4 0.87022054E-02 0.13231399E+03</pdfrwt>
<totfact> 0.71601115E+04</totfact>
</mgrwt>
</event>
<event>
 6    3  0.3813045E-003  0.1280725E+03  0.7818608E-02  0.1230344E+00
         -4   -1    0    0    0  501 -0.00000000000E+00  0.00000000000E+00  0.67339896850E+02  0.67351871598E+02  0.12700000000E+01 0.  1.
         21   -1    0    0  501  502  0.00000000000E+00 -0.00000000000E+00 -0.40417828673E+03  0.40417828673E+03  0.00000000000E+00 0. -1.
         25    2    1    2    0    0 -0.27342086095E+02  0.55300941416E+01  0.53692778094E+01  0.12818503700E+03  0.12499761179E+03 0.  0.
    9000005    1    3    3    0    0 -0.20589664806E+01 -0.56785261329E+02  0.18283229044E+02  0.59699930582E+02  0.10000000000E+01 0.  0.
    9000005    1    3    3    0    0 -0.25283119614E+02  0.62315355471E+02 -0.12913951235E+02  0.68485106420E+02  0.10000000000E+01 0.  0.
         -4    1    1    2    0  502  0.27342086095E+02 -0.55300941416E+01 -0.34220766769E+03  0.34334512133E+03  0.12700000000E+01 0. -1.
<mgrwt>
<rscale>  1 0.12807254E+03</rscale>
<asrwt>0</asrwt>
<pdfrwt beam="2">  1       21 0.62181275E-01 0.12807254E+03</pdfrwt>
<pdfrwt beam="1">  1       -4 0.10361059E-01 0.12807254E+03</pdfrwt>
<totfact> 0.70559912E+03</totfact>
</mgrwt>
</event>
<event>
 6    3  0.3813045E-003  0.1305149E+03  0.7818608E-02  0.1226694E+00
          4   -1    0    0  502    0 -0.00000000000E+00  0.00000000000E+00  0.38068669722E+02  0.38089847918E+02  0.12700000000E+01 0. -1.
         21   -1    0    0  501  502  0.00000000000E+00 -0.00000000000E+00 -0.33115937423E+03  0.33115937423E+03  0.00000000000E+00 0.  1.
         25    2    1    2    0    0  0.10378955077E+02 -0.36075566004E+02 -0.80452256956E+02  0.15331892912E+03  0.12499983682E+03 0.  0.
    9000005    1    3    3    0    0  0.52709363088E+02  0.16487876396E+02 -0.10714249801E+02  0.56266528007E+02  0.10000000000E+01 0.  0.
    9000005    1    3    3    0    0 -0.42330408011E+02 -0.52563442400E+02 -0.69738007155E+02  0.97052401110E+02  0.10000000000E+01 0.  0.
          4    1    1    2  501    0 -0.10378955077E+02  0.36075566004E+02 -0.21263844756E+03  0.21593029304E+03  0.12700000000E+01 0.  1.
<mgrwt>
<rscale>  1 0.13051486E+03</rscale>
<asrwt>0</asrwt>
<pdfrwt beam="2">  1       21 0.50947598E-01 0.13051486E+03</pdfrwt>
<pdfrwt beam="1">  1        4 0.58585347E-02 0.13051486E+03</pdfrwt>
<totfact> 0.27566035E+04</totfact>
</mgrwt>
</event>
<event>
 6    3  0.3813045E-003  0.1269257E+03  0.7818608E-02  0.1232090E+00
         21   -1    0    0  501  502  0.00000000000E+00  0.00000000000E+00  0.70705506522E+03  0.70705506522E+03  0.00000000000E+00 0. -1.
          4   -1    0    0  502    0 -0.00000000000E+00 -0.00000000000E+00 -0.15045409991E+02  0.15098915915E+02  0.12700000000E+01 0.  1.
         25    2    1    2    0    0 -0.21338576856E+02  0.55841092308E+01  0.25749538783E+03  0.28707838011E+03  0.12499441760E+03 0.  0.
    9000005    1    3    3    0    0 -0.40241236611E+02 -0.14437656296E+02  0.25593262096E+03  0.25948084614E+03  0.10000000000E+01 0.  0.
    9000005    1    3    3    0    0  0.18902659755E+02  0.20021765527E+02  0.15627668711E+01  0.27597533964E+02  0.10000000000E+01 0.  0.
          4    1    1    2  501    0  0.21338576856E+02 -0.55841092308E+01  0.43451426740E+03  0.43507560103E+03  0.12700000000E+01 0. -1.
<mgrwt>
<rscale>  1 0.12692565E+03</rscale>
<asrwt>0</asrwt>
<pdfrwt beam="1">  1       21 0.10877768E+00 0.12692565E+03</pdfrwt>
<pdfrwt beam="2">  1        4 0.23188826E-02 0.12692565E+03</pdfrwt>
<totfact> 0.22242453E+04</totfact>
</mgrwt>
</event>
<event>
 6    3  0.3813045E-003  0.1266247E+03  0.7818608E-02  0.1232552E+00
         -4   -1    0    0    0  501 -0.00000000000E+00  0.00000000000E+00  0.12397437462E+03  0.12398087942E+03  0.12700000000E+01 0.  1.
         21   -1    0    0  501  502  0.00000000000E+00 -0.00000000000E+00 -0.45302050609E+02  0.45302050609E+02  0.00000000000E+00 0.  1.
         25    2    1    2    0    0  0.17853141730E+02 -0.95090657901E+01  0.78560184249E+02  0.14901516061E+03  0.12499863416E+03 0.  0.
    9000005    1    3    3    0    0 -0.25087838299E+02 -0.54896276522E+02  0.20598493606E+02  0.63783216800E+02  0.10000000000E+01 0.  0.
    9000005    1    3    3    0    0  0.42940980030E+02  0.45387210732E+02  0.57961690643E+02  0.85231943813E+02  0.10000000000E+01 0.  0.
         -4    1    1    2    0  502 -0.17853141730E+02  0.95090657901E+01  0.11213976091E+00  0.20267769418E+02  0.12700000000E+01 0. -1.
<mgrwt>
<rscale>  1 0.12662470E+03</rscale>
<asrwt>0</asrwt>
<pdfrwt beam="2">  1       21 0.69695463E-02 0.12662470E+03</pdfrwt>
<pdfrwt beam="1">  1       -4 0.19074850E-01 0.12662470E+03</pdfrwt>
<totfact> 0.14870778E+05</totfact>
</mgrwt>
</event>
<event>
 6    3  0.3813045E-003  0.1636077E+03  0.7818608E-02  0.1184683E+00
         -4   -1    0    0    0  501 -0.00000000000E+00  0.00000000000E+00  0.78454215867E+02  0.78464494437E+02  0.12700000000E+01 0. -1.
         21   -1    0    0  501  502  0.00000000000E+00 -0.00000000000E+00 -0.23811400548E+03  0.23811400548E+03  0.00000000000E+00 0.  1.
         25    2    1    2    0    0  0.42955105422E+02 -0.96422378849E+02 -0.69521608098E+02  0.17776596125E+03  0.12500026704E+03 0.  0.
    9000005    1    3    3    0    0  0.69202434502E+02 -0.23724956743E+02 -0.68851752574E+02  0.10046598602E+03  0.10000000000E+01 0.  0.
    9000005    1    3    3    0    0 -0.26247329080E+02 -0.72697422106E+02 -0.66985552446E+00  0.77299975234E+02  0.10000000000E+01 0.  0.
         -4    1    1    2    0  502 -0.42955105422E+02  0.96422378849E+02 -0.90138181515E+02  0.13881253867E+03  0.12700000000E+01 0.  1.
<mgrwt>
<rscale>  1 0.16360771E+03</rscale>
<asrwt>0</asrwt>
<pdfrwt beam="2">  1       21 0.36632924E-01 0.16360771E+03</pdfrwt>
<pdfrwt beam="1">  1       -4 0.12070931E-01 0.16360771E+03</pdfrwt>
<totfact> 0.16444482E+04</totfact>
</mgrwt>
</event>
<event>
 6    3  0.3813045E-003  0.1424515E+03  0.7818608E-02  0.1210068E+00
         21   -1    0    0  501  502  0.00000000000E+00  0.00000000000E+00  0.24480103741E+03  0.24480103741E+03  0.00000000000E+00 0.  1.
          4   -1    0    0  502    0 -0.00000000000E+00 -0.00000000000E+00 -0.49552919992E+02  0.49569191840E+02  0.12700000000E+01 0. -1.
         25    2    1    2    0    0  0.56497926602E+02 -0.38418320229E+02  0.16934266683E+03  0.22129021618E+03  0.12499775170E+03 0.  0.
    9000005    1    3    3    0    0  0.82646046495E+02 -0.23796172842E+02  0.17084854780E+03  0.19127690171E+03  0.10000000000E+01 0.  0.
    9000005    1    3    3    0    0 -0.26148119893E+02 -0.14622147387E+02 -0.15058809693E+01  0.30013314473E+02  0.10000000000E+01 0.  0.
          4    1    1    2  501    0 -0.56497926602E+02  0.38418320229E+02  0.25905450589E+02  0.73080013067E+02  0.12700000000E+01 0.  1.
<mgrwt>
<rscale>  1 0.14245147E+03</rscale>
<asrwt>0</asrwt>
<pdfrwt beam="1">  1       21 0.37661697E-01 0.14245147E+03</pdfrwt>
<pdfrwt beam="2">  1        4 0.76250314E-02 0.14245147E+03</pdfrwt>
<totfact> 0.33327408E+04</totfact>
</mgrwt>
</event>
<event>
 6    3  0.3813045E-003  0.1267896E+03  0.7818608E-02  0.1232299E+00
          4   -1    0    0  502    0 -0.00000000000E+00  0.00000000000E+00  0.27180570255E+03  0.27180866954E+03  0.12700000000E+01 0. -1.
         21   -1    0    0  501  502  0.00000000000E+00 -0.00000000000E+00 -0.22667961972E+02  0.22667961972E+02  0.00000000000E+00 0.  1.
         25    2    1    2    0    0  0.21233238810E+02  0.18448649744E+00  0.23977866330E+03  0.27123680163E+03  0.12499884286E+03 0.  0.
    9000005    1    3    3    0    0 -0.69100114768E+01  0.38186412465E+02  0.21375516052E+03  0.21725151094E+03  0.10000000000E+01 0.  0.
    9000005    1    3    3    0    0  0.28143250287E+02 -0.38001925968E+02  0.26023502782E+02  0.53985290691E+02  0.10000000000E+01 0.  0.
          4    1    1    2  501    0 -0.21233238810E+02 -0.18448649744E+00  0.93590772734E+01  0.23239829884E+02  0.12700000000E+01 0.  1.
<mgrwt>
<rscale>  1 0.12678957E+03</rscale>
<asrwt>0</asrwt>
<pdfrwt beam="2">  1       21 0.34873790E-02 0.12678957E+03</pdfrwt>
<pdfrwt beam="1">  1        4 0.41819224E-01 0.12678957E+03</pdfrwt>
<totfact> 0.10905893E+05</totfact>
</mgrwt>
</event>
<event>
 6    3  0.3813045E-003  0.1266130E+03  0.7818608E-02  0.1232570E+00
          4   -1    0    0  502    0 -0.00000000000E+00  0.00000000000E+00  0.88835807843E+02  0.88844885362E+02  0.12700000000E+01 0.  1.
         21   -1    0    0  501  502  0.00000000000E+00 -0.00000000000E+00 -0.60826731545E+02  0.60826731545E+02  0.00000000000E+00 0.  1.
         25    2    1    2    0    0  0.13952186797E+02 -0.14536007774E+02  0.26988443427E+02  0.12945742313E+03  0.12499955715E+03 0.  0.
    9000005    1    3    3    0    0  0.20020111292E+02  0.52571036237E+02  0.26201022439E+02  0.62064581559E+02  0.10000000000E+01 0.  0.
    9000005    1    3    3    0    0 -0.60679244948E+01 -0.67107044012E+02  0.78742098768E+00  0.67392841575E+02  0.10000000000E+01 0.  0.
          4    1    1    2  501    0 -0.13952186797E+02  0.14536007774E+02  0.10206328715E+01  0.20214193773E+02  0.12700000000E+01 0. -1.
<mgrwt>
<rscale>  1 0.12661299E+03</rscale>
<asrwt>0</asrwt>
<pdfrwt beam="2">  1       21 0.93579587E-02 0.12661299E+03</pdfrwt>
<pdfrwt beam="1">  1        4 0.13668765E-01 0.12661299E+03</pdfrwt>
<totfact> 0.16063950E+05</totfact>
</mgrwt>
</event>
<event>
 6    3  0.3813045E-003  0.1307239E+03  0.7818608E-02  0.1226385E+00
          4   -1    0    0  502    0 -0.00000000000E+00  0.00000000000E+00  0.70964626046E+03  0.70964739687E+03  0.12700000000E+01 0.  1.
         21   -1    0    0  501  502  0.00000000000E+00 -0.00000000000E+00 -0.10288532352E+02  0.10288532352E+02  0.00000000000E+00 0. -1.
         25    2    1    2    0    0  0.37177886218E+02  0.90599432438E+01  0.58160826902E+03  0.59611821720E+03  0.12499788994E+03 0.  0.
    9000005    1    3    3    0    0  0.75012415075E+01  0.11229687202E+02  0.55788626013E+03  0.55805058349E+03  0.10000000000E+01 0.  0.
    9000005    1    3    3    0    0  0.29676644710E+02 -0.21697439580E+01  0.23722008895E+02  0.38067633708E+02  0.10000000000E+01 0.  0.
          4    1    1    2  501    0 -0.37177886218E+02 -0.90599432438E+01  0.11774945909E+03  0.12381771202E+03  0.12700000000E+01 0. -1.
<mgrwt>
<rscale>  1 0.13072395E+03</rscale>
<asrwt>0</asrwt>
<pdfrwt beam="2">  1       21 0.15828517E-02 0.13072395E+03</pdfrwt>
<pdfrwt beam="1">  1        4 0.10918243E+00 0.13072395E+03</pdfrwt>
<totfact> 0.50242364E+04</totfact>
</mgrwt>
</event>
<event>
 6    3  0.3813045E-003  0.1283140E+03  0.7818608E-02  0.1229979E+00
         21   -1    0    0  501  502  0.00000000000E+00  0.00000000000E+00  0.22041847726E+03  0.22041847726E+03  0.00000000000E+00 0.  1.
         -4   -1    0    0    0  501 -0.00000000000E+00 -0.00000000000E+00 -0.65386267533E+03  0.65386390870E+03  0.12700000000E+01 0. -1.
         25    2    1    2    0    0 -0.19507546586E+02 -0.21431096938E+02 -0.64657626683E+03  0.65918536617E+03  0.12499856744E+03 0.  0.
    9000005    1    3    3    0    0 -0.41772037913E+02 -0.66211176039E+02 -0.39315011265E+03  0.40087009624E+03  0.10000000000E+01 0.  0.
    9000005    1    3    3    0    0  0.22264491326E+02  0.44780079101E+02 -0.25342615417E+03  0.25831526993E+03  0.10000000000E+01 0.  0.
         -4    1    1    2    0  502  0.19507546586E+02  0.21431096938E+02  0.21313206875E+03  0.21509701978E+03  0.12700000000E+01 0.  1.
<mgrwt>
<rscale>  1 0.12831398E+03</rscale>
<asrwt>0</asrwt>
<pdfrwt beam="1">  1       21 0.33910535E-01 0.12831398E+03</pdfrwt>
<pdfrwt beam="2">  1       -4 0.10059463E+00 0.12831398E+03</pdfrwt>
<totfact> 0.29782738E+02</totfact>
</mgrwt>
</event>
<event>
 6    3  0.3813045E-003  0.1435161E+03  0.7818608E-02  0.1208675E+00
         -4   -1    0    0    0  501 -0.00000000000E+00  0.00000000000E+00  0.50951683028E+03  0.50951841305E+03  0.12700000000E+01 0. -1.
         21   -1    0    0  501  502  0.00000000000E+00 -0.00000000000E+00 -0.24449097186E+02  0.24449097186E+02  0.00000000000E+00 0.  1.
         25    2    1    2    0    0 -0.54476619103E+02 -0.44783401374E+02  0.39017657571E+03  0.41573384449E+03  0.12499445648E+03 0.  0.
    9000005    1    3    3    0    0 -0.31390615658E+02 -0.40499389568E+02  0.40639241188E+02  0.65407333160E+02  0.10000000000E+01 0.  0.
    9000005    1    3    3    0    0 -0.23086003444E+02 -0.42840118064E+01  0.34953733453E+03  0.35032651133E+03  0.10000000000E+01 0.  0.
         -4    1    1    2    0  502  0.54476619103E+02  0.44783401374E+02  0.94891157376E+02  0.11823366575E+03  0.12700000000E+01 0.  1.
<mgrwt>
<rscale>  1 0.14351609E+03</rscale>
<asrwt>0</asrwt>
<pdfrwt beam="2">  1       21 0.37613999E-02 0.14351609E+03</pdfrwt>
<pdfrwt beam="1">  1       -4 0.78389856E-01 0.14351609E+03</pdfrwt>
<totfact> 0.26367415E+04</totfact>
</mgrwt>
</event>
<event>
 6    3  0.3813045E-003  0.1339430E+03  0.7818608E-02  0.1221720E+00
          4   -1    0    0  502    0 -0.00000000000E+00  0.00000000000E+00  0.55505750644E+03  0.55505895935E+03  0.12700000000E+01 0. -1.
         21   -1    0    0  501  502  0.00000000000E+00 -0.00000000000E+00 -0.30329010517E+02  0.30329010517E+02  0.00000000000E+00 0.  1.
         25    2    1    2    0    0 -0.26501386414E+02 -0.40160062267E+02  0.52005714362E+03  0.53702901501E+03  0.12500230496E+03 0.  0.
    9000005    1    3    3    0    0  0.23811193438E+01 -0.13563618048E+02 -0.15961689093E+01  0.13899252465E+02  0.10000000000E+01 0.  0.
    9000005    1    3    3    0    0 -0.28882505758E+02 -0.26596444218E+02  0.52165331253E+03  0.52312976254E+03  0.10000000000E+01 0.  0.
          4    1    1    2  501    0  0.26501386414E+02  0.40160062267E+02  0.46713523056E+01  0.48358954863E+02  0.12700000000E+01 0.  1.
<mgrwt>
<rscale>  1 0.13394301E+03</rscale>
<asrwt>0</asrwt>
<pdfrwt beam="2">  1       21 0.46660020E-02 0.13394301E+03</pdfrwt>
<pdfrwt beam="1">  1        4 0.85395612E-01 0.13394301E+03</pdfrwt>
<totfact> 0.15110971E+04</totfact>
</mgrwt>
</event>
<event>
 6    3  0.3813045E-003  0.1268693E+03  0.7818608E-02  0.1232176E+00
         21   -1    0    0  501  502  0.00000000000E+00  0.00000000000E+00  0.21372323324E+02  0.21372323324E+02  0.00000000000E+00 0.  1.
         -4   -1    0    0    0  501 -0.00000000000E+00 -0.00000000000E+00 -0.26709835979E+03  0.26710137907E+03  0.12700000000E+01 0.  1.
         25    2    1    2    0    0 -0.21675494971E+02 -0.70739437134E-03 -0.22581387958E+03  0.25901298322E+03  0.12500396066E+03 0.  0.
    9000005    1    3    3    0    0 -0.25894814113E+02  0.60219777460E+02 -0.13315794888E+03  0.14842170443E+03  0.10000000000E+01 0.  0.
    9000005    1    3    3    0    0  0.42193191427E+01 -0.60220484854E+02 -0.92655930702E+02  0.11059127879E+03  0.10000000000E+01 0.  0.
         -4    1    1    2    0  502  0.21675494971E+02  0.70739437134E-03 -0.19912156881E+02  0.29460719176E+02  0.12700000000E+01 0. -1.
<mgrwt>
<rscale>  1 0.12686929E+03</rscale>
<asrwt>0</asrwt>
<pdfrwt beam="1">  1       21 0.32880500E-02 0.12686929E+03</pdfrwt>
<pdfrwt beam="2">  1       -4 0.41095187E-01 0.12686929E+03</pdfrwt>
<totfact> 0.12439778E+05</totfact>
</mgrwt>
</event>
<event>
 6    3  0.3813045E-003  0.1285649E+03  0.7818608E-02  0.1229601E+00
          4   -1    0    0  502    0 -0.00000000000E+00  0.00000000000E+00  0.63490286492E+02  0.63502987165E+02  0.12700000000E+01 0. -1.
         21   -1    0    0  501  502  0.00000000000E+00 -0.00000000000E+00 -0.12813564618E+03  0.12813564618E+03  0.00000000000E+00 0.  1.
         25    2    1    2    0    0  0.19598486378E+02  0.22798012075E+02 -0.96216489416E+01  0.12892442708E+03  0.12500032699E+03 0.  0.
    9000005    1    3    3    0    0  0.21995856202E+02  0.64639952553E+02 -0.38144837748E+02  0.78218730512E+02  0.10000000000E+01 0.  0.
    9000005    1    3    3    0    0 -0.23973698242E+01 -0.41841940477E+02  0.28523188806E+02  0.50705696570E+02  0.10000000000E+01 0.  0.
          4    1    1    2  501    0 -0.19598486378E+02 -0.22798012075E+02 -0.55023710742E+02  0.62714206260E+02  0.12700000000E+01 0.  1.
<mgrwt>
<rscale>  1 0.12856489E+03</rscale>
<asrwt>0</asrwt>
<pdfrwt beam="2">  1       21 0.19713176E-01 0.12856489E+03</pdfrwt>
<pdfrwt beam="1">  1        4 0.97691975E-02 0.12856489E+03</pdfrwt>
<totfact> 0.75186946E+04</totfact>
</mgrwt>
</event>
<event>
 6    3  0.3813045E-003  0.1267267E+03  0.7818608E-02  0.1232395E+00
          4   -1    0    0  502    0 -0.00000000000E+00  0.00000000000E+00  0.31180342734E+02  0.31206196067E+02  0.12700000000E+01 0.  1.
         21   -1    0    0  501  502  0.00000000000E+00 -0.00000000000E+00 -0.18567051602E+03  0.18567051602E+03  0.00000000000E+00 0.  1.
         25    2    1    2    0    0  0.19775318282E+02  0.66088902790E+01 -0.14834008814E+03  0.19510110438E+03  0.12499967415E+03 0.  0.
    9000005    1    3    3    0    0 -0.51546540068E+02  0.11225506893E+02 -0.82442606460E+02  0.97881771326E+02  0.10000000000E+01 0.  0.
    9000005    1    3    3    0    0  0.71321858350E+02 -0.46166166141E+01 -0.65897481682E+02  0.97219333054E+02  0.10000000000E+01 0.  0.
          4    1    1    2  501    0 -0.19775318282E+02 -0.66088902790E+01 -0.61500851481E+01  0.21775607711E+02  0.12700000000E+01 0. -1.
<mgrwt>
<rscale>  1 0.12672671E+03</rscale>
<asrwt>0</asrwt>
<pdfrwt beam="2">  1       21 0.28564694E-01 0.12672671E+03</pdfrwt>
<pdfrwt beam="1">  1        4 0.47992987E-02 0.12672671E+03</pdfrwt>
<totfact> 0.11971896E+05</totfact>
</mgrwt>
</event>
<event>
 6    3  0.3813045E-003  0.1309453E+03  0.7818608E-02  0.1226060E+00
          4   -1    0    0  502    0 -0.00000000000E+00  0.00000000000E+00  0.31046120565E+02  0.31072085577E+02  0.12700000000E+01 0. -1.
         21   -1    0    0  501  502  0.00000000000E+00 -0.00000000000E+00 -0.23739292663E+03  0.23739292663E+03  0.00000000000E+00 0. -1.
         25    2    1    2    0    0 -0.37866849543E+02  0.99360942572E+01 -0.14221638861E+03  0.19331883728E+03  0.12495618190E+03 0.  0.
    9000005    1    3    3    0    0 -0.12039713157E+02  0.42187695121E+02  0.13676081764E+01  0.43904745355E+02  0.10000000000E+01 0.  0.
    9000005    1    3    3    0    0 -0.25827136386E+02 -0.32251600864E+02 -0.14358399679E+03  0.14941409193E+03  0.10000000000E+01 0.  0.
          4    1    1    2  501    0  0.37866849543E+02 -0.99360942572E+01 -0.64130417449E+02  0.75146174923E+02  0.12700000000E+01 0.  1.
<mgrwt>
<rscale>  1 0.13094530E+03</rscale>
<asrwt>0</asrwt>
<pdfrwt beam="2">  1       21 0.36521988E-01 0.13094530E+03</pdfrwt>
<pdfrwt beam="1">  1        4 0.47785850E-02 0.13094530E+03</pdfrwt>
<totfact> 0.75052557E+04</totfact>
</mgrwt>
</event>
<event>
 6    3  0.3813045E-003  0.1266656E+03  0.7818608E-02  0.1232489E+00
         21   -1    0    0  501  502  0.00000000000E+00  0.00000000000E+00  0.44102964860E+03  0.44102964860E+03  0.00000000000E+00 0.  1.
         -4   -1    0    0    0  501 -0.00000000000E+00 -0.00000000000E+00 -0.52376264100E+02  0.52391659079E+02  0.12700000000E+01 0. -1.
         25    2    1    2    0    0 -0.20348511772E+02 -0.22545314484E+01  0.24899728617E+02  0.12908975550E+03  0.12500009459E+03 0.  0.
    9000005    1    3    3    0    0  0.18872052770E+02  0.43947446537E+02 -0.21801842532E+02  0.52572357477E+02  0.10000000000E+01 0.  0.
    9000005    1    3    3    0    0 -0.39220564542E+02 -0.46201977985E+02  0.46701571150E+02  0.76517398025E+02  0.10000000000E+01 0.  0.
         -4    1    1    2    0  502  0.20348511772E+02  0.22545314484E+01  0.36375365588E+03  0.36433155217E+03  0.12700000000E+01 0.  1.
<mgrwt>
<rscale>  1 0.12666558E+03</rscale>
<asrwt>0</asrwt>
<pdfrwt beam="1">  1       21 0.67850713E-01 0.12666558E+03</pdfrwt>
<pdfrwt beam="2">  1       -4 0.80592119E-02 0.12666558E+03</pdfrwt>
<totfact> 0.88925460E+03</totfact>
</mgrwt>
</event>
<event>
 6    3  0.3813045E-003  0.1354198E+03  0.7818608E-02  0.1219628E+00
         21   -1    0    0  501  502  0.00000000000E+00  0.00000000000E+00  0.80067515987E+02  0.80067515987E+02  0.00000000000E+00 0. -1.
         -4   -1    0    0    0  501 -0.00000000000E+00 -0.00000000000E+00 -0.20073380425E+03  0.20073782172E+03  0.12700000000E+01 0.  1.
         25    2    1    2    0    0  0.13461839754E+02 -0.50325730703E+02 -0.16424593392E+03  0.21287376393E+03  0.12499844903E+03 0.  0.
    9000005    1    3    3    0    0 -0.15878699130E+02 -0.43805588710E+01 -0.15700681607E+03  0.15787166521E+03  0.10000000000E+01 0.  0.
    9000005    1    3    3    0    0  0.29340538884E+02 -0.45945171832E+02 -0.72391178503E+01  0.55002098723E+02  0.10000000000E+01 0.  0.
         -4    1    1    2    0  502 -0.13461839754E+02  0.50325730703E+02  0.43579645657E+02  0.67931573778E+02  0.12700000000E+01 0. -1.
<mgrwt>
<rscale>  1 0.13541976E+03</rscale>
<asrwt>0</asrwt>
<pdfrwt beam="1">  1       21 0.12318080E-01 0.13541976E+03</pdfrwt>
<pdfrwt beam="2">  1       -4 0.30883207E-01 0.13541976E+03</pdfrwt>
<totfact> 0.22927753E+04</totfact>
</mgrwt>
</event>
<event>
 6    3  0.3813045E-003  0.1470020E+03  0.7818608E-02  0.1204206E+00
         21   -1    0    0  501  502  0.00000000000E+00  0.00000000000E+00  0.41085496880E+02  0.41085496880E+02  0.00000000000E+00 0.  1.
          4   -1    0    0  502    0 -0.00000000000E+00 -0.00000000000E+00 -0.48818157070E+03  0.48818322265E+03  0.12700000000E+01 0. -1.
         25    2    1    2    0    0 -0.76553707212E+02 -0.11143065449E+02 -0.42364084284E+03  0.44842072168E+03  0.12499976766E+03 0.  0.
    9000005    1    3    3    0    0  0.21575728958E+02 -0.34281134042E+02 -0.18445207729E+03  0.18884987967E+03  0.10000000000E+01 0.  0.
    9000005    1    3    3    0    0 -0.98129436170E+02  0.23138068593E+02 -0.23918876554E+03  0.25957084201E+03  0.10000000000E+01 0.  0.
          4    1    1    2  501    0  0.76553707212E+02  0.11143065449E+02 -0.23455230983E+02  0.80847997847E+02  0.12700000000E+01 0.  1.
<mgrwt>
<rscale>  1 0.14700197E+03</rscale>
<asrwt>0</asrwt>
<pdfrwt beam="1">  1       21 0.63208454E-02 0.14700197E+03</pdfrwt>
<pdfrwt beam="2">  1        4 0.75106497E-01 0.14700197E+03</pdfrwt>
<totfact> 0.12124475E+04</totfact>
</mgrwt>
</event>
<event>
 6    3  0.3813045E-003  0.1275016E+03  0.7818608E-02  0.1231211E+00
         21   -1    0    0  501  502  0.00000000000E+00  0.00000000000E+00  0.25368890322E+02  0.25368890322E+02  0.00000000000E+00 0. -1.
         -4   -1    0    0    0  501 -0.00000000000E+00 -0.00000000000E+00 -0.25503442274E+03  0.25503758484E+03  0.12700000000E+01 0.  1.
         25    2    1    2    0    0  0.77427584293E+01  0.23905383944E+02 -0.21828017273E+03  0.25279022986E+03  0.12500099525E+03 0.  0.
    9000005    1    3    3    0    0  0.60627267048E+02 -0.12785396647E+02 -0.90099269448E+02  0.10935268736E+03  0.10000000000E+01 0.  0.
    9000005    1    3    3    0    0 -0.52884508619E+02  0.36690780591E+02 -0.12818090329E+03  0.14343754250E+03  0.10000000000E+01 0.  0.
         -4    1    1    2    0  502 -0.77427584293E+01 -0.23905383944E+02 -0.11385359685E+02  0.27616245306E+02  0.12700000000E+01 0. -1.
<mgrwt>
<rscale>  1 0.12750163E+03</rscale>
<asrwt>0</asrwt>
<pdfrwt beam="1">  1       21 0.39029063E-02 0.12750163E+03</pdfrwt>
<pdfrwt beam="2">  1       -4 0.39238753E-01 0.12750163E+03</pdfrwt>
<totfact> 0.10270837E+05</totfact>
</mgrwt>
</event>
<event>
 6    3  0.3813045E-003  0.1275881E+03  0.7818608E-02  0.1231079E+00
          4   -1    0    0  502    0 -0.00000000000E+00  0.00000000000E+00  0.15397069034E+02  0.15449357101E+02  0.12700000000E+01 0. -1.
         21   -1    0    0  501  502  0.00000000000E+00 -0.00000000000E+00 -0.53102163745E+03  0.53102163745E+03  0.00000000000E+00 0. -1.
         25    2    1    2    0    0  0.21359846957E+02 -0.14047070810E+02 -0.26051645296E+03  0.29008198010E+03  0.12500067862E+03 0.  0.
    9000005    1    3    3    0    0 -0.27554191337E+02 -0.44440877815E+02 -0.51977049437E+02  0.73734922183E+02  0.10000000000E+01 0.  0.
    9000005    1    3    3    0    0  0.48914038294E+02  0.30393807005E+02 -0.20853940352E+03  0.21634705791E+03  0.10000000000E+01 0.  0.
          4    1    1    2  501    0 -0.21359846957E+02  0.14047070810E+02 -0.25510811546E+03  0.25638901445E+03  0.12700000000E+01 0.  1.
<mgrwt>
<rscale>  1 0.12758814E+03</rscale>
<asrwt>0</asrwt>
<pdfrwt beam="2">  1       21 0.81695645E-01 0.12758814E+03</pdfrwt>
<pdfrwt beam="1">  1        4 0.23729186E-02 0.12758814E+03</pdfrwt>
<totfact> 0.41614800E+04</totfact>
</mgrwt>
</event>
<event>
 6    3  0.3813045E-003  0.1274438E+03  0.7818608E-02  0.1231299E+00
         21   -1    0    0  501  502  0.00000000000E+00  0.00000000000E+00  0.66340694388E+02  0.66340694388E+02  0.00000000000E+00 0.  1.
          4   -1    0    0  502    0 -0.00000000000E+00 -0.00000000000E+00 -0.93061008514E+02  0.93069673931E+02  0.12700000000E+01 0.  1.
         25    2    1    2    0    0  0.21635330755E+02  0.12199661699E+02 -0.36684041579E+02  0.13261842835E+03  0.12500003740E+03 0.  0.
    9000005    1    3    3    0    0 -0.35227403506E+02 -0.36720225751E+02 -0.48482485538E+01  0.51125829588E+02  0.10000000000E+01 0.  0.
    9000005    1    3    3    0    0  0.56862734261E+02  0.48919887450E+02 -0.31835793025E+02  0.81492598764E+02  0.10000000000E+01 0.  0.
          4    1    1    2  501    0 -0.21635330755E+02 -0.12199661699E+02  0.99637274531E+01  0.26791939967E+02  0.12700000000E+01 0. -1.
<mgrwt>
<rscale>  1 0.12744383E+03</rscale>
<asrwt>0</asrwt>
<pdfrwt beam="1">  1       21 0.10206261E-01 0.12744383E+03</pdfrwt>
<pdfrwt beam="2">  1        4 0.14318680E-01 0.12744383E+03</pdfrwt>
<totfact> 0.12750786E+05</totfact>
</mgrwt>
</event>
<event>
 6    3  0.3813045E-003  0.1266970E+03  0.7818608E-02  0.1232441E+00
          4   -1    0    0  502    0 -0.00000000000E+00  0.00000000000E+00  0.15620569617E+03  0.15621085883E+03  0.12700000000E+01 0. -1.
         21   -1    0    0  501  502  0.00000000000E+00 -0.00000000000E+00 -0.39303601929E+02  0.39303601929E+02  0.00000000000E+00 0. -1.
         25    2    1    2    0    0  0.10502215222E+02  0.17833113047E+02  0.12005284655E+03  0.17454170258E+03  0.12499521402E+03 0.  0.
    9000005    1    3    3    0    0 -0.11241271982E+02 -0.41243432739E+02  0.45587585012E+01  0.43001967617E+02  0.10000000000E+01 0.  0.
    9000005    1    3    3    0    0  0.21743487204E+02  0.59076545787E+02  0.11549408805E+03  0.13153973496E+03  0.10000000000E+01 0.  0.
          4    1    1    2  501    0 -0.10502215222E+02 -0.17833113047E+02 -0.31507523137E+01  0.20972758180E+02  0.12700000000E+01 0.  1.
<mgrwt>
<rscale>  1 0.12669696E+03</rscale>
<asrwt>0</asrwt>
<pdfrwt beam="2">  1       21 0.60467081E-02 0.12669696E+03</pdfrwt>
<pdfrwt beam="1">  1        4 0.24033621E-01 0.12669696E+03</pdfrwt>
<totfact> 0.12465462E+05</totfact>
</mgrwt>
</event>
<event>
 6    3  0.3813045E-003  0.1303500E+03  0.7818608E-02  0.1226937E+00
          4   -1    0    0  502    0 -0.00000000000E+00  0.00000000000E+00  0.16987774066E+03  0.16988248783E+03  0.12700000000E+01 0. -1.
         21   -1    0    0  501  502  0.00000000000E+00 -0.00000000000E+00 -0.41604362746E+02  0.41604362746E+02  0.00000000000E+00 0. -1.
         25    2    1    2    0    0 -0.21849729032E+02  0.29810795129E+02  0.10821162311E+03  0.16941333075E+03  0.12500010838E+03 0.  0.
    9000005    1    3    3    0    0  0.42328705852E+02 -0.78607250123E+01  0.67617215126E+01  0.43591641569E+02  0.10000000000E+01 0.  0.
    9000005    1    3    3    0    0 -0.64178434885E+02  0.37671520141E+02  0.10144990159E+03  0.12582168918E+03  0.10000000000E+01 0.  0.
          4    1    1    2  501    0  0.21849729032E+02 -0.29810795129E+02  0.20061754805E+02  0.42073519830E+02  0.12700000000E+01 0.  1.
<mgrwt>
<rscale>  1 0.13035000E+03</rscale>
<asrwt>0</asrwt>
<pdfrwt beam="2">  1       21 0.64006713E-02 0.13035000E+03</pdfrwt>
<pdfrwt beam="1">  1        4 0.26136893E-01 0.13035000E+03</pdfrwt>
<totfact> 0.97354521E+04</totfact>
</mgrwt>
</event>
<event>
 6    3  0.3813045E-003  0.1267206E+03  0.7818608E-02  0.1232404E+00
         21   -1    0    0  501  502  0.00000000000E+00  0.00000000000E+00  0.64118027759E+02  0.64118027759E+02  0.00000000000E+00 0.  1.
          4   -1    0    0  502    0 -0.00000000000E+00 -0.00000000000E+00 -0.12265259089E+03  0.12265916579E+03  0.12700000000E+01 0.  1.
         25    2    1    2    0    0  0.20807837718E+02 -0.14909029471E+00 -0.85370906316E+02  0.15279498418E+03  0.12500050882E+03 0.  0.
    9000005    1    3    3    0    0  0.36360678548E+02  0.55760389824E+02 -0.31680499633E+02  0.73729058551E+02  0.10000000000E+01 0.  0.
    9000005    1    3    3    0    0 -0.15552840829E+02 -0.55909480119E+02 -0.53690406683E+02  0.79065925624E+02  0.10000000000E+01 0.  0.
          4    1    1    2  501    0 -0.20807837718E+02  0.14909029471E+00  0.26836343184E+02  0.33982209373E+02  0.12700000000E+01 0. -1.
<mgrwt>
<rscale>  1 0.12672062E+03</rscale>
<asrwt>0</asrwt>
<pdfrwt beam="1">  1       21 0.98643121E-02 0.12672062E+03</pdfrwt>
<pdfrwt beam="2">  1        4 0.18871102E-01 0.12672062E+03</pdfrwt>
<totfact> 0.83194896E+04</totfact>
</mgrwt>
</event>
<event>
 6    3  0.3813045E-003  0.1291768E+03  0.7818608E-02  0.1228682E+00
         -4   -1    0    0    0  501 -0.00000000000E+00  0.00000000000E+00  0.12178480325E+03  0.12179142500E+03  0.12700000000E+01 0.  1.
         21   -1    0    0  501  502  0.00000000000E+00 -0.00000000000E+00 -0.52206205994E+03  0.52206205994E+03  0.00000000000E+00 0. -1.
         25    2    1    2    0    0  0.24351761031E+02  0.21624129052E+02  0.86836256546E+02  0.15565086420E+03  0.12500417934E+03 0.  0.
    9000005    1    3    3    0    0 -0.12359057990E+02 -0.18850107045E+02 -0.23464848759E+02  0.32552603234E+02  0.10000000000E+01 0.  0.
    9000005    1    3    3    0    0  0.36710819021E+02  0.40474236097E+02  0.11030110531E+03  0.12309826096E+03  0.10000000000E+01 0.  0.
         -4    1    1    2    0  502 -0.24351761031E+02 -0.21624129052E+02 -0.48711351324E+03  0.48820262074E+03  0.12700000000E+01 0. -1.
<mgrwt>
<rscale>  1 0.12917684E+03</rscale>
<asrwt>0</asrwt>
<pdfrwt beam="2">  1       21 0.80317242E-01 0.12917684E+03</pdfrwt>
<pdfrwt beam="1">  1       -4 0.18736751E-01 0.12917684E+03</pdfrwt>
<totfact> 0.14454912E+03</totfact>
</mgrwt>
</event>
<event>
 6    3  0.3813045E-003  0.1314818E+03  0.7818608E-02  0.1225273E+00
         -4   -1    0    0    0  501 -0.00000000000E+00  0.00000000000E+00  0.77335560720E+02  0.77345987949E+02  0.12700000000E+01 0. -1.
         21   -1    0    0  501  502  0.00000000000E+00 -0.00000000000E+00 -0.98755775044E+02  0.98755775044E+02  0.00000000000E+00 0. -1.
         25    2    1    2    0    0 -0.40345928689E+02  0.59045583085E+01 -0.34586885009E+01  0.13152725144E+03  0.12499919029E+03 0.  0.
    9000005    1    3    3    0    0  0.30812735363E+02  0.37801361282E+02 -0.18378157556E+02  0.52126041960E+02  0.10000000000E+01 0.  0.
    9000005    1    3    3    0    0 -0.71158664052E+02 -0.31896802973E+02  0.14919469055E+02  0.79401209477E+02  0.10000000000E+01 0.  0.
         -4    1    1    2    0  502  0.40345928689E+02 -0.59045583085E+01 -0.17961525823E+02  0.44574511556E+02  0.12700000000E+01 0.  1.
<mgrwt>
<rscale>  1 0.13148177E+03</rscale>
<asrwt>0</asrwt>
<pdfrwt beam="2">  1       21 0.15193196E-01 0.13148177E+03</pdfrwt>
<pdfrwt beam="1">  1       -4 0.11899209E-01 0.13148177E+03</pdfrwt>
<totfact> 0.86853371E+04</totfact>
</mgrwt>
</event>
<event>
 6    3  0.3813045E-003  0.1306783E+03  0.7818608E-02  0.1226453E+00
         -4   -1    0    0    0  501 -0.00000000000E+00  0.00000000000E+00  0.62300731629E+02  0.62313674755E+02  0.12700000000E+01 0. -1.
         21   -1    0    0  501  502  0.00000000000E+00 -0.00000000000E+00 -0.11461764798E+03  0.11461764798E+03  0.00000000000E+00 0. -1.
         25    2    1    2    0    0  0.36070248774E+02  0.12287551275E+02 -0.36736135300E+02  0.13574369836E+03  0.12499904498E+03 0.  0.
    9000005    1    3    3    0    0  0.89820617255E+01  0.19740242186E+02  0.44644841513E+02  0.49643896585E+02  0.10000000000E+01 0.  0.
    9000005    1    3    3    0    0  0.27088187048E+02 -0.74526909109E+01 -0.81380976813E+02  0.86099801779E+02  0.10000000000E+01 0.  0.
         -4    1    1    2    0  502 -0.36070248774E+02 -0.12287551275E+02 -0.15580781048E+02  0.41187624367E+02  0.12700000000E+01 0.  1.
<mgrwt>
<rscale>  1 0.13067826E+03</rscale>
<asrwt>0</asrwt>
<pdfrwt beam="2">  1       21 0.17633484E-01 0.13067826E+03</pdfrwt>
<pdfrwt beam="1">  1       -4 0.95862649E-02 0.13067826E+03</pdfrwt>
<totfact> 0.95458311E+04</totfact>
</mgrwt>
</event>
<event>
 6    3  0.3813045E-003  0.1284363E+03  0.7818608E-02  0.1229795E+00
         -4   -1    0    0    0  501 -0.00000000000E+00  0.00000000000E+00  0.51044720812E+02  0.51060517259E+02  0.12700000000E+01 0. -1.
         21   -1    0    0  501  502  0.00000000000E+00 -0.00000000000E+00 -0.12256808214E+03  0.12256808214E+03  0.00000000000E+00 0. -1.
         25    2    1    2    0    0  0.19838016135E+02 -0.21846468229E+02 -0.61810781587E+02  0.14253580018E+03  0.12500026621E+03 0.  0.
    9000005    1    3    3    0    0  0.41384929077E+02 -0.55512394264E+02 -0.39238997651E+00  0.69249492717E+02  0.10000000000E+01 0.  0.
    9000005    1    3    3    0    0 -0.21546912941E+02  0.33665926035E+02 -0.61418391610E+02  0.73286307460E+02  0.10000000000E+01 0.  0.
         -4    1    1    2    0  502 -0.19838016135E+02  0.21846468229E+02 -0.97125797430E+01  0.31092799223E+02  0.12700000000E+01 0.  1.
<mgrwt>
<rscale>  1 0.12843629E+03</rscale>
<asrwt>0</asrwt>
<pdfrwt beam="2">  1       21 0.18856628E-01 0.12843629E+03</pdfrwt>
<pdfrwt beam="1">  1       -4 0.78547553E-02 0.12843629E+03</pdfrwt>
<totfact> 0.11733784E+05</totfact>
</mgrwt>
</event>
<event>
 6    3  0.3813045E-003  0.1272206E+03  0.7818608E-02  0.1231639E+00
         21   -1    0    0  501  502  0.00000000000E+00  0.00000000000E+00  0.15658213896E+02  0.15658213896E+02  0.00000000000E+00 0.  1.
         -4   -1    0    0    0  501 -0.00000000000E+00 -0.00000000000E+00 -0.39408007828E+03  0.39408212469E+03  0.12700000000E+01 0.  1.
         25    2    1    2    0    0  0.15409845684E+02  0.17961771261E+02 -0.35180333955E+03  0.37409980919E+03  0.12499995580E+03 0.  0.
    9000005    1    3    3    0    0  0.50712813481E+02  0.32915795186E+02 -0.83641232000E+02  0.10320898563E+03  0.10000000000E+01 0.  0.
    9000005    1    3    3    0    0 -0.35302967797E+02 -0.14954023925E+02 -0.26816210755E+03  0.27089082356E+03  0.10000000000E+01 0.  0.
         -4    1    1    2    0  502 -0.15409845684E+02 -0.17961771261E+02 -0.26618524842E+02  0.35640529395E+02  0.12700000000E+01 0. -1.
<mgrwt>
<rscale>  1 0.12722059E+03</rscale>
<asrwt>0</asrwt>
<pdfrwt beam="1">  1       21 0.24089559E-02 0.12722059E+03</pdfrwt>
<pdfrwt beam="2">  1       -4 0.60631827E-01 0.12722059E+03</pdfrwt>
<totfact> 0.93805596E+04</totfact>
</mgrwt>
</event>
<event>
 6    3  0.3813045E-003  0.1294346E+03  0.7818608E-02  0.1228297E+00
         21   -1    0    0  501  502  0.00000000000E+00  0.00000000000E+00  0.82227007050E+01  0.82227007050E+01  0.00000000000E+00 0. -1.
         -4   -1    0    0    0  501 -0.00000000000E+00 -0.00000000000E+00 -0.11192613852E+04  0.11192621057E+04  0.12700000000E+01 0.  1.
         25    2    1    2    0    0  0.13070456704E+02  0.30957408970E+02 -0.10486742148E+04  0.10566318743E+04  0.12499644405E+03 0.  0.
    9000005    1    3    3    0    0  0.20933778130E+02 -0.19956168110E+02 -0.59984687813E+02  0.66600559190E+02  0.10000000000E+01 0.  0.
    9000005    1    3    3    0    0 -0.78633214265E+01  0.50913577080E+02 -0.98868952695E+03  0.99003131509E+03  0.10000000000E+01 0.  0.
         -4    1    1    2    0  502 -0.13070456704E+02 -0.30957408970E+02 -0.62364469726E+02  0.70852932140E+02  0.12700000000E+01 0. -1.
<mgrwt>
<rscale>  1 0.12943457E+03</rscale>
<asrwt>0</asrwt>
<pdfrwt beam="1">  1       21 0.12650313E-02 0.12943457E+03</pdfrwt>
<pdfrwt beam="2">  1       -4 0.17220160E+00 0.12943457E+03</pdfrwt>
<totfact> 0.23070298E+04</totfact>
</mgrwt>
</event>
<event>
 6    3  0.3813045E-003  0.1317095E+03  0.7818608E-02  0.1224941E+00
         21   -1    0    0  501  502  0.00000000000E+00  0.00000000000E+00  0.14556036538E+04  0.14556036538E+04  0.00000000000E+00 0.  1.
         -4   -1    0    0    0  501 -0.00000000000E+00 -0.00000000000E+00 -0.16366648198E+02  0.16415848234E+02  0.12700000000E+01 0. -1.
         25    2    1    2    0    0 -0.27847553359E+02  0.30770187882E+02  0.25455915895E+03  0.28661429539E+03  0.12500039290E+03 0.  0.
    9000005    1    3    3    0    0 -0.65194024901E+02  0.12860037492E+00  0.21341076839E+03  0.22314890429E+03  0.10000000000E+01 0.  0.
    9000005    1    3    3    0    0  0.37346471543E+02  0.30641587507E+02  0.41148390556E+02  0.63465391096E+02  0.10000000000E+01 0.  0.
         -4    1    1    2    0  502  0.27847553359E+02 -0.30770187882E+02  0.11846778467E+04  0.11854052066E+04  0.12700000000E+01 0.  1.
<mgrwt>
<rscale>  1 0.13170949E+03</rscale>
<asrwt>0</asrwt>
<pdfrwt beam="1">  1       21 0.22393892E+00 0.13170949E+03</pdfrwt>
<pdfrwt beam="2">  1       -4 0.25217743E-02 0.13170949E+03</pdfrwt>
<totfact> 0.28682214E+03</totfact>
</mgrwt>
</event>
<event>
 6    3  0.3813045E-003  0.1303051E+03  0.7818608E-02  0.1227004E+00
         21   -1    0    0  501  502  0.00000000000E+00  0.00000000000E+00  0.45743391889E+03  0.45743391889E+03  0.00000000000E+00 0. -1.
         -4   -1    0    0    0  501 -0.00000000000E+00 -0.00000000000E+00 -0.23370961974E+02  0.23405443034E+02  0.12700000000E+01 0.  1.
         25    2    1    2    0    0  0.22409940219E+02  0.29192658568E+02  0.16986624940E+03  0.21408867327E+03  0.12500000241E+03 0.  0.
    9000005    1    3    3    0    0 -0.44254844446E+02  0.20043470837E+02  0.12252247161E+03  0.13180663121E+03  0.10000000000E+01 0.  0.
    9000005    1    3    3    0    0  0.66664784666E+02  0.91491877313E+01  0.47343777784E+02  0.82282042060E+02  0.10000000000E+01 0.  0.
         -4    1    1    2    0  502 -0.22409940219E+02 -0.29192658568E+02  0.26419670752E+03  0.26675068865E+03  0.12700000000E+01 0. -1.
<mgrwt>
<rscale>  1 0.13030509E+03</rscale>
<asrwt>0</asrwt>
<pdfrwt beam="1">  1       21 0.70374442E-01 0.13030509E+03</pdfrwt>
<pdfrwt beam="2">  1       -4 0.35983210E-02 0.13030509E+03</pdfrwt>
<totfact> 0.30254649E+04</totfact>
</mgrwt>
</event>
<event>
 6    3  0.3813045E-003  0.1273988E+03  0.7818608E-02  0.1231367E+00
         21   -1    0    0  501  502  0.00000000000E+00  0.00000000000E+00  0.81635752923E+01  0.81635752923E+01  0.00000000000E+00 0.  1.
         -4   -1    0    0    0  501 -0.00000000000E+00 -0.00000000000E+00 -0.74903803963E+03  0.74903911628E+03  0.12700000000E+01 0.  1.
         25    2    1    2    0    0 -0.23886994410E+02 -0.61490185536E+01 -0.67350958328E+03  0.68545285512E+03  0.12498823499E+03 0.  0.
    9000005    1    3    3    0    0 -0.26021664037E+02 -0.60879874230E+02 -0.25861582736E+03  0.26695810954E+03  0.10000000000E+01 0.  0.
    9000005    1    3    3    0    0  0.21346696267E+01  0.54730855676E+02 -0.41489375592E+03  0.41849474558E+03  0.10000000000E+01 0.  0.
         -4    1    1    2    0  502  0.23886994410E+02  0.61490185536E+01 -0.67364881055E+02  0.71749836451E+02  0.12700000000E+01 0. -1.
<mgrwt>
<rscale>  1 0.12739881E+03</rscale>
<asrwt>0</asrwt>
<pdfrwt beam="1">  1       21 0.12559347E-02 0.12739881E+03</pdfrwt>
<pdfrwt beam="2">  1       -4 0.11524430E+00 0.12739881E+03</pdfrwt>
<totfact> 0.63717616E+04</totfact>
</mgrwt>
</event>
<event>
 6    3  0.3813045E-003  0.2437812E+03  0.7818608E-02  0.1117299E+00
         21   -1    0    0  501  502  0.00000000000E+00  0.00000000000E+00  0.32986496923E+03  0.32986496923E+03  0.00000000000E+00 0.  1.
         -4   -1    0    0    0  501 -0.00000000000E+00 -0.00000000000E+00 -0.15845796303E+03  0.15846305231E+03  0.12700000000E+01 0. -1.
         25    2    1    2    0    0 -0.10382364853E+03  0.18172871557E+03  0.59276896003E+02  0.25088444810E+03  0.12499831936E+03 0.  0.
    9000005    1    3    3    0    0 -0.50084011047E+02  0.13029944395E+03  0.94501377205E+02  0.16857598747E+03  0.10000000000E+01 0.  0.
    9000005    1    3    3    0    0 -0.53739637479E+02  0.51429271619E+02 -0.35224481202E+02  0.82308460632E+02  0.10000000000E+01 0.  0.
         -4    1    1    2    0  502  0.10382364853E+03 -0.18172871557E+03  0.11213011019E+03  0.23744357344E+03  0.12700000000E+01 0.  1.
<mgrwt>
<rscale>  1 0.24378116E+03</rscale>
<asrwt>0</asrwt>
<pdfrwt beam="1">  1       21 0.50748457E-01 0.24378116E+03</pdfrwt>
<pdfrwt beam="2">  1       -4 0.24378728E-01 0.24378116E+03</pdfrwt>
<totfact> 0.24466117E+03</totfact>
</mgrwt>
</event>
<event>
 6    3  0.3813045E-003  0.1271712E+03  0.7818608E-02  0.1231715E+00
          4   -1    0    0  502    0 -0.00000000000E+00  0.00000000000E+00  0.14489973909E+02  0.14545523156E+02  0.12700000000E+01 0.  1.
         21   -1    0    0  501  502  0.00000000000E+00 -0.00000000000E+00 -0.40585155564E+03  0.40585155564E+03  0.00000000000E+00 0. -1.
         25    2    1    2    0    0  0.18661704195E+02  0.14037627481E+02 -0.29510268370E+03  0.32133799269E+03  0.12500878943E+03 0.  0.
    9000005    1    3    3    0    0 -0.96580822754E+01  0.65614088443E+02 -0.18438620116E+03  0.19595345961E+03  0.10000000000E+01 0.  0.
    9000005    1    3    3    0    0  0.28319786470E+02 -0.51576460962E+02 -0.11071648254E+03  0.12538453309E+03  0.10000000000E+01 0.  0.
          4    1    1    2  501    0 -0.18661704195E+02 -0.14037627481E+02 -0.96258898033E+02  0.99059086101E+02  0.12700000000E+01 0. -1.
<mgrwt>
<rscale>  1 0.12717119E+03</rscale>
<asrwt>0</asrwt>
<pdfrwt beam="2">  1       21 0.62438703E-01 0.12717119E+03</pdfrwt>
<pdfrwt beam="1">  1        4 0.22336525E-02 0.12717119E+03</pdfrwt>
<totfact> 0.82257257E+04</totfact>
</mgrwt>
</event>
<event>
 6    3  0.3813045E-003  0.1314162E+03  0.7818608E-02  0.1225369E+00
         -4   -1    0    0    0  501 -0.00000000000E+00  0.00000000000E+00  0.10486665864E+02  0.10563288358E+02  0.12700000000E+01 0.  1.
         21   -1    0    0  501  502  0.00000000000E+00 -0.00000000000E+00 -0.12909063937E+04  0.12909063937E+04  0.00000000000E+00 0. -1.
         25    2    1    2    0    0  0.32986315471E+02 -0.23516290576E+02 -0.41963876377E+03  0.43973503964E+03  0.12501639934E+03 0.  0.
    9000005    1    3    3    0    0  0.27644856113E+02 -0.61101174783E+02 -0.37578545511E+03  0.38172411490E+03  0.10000000000E+01 0.  0.
    9000005    1    3    3    0    0  0.53414593577E+01  0.37584884207E+02 -0.43853308661E+02  0.58010924742E+02  0.10000000000E+01 0.  0.
         -4    1    1    2    0  502 -0.32986315471E+02  0.23516290576E+02 -0.86078096407E+03  0.86173464242E+03  0.12700000000E+01 0. -1.
<mgrwt>
<rscale>  1 0.13141618E+03</rscale>
<asrwt>0</asrwt>
<pdfrwt beam="2">  1       21 0.19860109E+00 0.13141618E+03</pdfrwt>
<pdfrwt beam="1">  1       -4 0.16192744E-02 0.13141618E+03</pdfrwt>
<totfact> 0.81128730E+03</totfact>
</mgrwt>
</event>
<event>
 6    3  0.3813045E-003  0.1287656E+03  0.7818608E-02  0.1229299E+00
         21   -1    0    0  501  502  0.00000000000E+00  0.00000000000E+00  0.15879484352E+02  0.15879484352E+02  0.00000000000E+00 0.  1.
          4   -1    0    0  502    0 -0.00000000000E+00 -0.00000000000E+00 -0.11549952839E+04  0.11549959822E+04  0.12700000000E+01 0.  1.
         25    2    1    2    0    0 -0.91982483365E+01  0.29481732393E+02 -0.11318140596E+04  0.11391152930E+04  0.12500721901E+03 0.  0.
    9000005    1    3    3    0    0  0.32068842523E+02  0.30786425220E+02 -0.15047158067E+03  0.15690414662E+03  0.10000000000E+01 0.  0.
    9000005    1    3    3    0    0 -0.41267090859E+02 -0.13046928264E+01 -0.98134247895E+03  0.98221114634E+03  0.10000000000E+01 0.  0.
          4    1    1    2  501    0  0.91982483365E+01 -0.29481732393E+02 -0.73017399672E+01  0.31760173550E+02  0.12700000000E+01 0.  1.
<mgrwt>
<rscale>  1 0.12876562E+03</rscale>
<asrwt>0</asrwt>
<pdfrwt beam="1">  1       21 0.24429973E-02 0.12876562E+03</pdfrwt>
<pdfrwt beam="2">  1        4 0.17769556E+00 0.12876562E+03</pdfrwt>
<totfact> 0.73633093E+03</totfact>
</mgrwt>
</event>
<event>
 6    3  0.3813045E-003  0.1268851E+03  0.7818608E-02  0.1232152E+00
         21   -1    0    0  501  502  0.00000000000E+00  0.00000000000E+00  0.44394977071E+03  0.44394977071E+03  0.00000000000E+00 0. -1.
          4   -1    0    0  502    0 -0.00000000000E+00 -0.00000000000E+00 -0.18332967621E+02  0.18376904032E+02  0.12700000000E+01 0.  1.
         25    2    1    2    0    0 -0.17060391558E+02  0.13586234889E+02  0.20821848288E+03  0.24383345913E+03  0.12499670572E+03 0.  0.
    9000005    1    3    3    0    0  0.52968925841E+02 -0.79209097768E+01  0.84457436605E+02  0.10001253179E+03  0.10000000000E+01 0.  0.
    9000005    1    3    3    0    0 -0.70029317399E+02  0.21507144666E+02  0.12376104628E+03  0.14382092735E+03  0.10000000000E+01 0.  0.
          4    1    1    2  501    0  0.17060391558E+02 -0.13586234889E+02  0.21739832020E+03  0.21849321560E+03  0.12700000000E+01 0. -1.
<mgrwt>
<rscale>  1 0.12688506E+03</rscale>
<asrwt>0</asrwt>
<pdfrwt beam="1">  1       21 0.68299956E-01 0.12688506E+03</pdfrwt>
<pdfrwt beam="2">  1        4 0.28239764E-02 0.12688506E+03</pdfrwt>
<totfact> 0.47104257E+04</totfact>
</mgrwt>
</event>
<event>
 6    3  0.3813045E-003  0.1294284E+03  0.7818608E-02  0.1228306E+00
          4   -1    0    0  502    0 -0.00000000000E+00  0.00000000000E+00  0.36992358286E+03  0.36992576290E+03  0.12700000000E+01 0.  1.
         21   -1    0    0  501  502  0.00000000000E+00 -0.00000000000E+00 -0.18031860837E+02  0.18031860837E+02  0.00000000000E+00 0.  1.
         25    2    1    2    0    0 -0.29877401045E+02 -0.15280464462E+02  0.28909306667E+03  0.31674361036E+03  0.12500224725E+03 0.  0.
    9000005    1    3    3    0    0 -0.28064540032E+02 -0.82739424989E+01  0.17717636696E+01  0.29329433649E+02  0.10000000000E+01 0.  0.
    9000005    1    3    3    0    0 -0.18128610125E+01 -0.70065219631E+01  0.28732130300E+03  0.28741417671E+03  0.10000000000E+01 0.  0.
          4    1    1    2  501    0  0.29877401045E+02  0.15280464462E+02  0.62798655355E+02  0.71214013380E+02  0.12700000000E+01 0. -1.
<mgrwt>
<rscale>  1 0.12942841E+03</rscale>
<asrwt>0</asrwt>
<pdfrwt beam="2">  1       21 0.27741327E-02 0.12942841E+03</pdfrwt>
<pdfrwt beam="1">  1        4 0.56914923E-01 0.12942841E+03</pdfrwt>
<totfact> 0.85283437E+04</totfact>
</mgrwt>
</event>
<event>
 6    3  0.3813045E-003  0.1299767E+03  0.7818608E-02  0.1227490E+00
          4   -1    0    0  502    0 -0.00000000000E+00  0.00000000000E+00  0.10163661429E+03  0.10164454862E+03  0.12700000000E+01 0. -1.
         21   -1    0    0  501  502  0.00000000000E+00 -0.00000000000E+00 -0.24215020573E+03  0.24215020573E+03  0.00000000000E+00 0.  1.
         25    2    1    2    0    0  0.34485027276E+02  0.88575627886E+01  0.57841217626E+02  0.14226580679E+03  0.12500511910E+03 0.  0.
    9000005    1    3    3    0    0 -0.22395237199E+02 -0.44588826485E+02  0.10580034155E+02  0.51016146651E+02  0.10000000000E+01 0.  0.
    9000005    1    3    3    0    0  0.56880264474E+02  0.53446389273E+02  0.47261183471E+02  0.91249660142E+02  0.10000000000E+01 0.  0.
          4    1    1    2  501    0 -0.34485027276E+02 -0.88575627886E+01 -0.19835480907E+03  0.20152894756E+03  0.12700000000E+01 0.  1.
<mgrwt>
<rscale>  1 0.12997674E+03</rscale>
<asrwt>0</asrwt>
<pdfrwt beam="2">  1       21 0.37253877E-01 0.12997674E+03</pdfrwt>
<pdfrwt beam="1">  1        4 0.15637269E-01 0.12997674E+03</pdfrwt>
<totfact> 0.99727270E+03</totfact>
</mgrwt>
</event>
<event>
 6    3  0.3813045E-003  0.1266197E+03  0.7818608E-02  0.1232559E+00
          4   -1    0    0  502    0 -0.00000000000E+00  0.00000000000E+00  0.75271493401E+03  0.75271600540E+03  0.12700000000E+01 0. -1.
         21   -1    0    0  501  502  0.00000000000E+00 -0.00000000000E+00 -0.80765575943E+01  0.80765575943E+01  0.00000000000E+00 0. -1.
         25    2    1    2    0    0  0.14767077627E+02  0.13769972019E+02  0.70510107877E+03  0.71637984503E+03  0.12499948952E+03 0.  0.
    9000005    1    3    3    0    0 -0.24684322832E+02 -0.32962333993E+02  0.51579728130E+03  0.51743952947E+03  0.10000000000E+01 0.  0.
    9000005    1    3    3    0    0  0.39451400459E+02  0.46732306012E+02  0.18930379747E+03  0.19894031557E+03  0.10000000000E+01 0.  0.
          4    1    1    2  501    0 -0.14767077627E+02 -0.13769972019E+02  0.39537297651E+02  0.44412717960E+02  0.12700000000E+01 0.  1.
<mgrwt>
<rscale>  1 0.12661971E+03</rscale>
<asrwt>0</asrwt>
<pdfrwt beam="2">  1       21 0.12425479E-02 0.12661971E+03</pdfrwt>
<pdfrwt beam="1">  1        4 0.11581001E+00 0.12661971E+03</pdfrwt>
<totfact> 0.64007314E+04</totfact>
</mgrwt>
</event>
<event>
 6    3  0.3813045E-003  0.1351009E+03  0.7818608E-02  0.1220077E+00
         -4   -1    0    0    0  501 -0.00000000000E+00  0.00000000000E+00  0.21573999162E+02  0.21611347479E+02  0.12700000000E+01 0.  1.
         21   -1    0    0  501  502  0.00000000000E+00 -0.00000000000E+00 -0.51901579757E+03  0.51901579757E+03  0.00000000000E+00 0. -1.
         25    2    1    2    0    0 -0.51042023979E+02  0.47361655818E+01 -0.21761985342E+03  0.25614576908E+03  0.12499813974E+03 0.  0.
    9000005    1    3    3    0    0 -0.54494686813E+02 -0.22815395798E+02 -0.29603880526E+02  0.66087842441E+02  0.10000000000E+01 0.  0.
    9000005    1    3    3    0    0  0.34526628340E+01  0.27551561380E+02 -0.18801597289E+03  0.19005792664E+03  0.10000000000E+01 0.  0.
         -4    1    1    2    0  502  0.51042023979E+02 -0.47361655818E+01 -0.27982194499E+03  0.28448137597E+03  0.12700000000E+01 0. -1.
<mgrwt>
<rscale>  1 0.13510090E+03</rscale>
<asrwt>0</asrwt>
<pdfrwt beam="2">  1       21 0.79848584E-01 0.13510090E+03</pdfrwt>
<pdfrwt beam="1">  1       -4 0.33220693E-02 0.13510090E+03</pdfrwt>
<totfact> 0.26042735E+04</totfact>
</mgrwt>
</event>
<event>
 6    3  0.3813045E-003  0.1289355E+03  0.7818608E-02  0.1229044E+00
         21   -1    0    0  501  502  0.00000000000E+00  0.00000000000E+00  0.14281960397E+02  0.14281960397E+02  0.00000000000E+00 0.  1.
         -4   -1    0    0    0  501 -0.00000000000E+00 -0.00000000000E+00 -0.50180295856E+03  0.50180456566E+03  0.12700000000E+01 0.  1.
         25    2    1    2    0    0 -0.13552717914E+02 -0.28556181889E+02 -0.44360514309E+03  0.46196308462E+03  0.12500094753E+03 0.  0.
    9000005    1    3    3    0    0 -0.45005047522E+01 -0.78009555514E+02 -0.28948093876E+03  0.29984322436E+03  0.10000000000E+01 0.  0.
    9000005    1    3    3    0    0 -0.90522131614E+01  0.49453373625E+02 -0.15412420434E+03  0.16211986025E+03  0.10000000000E+01 0.  0.
         -4    1    1    2    0  502  0.13552717914E+02  0.28556181889E+02 -0.43915855070E+02  0.54123441441E+02  0.12700000000E+01 0. -1.
<mgrwt>
<rscale>  1 0.12893552E+03</rscale>
<asrwt>0</asrwt>
<pdfrwt beam="1">  1       21 0.21972247E-02 0.12893552E+03</pdfrwt>
<pdfrwt beam="2">  1       -4 0.77204922E-01 0.12893552E+03</pdfrwt>
<totfact> 0.64956885E+04</totfact>
</mgrwt>
</event>
<event>
 6    3  0.3813045E-003  0.1281988E+03  0.7818608E-02  0.1230153E+00
         21   -1    0    0  501  502  0.00000000000E+00  0.00000000000E+00  0.21766380619E+02  0.21766380619E+02  0.00000000000E+00 0.  1.
          4   -1    0    0  502    0 -0.00000000000E+00 -0.00000000000E+00 -0.36575721636E+03  0.36575942123E+03  0.12700000000E+01 0. -1.
         25    2    1    2    0    0 -0.25885058051E+02  0.11827228366E+02 -0.33328905189E+03  0.35709455740E+03  0.12500004501E+03 0.  0.
    9000005    1    3    3    0    0  0.38558421804E+02 -0.29041764842E+02 -0.90228566463E+02  0.10233459925E+03  0.10000000000E+01 0.  0.
    9000005    1    3    3    0    0 -0.64443479854E+02  0.40868993208E+02 -0.24306048543E+03  0.25475995815E+03  0.10000000000E+01 0.  0.
          4    1    1    2  501    0  0.25885058051E+02 -0.11827228366E+02 -0.10701783847E+02  0.30431244447E+02  0.12700000000E+01 0.  1.
<mgrwt>
<rscale>  1 0.12819879E+03</rscale>
<asrwt>0</asrwt>
<pdfrwt beam="1">  1       21 0.33486743E-02 0.12819879E+03</pdfrwt>
<pdfrwt beam="2">  1        4 0.56273354E-01 0.12819879E+03</pdfrwt>
<totfact> 0.64023417E+04</totfact>
</mgrwt>
</event>
<event>
 6    3  0.3813045E-003  0.1267230E+03  0.7818608E-02  0.1232401E+00
         21   -1    0    0  501  502  0.00000000000E+00  0.00000000000E+00  0.54480101834E+03  0.54480101834E+03  0.00000000000E+00 0.  1.
         -4   -1    0    0    0  501 -0.00000000000E+00 -0.00000000000E+00 -0.99559038922E+01  0.10036579214E+02  0.12700000000E+01 0.  1.
         25    2    1    2    0    0  0.20811756504E+02  0.56097681337E+00  0.45618669507E+03  0.47346067366E+03  0.12500105935E+03 0.  0.
    9000005    1    3    3    0    0  0.23854294865E+02 -0.11145001321E+02  0.45998883506E+03  0.46074284239E+03  0.10000000000E+01 0.  0.
    9000005    1    3    3    0    0 -0.30425383615E+01  0.11705978134E+02 -0.38021399830E+01  0.12717831270E+02  0.10000000000E+01 0.  0.
         -4    1    1    2    0  502 -0.20811756504E+02 -0.56097681337E+00  0.78658419377E+02  0.81376923895E+02  0.12700000000E+01 0. -1.
<mgrwt>
<rscale>  1 0.12672296E+03</rscale>
<asrwt>0</asrwt>
<pdfrwt beam="1">  1       21 0.83815518E-01 0.12672296E+03</pdfrwt>
<pdfrwt beam="2">  1       -4 0.15379976E-02 0.12672296E+03</pdfrwt>
<totfact> 0.76417511E+04</totfact>
</mgrwt>
</event>
<event>
 6    3  0.3813045E-003  0.1277174E+03  0.7818608E-02  0.1230883E+00
         -4   -1    0    0    0  501 -0.00000000000E+00  0.00000000000E+00  0.52717253449E+03  0.52717406426E+03  0.12700000000E+01 0. -1.
         21   -1    0    0  501  502  0.00000000000E+00 -0.00000000000E+00 -0.11480784362E+02  0.11480784362E+02  0.00000000000E+00 0. -1.
         25    2    1    2    0    0 -0.20659936740E+02  0.16111797959E+02  0.45390009539E+03  0.47152628156E+03  0.12500125834E+03 0.  0.
    9000005    1    3    3    0    0  0.47376709407E+02 -0.14437110560E+02  0.23813851076E+03  0.24323637282E+03  0.10000000000E+01 0.  0.
    9000005    1    3    3    0    0 -0.68036646147E+02  0.30548908519E+02  0.21576158464E+03  0.22828990875E+03  0.10000000000E+01 0.  0.
         -4    1    1    2    0  502  0.20659936740E+02 -0.16111797959E+02  0.61791654739E+02  0.67128567056E+02  0.12700000000E+01 0.  1.
<mgrwt>
<rscale>  1 0.12771741E+03</rscale>
<asrwt>0</asrwt>
<pdfrwt beam="2">  1       21 0.17662749E-02 0.12771741E+03</pdfrwt>
<pdfrwt beam="1">  1       -4 0.81108969E-01 0.12771741E+03</pdfrwt>
<totfact> 0.82738123E+04</totfact>
</mgrwt>
</event>
<event>
 6    3  0.3813045E-003  0.1274910E+03  0.7818608E-02  0.1231227E+00
          4   -1    0    0  502    0 -0.00000000000E+00  0.00000000000E+00  0.42442473402E+03  0.42442663412E+03  0.12700000000E+01 0. -1.
         21   -1    0    0  501  502  0.00000000000E+00 -0.00000000000E+00 -0.15059845886E+02  0.15059845886E+02  0.00000000000E+00 0. -1.
         25    2    1    2    0    0 -0.12517279783E+02  0.21789294821E+02  0.37999963597E+03  0.40081625119E+03  0.12498995247E+03 0.  0.
    9000005    1    3    3    0    0  0.18177754556E+02  0.68893936819E+02  0.21281364873E+03  0.22442694663E+03  0.10000000000E+01 0.  0.
    9000005    1    3    3    0    0 -0.30695034339E+02 -0.47104641998E+02  0.16718598724E+03  0.17638930455E+03  0.10000000000E+01 0.  0.
          4    1    1    2  501    0  0.12517279783E+02 -0.21789294821E+02  0.29365252169E+02  0.38670228819E+02  0.12700000000E+01 0.  1.
<mgrwt>
<rscale>  1 0.12749096E+03</rscale>
<asrwt>0</asrwt>
<pdfrwt beam="2">  1       21 0.23168997E-02 0.12749096E+03</pdfrwt>
<pdfrwt beam="1">  1        4 0.65300369E-01 0.12749096E+03</pdfrwt>
<totfact> 0.85452452E+04</totfact>
</mgrwt>
</event>
<event>
 6    3  0.3813045E-003  0.1384129E+03  0.7818608E-02  0.1215481E+00
         21   -1    0    0  501  502  0.00000000000E+00  0.00000000000E+00  0.36853644292E+02  0.36853644292E+02  0.00000000000E+00 0. -1.
         -4   -1    0    0    0  501 -0.00000000000E+00 -0.00000000000E+00 -0.28093278201E+03  0.28093565261E+03  0.12700000000E+01 0.  1.
         25    2    1    2    0    0  0.43041147371E+02  0.40995549362E+02 -0.20231813202E+03  0.24513415303E+03  0.12499980401E+03 0.  0.
    9000005    1    3    3    0    0  0.78729421139E+02  0.41546792870E+02 -0.18530705854E+03  0.20558249851E+03  0.10000000000E+01 0.  0.
    9000005    1    3    3    0    0 -0.35688273769E+02 -0.55124350804E+00 -0.17011073487E+02  0.39551654519E+02  0.10000000000E+01 0.  0.
         -4    1    1    2    0  502 -0.43041147371E+02 -0.40995549362E+02 -0.41761005694E+02  0.72655143872E+02  0.12700000000E+01 0. -1.
<mgrwt>
<rscale>  1 0.13841288E+03</rscale>
<asrwt>0</asrwt>
<pdfrwt beam="1">  1       21 0.56697913E-02 0.13841288E+03</pdfrwt>
<pdfrwt beam="2">  1       -4 0.43222333E-01 0.13841288E+03</pdfrwt>
<totfact> 0.45886407E+04</totfact>
</mgrwt>
</event>
<event>
 6    3  0.3813045E-003  0.1269775E+03  0.7818608E-02  0.1232011E+00
         21   -1    0    0  501  502  0.00000000000E+00  0.00000000000E+00  0.11257318826E+03  0.11257318826E+03  0.00000000000E+00 0. -1.
          4   -1    0    0  502    0 -0.00000000000E+00 -0.00000000000E+00 -0.49748933594E+02  0.49765141352E+02  0.12700000000E+01 0. -1.
         25    2    1    2    0    0  0.21892066405E+01 -0.22202476400E+02  0.57368552861E+02  0.13933571745E+03  0.12500219485E+03 0.  0.
    9000005    1    3    3    0    0  0.10699826172E+02 -0.72970774915E+02  0.22352836722E+02  0.77070549378E+02  0.10000000000E+01 0.  0.
    9000005    1    3    3    0    0 -0.85106195319E+01  0.50768298516E+02  0.35015716138E+02  0.62265168077E+02  0.10000000000E+01 0.  0.
          4    1    1    2  501    0 -0.21892066405E+01  0.22202476400E+02  0.54557018100E+01  0.23002612161E+02  0.12700000000E+01 0.  1.
<mgrwt>
<rscale>  1 0.12697752E+03</rscale>
<asrwt>0</asrwt>
<pdfrwt beam="1">  1       21 0.17318952E-01 0.12697752E+03</pdfrwt>
<pdfrwt beam="2">  1        4 0.76554799E-02 0.12697752E+03</pdfrwt>
<totfact> 0.14281626E+05</totfact>
</mgrwt>
</event>
<event>
 6    3  0.3813045E-003  0.1332606E+03  0.7818608E-02  0.1222696E+00
          4   -1    0    0  502    0 -0.00000000000E+00  0.00000000000E+00  0.58022866229E+03  0.58023005217E+03  0.12700000000E+01 0. -1.
         21   -1    0    0  501  502  0.00000000000E+00 -0.00000000000E+00 -0.20358037049E+03  0.20358037049E+03  0.00000000000E+00 0.  1.
         25    2    1    2    0    0  0.40299312958E+02 -0.22546247367E+02  0.56981843100E+03  0.58519349621E+03  0.12500406315E+03 0.  0.
    9000005    1    3    3    0    0 -0.51145834097E+01  0.43864054853E+02  0.31201188296E+03  0.31512319715E+03  0.10000000000E+01 0.  0.
    9000005    1    3    3    0    0  0.45413896367E+02 -0.66410302220E+02  0.25780654804E+03  0.27007029906E+03  0.10000000000E+01 0.  0.
          4    1    1    2  501    0 -0.40299312958E+02  0.22546247367E+02 -0.19317013920E+03  0.19861692645E+03  0.12700000000E+01 0.  1.
<mgrwt>
<rscale>  1 0.13326059E+03</rscale>
<asrwt>0</asrwt>
<pdfrwt beam="2">  1       21 0.31320057E-01 0.13326059E+03</pdfrwt>
<pdfrwt beam="1">  1        4 0.89266359E-01 0.13326059E+03</pdfrwt>
<totfact> 0.45684204E+02</totfact>
</mgrwt>
</event>
<event>
 6    3  0.3813045E-003  0.1285876E+03  0.7818608E-02  0.1229567E+00
         21   -1    0    0  501  502  0.00000000000E+00  0.00000000000E+00  0.43796755719E+02  0.43796755719E+02  0.00000000000E+00 0. -1.
         -4   -1    0    0    0  501 -0.00000000000E+00 -0.00000000000E+00 -0.39463358066E+03  0.39463562419E+03  0.12700000000E+01 0.  1.
         25    2    1    2    0    0  0.26001408256E+02 -0.15291899047E+02 -0.37709718101E+03  0.39841819981E+03  0.12499945044E+03 0.  0.
    9000005    1    3    3    0    0 -0.43606589990E+02  0.22808037744E+02 -0.14639535487E+03  0.15444850665E+03  0.10000000000E+01 0.  0.
    9000005    1    3    3    0    0  0.69607998246E+02 -0.38099936791E+02 -0.23070182613E+03  0.24396969317E+03  0.10000000000E+01 0.  0.
         -4    1    1    2    0  502 -0.26001408256E+02  0.15291899047E+02  0.26260356072E+02  0.40014180096E+02  0.12700000000E+01 0. -1.
<mgrwt>
<rscale>  1 0.12858763E+03</rscale>
<asrwt>0</asrwt>
<pdfrwt beam="1">  1       21 0.67379627E-02 0.12858763E+03</pdfrwt>
<pdfrwt beam="2">  1       -4 0.60714430E-01 0.12858763E+03</pdfrwt>
<totfact> 0.16935310E+04</totfact>
</mgrwt>
</event>
<event>
 6    3  0.3813045E-003  0.1282260E+03  0.7818608E-02  0.1230112E+00
         -4   -1    0    0    0  501 -0.00000000000E+00  0.00000000000E+00  0.32943508197E+03  0.32943752994E+03  0.12700000000E+01 0. -1.
         21   -1    0    0  501  502  0.00000000000E+00 -0.00000000000E+00 -0.22792494685E+02  0.22792494685E+02  0.00000000000E+00 0. -1.
         25    2    1    2    0    0  0.28706022110E+02 -0.11338412049E+01  0.29413816917E+03  0.32087249485E+03  0.12496629180E+03 0.  0.
    9000005    1    3    3    0    0  0.16052000498E+00 -0.44141721536E+02  0.24714888009E+03  0.25106191722E+03  0.10000000000E+01 0.  0.
    9000005    1    3    3    0    0  0.28545502105E+02  0.43007880331E+02  0.46989289081E+02  0.69810577632E+02  0.10000000000E+01 0.  0.
         -4    1    1    2    0  502 -0.28706022110E+02  0.11338412049E+01  0.12504418113E+02  0.31357529776E+02  0.12700000000E+01 0.  1.
<mgrwt>
<rscale>  1 0.12822595E+03</rscale>
<asrwt>0</asrwt>
<pdfrwt beam="2">  1       21 0.35065379E-02 0.12822595E+03</pdfrwt>
<pdfrwt beam="1">  1       -4 0.50685227E-01 0.12822595E+03</pdfrwt>
<totfact> 0.73581835E+04</totfact>
</mgrwt>
</event>
<event>
 6    3  0.3813045E-003  0.1384979E+03  0.7818608E-02  0.1215365E+00
         21   -1    0    0  501  502  0.00000000000E+00  0.00000000000E+00  0.15195917688E+04  0.15195917688E+04  0.00000000000E+00 0. -1.
         -4   -1    0    0    0  501 -0.00000000000E+00 -0.00000000000E+00 -0.13239181611E+02  0.13299956005E+02  0.12700000000E+01 0.  1.
         25    2    1    2    0    0 -0.58844984208E+02 -0.96949808175E+01  0.37157186046E+03  0.39654422713E+03  0.12499980706E+03 0.  0.
    9000005    1    3    3    0    0 -0.86640755256E+02  0.38480819258E+01  0.15366301526E+03  0.17645041928E+03  0.10000000000E+01 0.  0.
    9000005    1    3    3    0    0  0.27795771048E+02 -0.13543062743E+02  0.21790884520E+03  0.22009380784E+03  0.10000000000E+01 0.  0.
         -4    1    1    2    0  502  0.58844984208E+02  0.96949808175E+01  0.11347807268E+04  0.11363474977E+04  0.12700000000E+01 0. -1.
<mgrwt>
<rscale>  1 0.13849793E+03</rscale>
<asrwt>0</asrwt>
<pdfrwt beam="1">  1       21 0.23378321E+00 0.13849793E+03</pdfrwt>
<pdfrwt beam="2">  1       -4 0.20415141E-02 0.13849793E+03</pdfrwt>
<totfact> 0.34758314E+03</totfact>
</mgrwt>
</event>
<event>
 6    3  0.3813045E-003  0.1272623E+03  0.7818608E-02  0.1231575E+00
         21   -1    0    0  501  502  0.00000000000E+00  0.00000000000E+00  0.64876163316E+02  0.64876163316E+02  0.00000000000E+00 0.  1.
          4   -1    0    0  502    0 -0.00000000000E+00 -0.00000000000E+00 -0.13560172367E+03  0.13560767074E+03  0.12700000000E+01 0. -1.
         25    2    1    2    0    0  0.44280615754E+01  0.23479517777E+02 -0.10059029251E+03  0.16221621575E+03  0.12499919288E+03 0.  0.
    9000005    1    3    3    0    0 -0.37232682859E+02 -0.31739941922E+02 -0.72679447659E+02  0.87618483770E+02  0.10000000000E+01 0.  0.
    9000005    1    3    3    0    0  0.41660744435E+02  0.55219459699E+02 -0.27910844849E+02  0.74597731980E+02  0.10000000000E+01 0.  0.
          4    1    1    2  501    0 -0.44280615754E+01 -0.23479517777E+02  0.29864732150E+02  0.38267618305E+02  0.12700000000E+01 0.  1.
<mgrwt>
<rscale>  1 0.12726230E+03</rscale>
<asrwt>0</asrwt>
<pdfrwt beam="1">  1       21 0.99809484E-02 0.12726230E+03</pdfrwt>
<pdfrwt beam="2">  1        4 0.20863217E-01 0.12726230E+03</pdfrwt>
<totfact> 0.68107667E+04</totfact>
</mgrwt>
</event>
<event>
 6    3  0.3813045E-003  0.1282002E+03  0.7818608E-02  0.1230151E+00
         21   -1    0    0  501  502  0.00000000000E+00  0.00000000000E+00  0.37190538869E+02  0.37190538869E+02  0.00000000000E+00 0. -1.
         -4   -1    0    0    0  501 -0.00000000000E+00 -0.00000000000E+00 -0.24442902412E+03  0.24443232342E+03  0.12700000000E+01 0.  1.
         25    2    1    2    0    0  0.14425121854E+02  0.24533914282E+02 -0.21654832458E+03  0.25165149097E+03  0.12500119576E+03 0.  0.
    9000005    1    3    3    0    0  0.55320585663E+02  0.46949470944E+02 -0.17395914938E+03  0.18848714989E+03  0.10000000000E+01 0.  0.
    9000005    1    3    3    0    0 -0.40895463810E+02 -0.22415556662E+02 -0.42589175196E+02  0.63164341084E+02  0.10000000000E+01 0.  0.
         -4    1    1    2    0  502 -0.14425121854E+02 -0.24533914282E+02  0.93098393238E+01  0.29971371319E+02  0.12700000000E+01 0. -1.
<mgrwt>
<rscale>  1 0.12820022E+03</rscale>
<asrwt>0</asrwt>
<pdfrwt beam="1">  1       21 0.57216212E-02 0.12820022E+03</pdfrwt>
<pdfrwt beam="2">  1       -4 0.37606388E-01 0.12820022E+03</pdfrwt>
<totfact> 0.58856677E+04</totfact>
</mgrwt>
</event>
<event>
 6    3  0.3813045E-003  0.1361707E+03  0.7818608E-02  0.1218576E+00
         -4   -1    0    0    0  501 -0.00000000000E+00  0.00000000000E+00  0.51942341804E+03  0.51942497063E+03  0.12700000000E+01 0. -1.
         21   -1    0    0  501  502  0.00000000000E+00 -0.00000000000E+00 -0.21590252867E+02  0.21590252867E+02  0.00000000000E+00 0.  1.
         25    2    1    2    0    0  0.15053185657E+02 -0.51872619319E+02  0.44531161343E+03  0.46566608063E+03  0.12500039422E+03 0.  0.
    9000005    1    3    3    0    0 -0.12335025841E+01 -0.57612746980E+02  0.73264841436E+02  0.93217418619E+02  0.10000000000E+01 0.  0.
    9000005    1    3    3    0    0  0.16286688241E+02  0.57401276611E+01  0.37204677200E+03  0.37244866201E+03  0.10000000000E+01 0.  0.
         -4    1    1    2    0  502 -0.15053185657E+02  0.51872619319E+02  0.52521551745E+02  0.75349142869E+02  0.12700000000E+01 0.  1.
<mgrwt>
<rscale>  1 0.13617072E+03</rscale>
<asrwt>0</asrwt>
<pdfrwt beam="2">  1       21 0.33215778E-02 0.13617072E+03</pdfrwt>
<pdfrwt beam="1">  1       -4 0.79914278E-01 0.13617072E+03</pdfrwt>
<totfact> 0.30861548E+04</totfact>
</mgrwt>
</event>
<event>
 6    3  0.3813045E-003  0.1366919E+03  0.7818608E-02  0.1217851E+00
         21   -1    0    0  501  502  0.00000000000E+00  0.00000000000E+00  0.29611901996E+02  0.29611901996E+02  0.00000000000E+00 0.  1.
         -4   -1    0    0    0  501 -0.00000000000E+00 -0.00000000000E+00 -0.54877302230E+03  0.54877449185E+03  0.12700000000E+01 0.  1.
         25    2    1    2    0    0 -0.55263968366E+02  0.24119715712E+01 -0.50226469552E+03  0.52053290754E+03  0.12499903867E+03 0.  0.
    9000005    1    3    3    0    0  0.16908932768E+02  0.18970382508E+02 -0.19306443915E+02  0.31930020303E+02  0.10000000000E+01 0.  0.
    9000005    1    3    3    0    0 -0.72172901134E+02 -0.16558410937E+02 -0.48295825160E+03  0.48860288724E+03  0.10000000000E+01 0.  0.
         -4    1    1    2    0  502  0.55263968366E+02 -0.24119715712E+01 -0.16896424786E+02  0.57853486300E+02  0.12700000000E+01 0. -1.
<mgrwt>
<rscale>  1 0.13669193E+03</rscale>
<asrwt>0</asrwt>
<pdfrwt beam="1">  1       21 0.45556775E-02 0.13669193E+03</pdfrwt>
<pdfrwt beam="2">  1       -4 0.84428822E-01 0.13669193E+03</pdfrwt>
<totfact> 0.16166343E+04</totfact>
</mgrwt>
</event>
<event>
 6    3  0.3813045E-003  0.1297047E+03  0.7818608E-02  0.1227895E+00
         21   -1    0    0  501  502  0.00000000000E+00  0.00000000000E+00  0.13942600170E+02  0.13942600170E+02  0.00000000000E+00 0. -1.
         -4   -1    0    0    0  501 -0.00000000000E+00 -0.00000000000E+00 -0.49691473438E+03  0.49691635729E+03  0.12700000000E+01 0. -1.
         25    2    1    2    0    0 -0.33287919670E+02 -0.94122498210E+01 -0.34399277269E+03  0.36763342946E+03  0.12500653884E+03 0.  0.
    9000005    1    3    3    0    0 -0.56834901216E+02 -0.35971918129E+02 -0.31408404269E+03  0.32120705279E+03  0.10000000000E+01 0.  0.
    9000005    1    3    3    0    0  0.23546981545E+02  0.26559668308E+02 -0.29908730001E+02  0.46426376671E+02  0.10000000000E+01 0.  0.
         -4    1    1    2    0  502  0.33287919670E+02  0.94122498210E+01 -0.13897936152E+03  0.14322552800E+03  0.12700000000E+01 0.  1.
<mgrwt>
<rscale>  1 0.12970471E+03</rscale>
<asrwt>0</asrwt>
<pdfrwt beam="1">  1       21 0.21450155E-02 0.12970471E+03</pdfrwt>
<pdfrwt beam="2">  1       -4 0.76452992E-01 0.12970471E+03</pdfrwt>
<totfact> 0.69058535E+04</totfact>
</mgrwt>
</event>
<event>
 6    3  0.3813045E-003  0.1283501E+03  0.7818608E-02  0.1229925E+00
         21   -1    0    0  501  502  0.00000000000E+00  0.00000000000E+00  0.11438097859E+02  0.11438097859E+02  0.00000000000E+00 0.  1.
          4   -1    0    0  502    0 -0.00000000000E+00 -0.00000000000E+00 -0.61733851620E+03  0.61733982253E+03  0.12700000000E+01 0. -1.
         25    2    1    2    0    0 -0.42032174394E+01 -0.28823504922E+02 -0.55906258346E+03  0.57360675809E+03  0.12500111693E+03 0.  0.
    9000005    1    3    3    0    0 -0.43367042713E+02 -0.14428113318E+02 -0.49525764475E+03  0.49736305204E+03  0.10000000000E+01 0.  0.
    9000005    1    3    3    0    0  0.39163825273E+02 -0.14395391604E+02 -0.63804938705E+02  0.76243706052E+02  0.10000000000E+01 0.  0.
          4    1    1    2  501    0  0.42032174394E+01  0.28823504922E+02 -0.46837834878E+02  0.55171162294E+02  0.12700000000E+01 0.  1.
<mgrwt>
<rscale>  1 0.12835007E+03</rscale>
<asrwt>0</asrwt>
<pdfrwt beam="1">  1       21 0.17597072E-02 0.12835007E+03</pdfrwt>
<pdfrwt beam="2">  1        4 0.94980687E-01 0.12835007E+03</pdfrwt>
<totfact> 0.58424621E+04</totfact>
</mgrwt>
</event>
<event>
 6    3  0.3813045E-003  0.1271017E+03  0.7818608E-02  0.1231821E+00
         21   -1    0    0  501  502  0.00000000000E+00  0.00000000000E+00  0.51007607733E+03  0.51007607733E+03  0.00000000000E+00 0. -1.
         -4   -1    0    0    0  501 -0.00000000000E+00 -0.00000000000E+00 -0.13236683111E+02  0.13297468924E+02  0.12700000000E+01 0.  1.
         25    2    1    2    0    0  0.22367099085E+02  0.54481334689E+01  0.30892717103E+03  0.33405216393E+03  0.12499952779E+03 0.  0.
    9000005    1    3    3    0    0 -0.34269986819E+02 -0.17808973469E+02  0.23455230044E+03  0.23771279556E+03  0.10000000000E+01 0.  0.
    9000005    1    3    3    0    0  0.56637085904E+02  0.23257106938E+02  0.74374870592E+02  0.96339368373E+02  0.10000000000E+01 0.  0.
         -4    1    1    2    0  502 -0.22367099085E+02 -0.54481334689E+01  0.18791222319E+03  0.18932138232E+03  0.12700000000E+01 0. -1.
<mgrwt>
<rscale>  1 0.12710174E+03</rscale>
<asrwt>0</asrwt>
<pdfrwt beam="1">  1       21 0.78473228E-01 0.12710174E+03</pdfrwt>
<pdfrwt beam="2">  1       -4 0.20412106E-02 0.12710174E+03</pdfrwt>
<totfact> 0.57424843E+04</totfact>
</mgrwt>
</event>
<event>
 6    3  0.3813045E-003  0.1280705E+03  0.7818608E-02  0.1230347E+00
          4   -1    0    0  502    0 -0.00000000000E+00  0.00000000000E+00  0.23510451452E+04  0.23510454882E+04  0.12700000000E+01 0. -1.
         21   -1    0    0  501  502  0.00000000000E+00 -0.00000000000E+00 -0.35733021564E+01  0.35733021564E+01  0.00000000000E+00 0. -1.
         25    2    1    2    0    0 -0.27675768320E+02 -0.33225135934E+01  0.22374965102E+04  0.22411587798E+04  0.12500022482E+03 0.  0.
    9000005    1    3    3    0    0 -0.25743568738E+01  0.10058352731E+02  0.13891306818E+02  0.17371418425E+02  0.10000000000E+01 0.  0.
    9000005    1    3    3    0    0 -0.25101411446E+02 -0.13380866324E+02  0.22236052033E+04  0.22237873614E+04  0.10000000000E+01 0.  0.
          4    1    1    2  501    0  0.27675768320E+02  0.33225135934E+01  0.10997533289E+03  0.11346001055E+03  0.12700000000E+01 0.  1.
<mgrwt>
<rscale>  1 0.12807046E+03</rscale>
<asrwt>0</asrwt>
<pdfrwt beam="2">  1       21 0.54974067E-03 0.12807046E+03</pdfrwt>
<pdfrwt beam="1">  1        4 0.36171540E+00 0.12807046E+03</pdfrwt>
<totfact> 0.63187761E+03</totfact>
</mgrwt>
</event>
<event>
 6    3  0.3813045E-003  0.1272293E+03  0.7818608E-02  0.1231626E+00
         -4   -1    0    0    0  501 -0.00000000000E+00  0.00000000000E+00  0.13520523701E+03  0.13521120151E+03  0.12700000000E+01 0.  1.
         21   -1    0    0  501  502  0.00000000000E+00 -0.00000000000E+00 -0.44957823192E+02  0.44957823192E+02  0.00000000000E+00 0.  1.
         25    2    1    2    0    0 -0.10783361453E+02 -0.21113570654E+02  0.90986563570E+02  0.15641564616E+03  0.12500094344E+03 0.  0.
    9000005    1    3    3    0    0 -0.35611154057E+02 -0.20483209689E+02 -0.17830734612E+02  0.44795661277E+02  0.10000000000E+01 0.  0.
    9000005    1    3    3    0    0  0.24827792604E+02 -0.63036096565E+00  0.10881729818E+03  0.11161998488E+03  0.10000000000E+01 0.  0.
         -4    1    1    2    0  502  0.10783361453E+02  0.21113570654E+02 -0.73914975634E+00  0.23753378546E+02  0.12700000000E+01 0. -1.
<mgrwt>
<rscale>  1 0.12722932E+03</rscale>
<asrwt>0</asrwt>
<pdfrwt beam="2">  1       21 0.69165882E-02 0.12722932E+03</pdfrwt>
<pdfrwt beam="1">  1       -4 0.20802644E-01 0.12722932E+03</pdfrwt>
<totfact> 0.12902960E+05</totfact>
</mgrwt>
</event>
<event>
 6    3  0.3813045E-003  0.1309383E+03  0.7818608E-02  0.1226070E+00
         21   -1    0    0  501  502  0.00000000000E+00  0.00000000000E+00  0.11087878255E+03  0.11087878255E+03  0.00000000000E+00 0. -1.
         -4   -1    0    0    0  501 -0.00000000000E+00 -0.00000000000E+00 -0.13330208239E+03  0.13330813204E+03  0.12700000000E+01 0. -1.
         25    2    1    2    0    0  0.42380890978E+01 -0.38749231509E+02 -0.95016291548E+02  0.16178048470E+03  0.12500146091E+03 0.  0.
    9000005    1    3    3    0    0 -0.47812411690E+02 -0.57855102778E+02 -0.48187547980E+02  0.89197978729E+02  0.10000000000E+01 0.  0.
    9000005    1    3    3    0    0  0.52050500788E+02  0.19105871269E+02 -0.46828743568E+02  0.72582505974E+02  0.10000000000E+01 0.  0.
         -4    1    1    2    0  502 -0.42380890978E+01  0.38749231509E+02  0.72592991709E+02  0.82406429889E+02  0.12700000000E+01 0.  1.
<mgrwt>
<rscale>  1 0.13093827E+03</rscale>
<asrwt>0</asrwt>
<pdfrwt beam="1">  1       21 0.17058274E-01 0.13093827E+03</pdfrwt>
<pdfrwt beam="2">  1       -4 0.20509037E-01 0.13093827E+03</pdfrwt>
<totfact> 0.27096723E+04</totfact>
</mgrwt>
</event>
<event>
 6    3  0.3813045E-003  0.1375571E+03  0.7818608E-02  0.1216654E+00
         21   -1    0    0  501  502  0.00000000000E+00  0.00000000000E+00  0.19465049825E+03  0.19465049825E+03  0.00000000000E+00 0.  1.
          4   -1    0    0  502    0 -0.00000000000E+00 -0.00000000000E+00 -0.15676562254E+03  0.15677076676E+03  0.12700000000E+01 0. -1.
         25    2    1    2    0    0  0.35168383429E+02  0.45383995080E+02 -0.12054625224E+03  0.18290254970E+03  0.12500168621E+03 0.  0.
    9000005    1    3    3    0    0 -0.42278231116E+02 -0.43750087712E+01 -0.21367906867E+02  0.47583368648E+02  0.10000000000E+01 0.  0.
    9000005    1    3    3    0    0  0.77446614545E+02  0.49759003851E+02 -0.99178345377E+02  0.13531918105E+03  0.10000000000E+01 0.  0.
          4    1    1    2  501    0 -0.35168383429E+02 -0.45383995080E+02  0.15843112796E+03  0.16851871531E+03  0.12700000000E+01 0.  1.
<mgrwt>
<rscale>  1 0.13755706E+03</rscale>
<asrwt>0</asrwt>
<pdfrwt beam="1">  1       21 0.29946231E-01 0.13755706E+03</pdfrwt>
<pdfrwt beam="2">  1        4 0.24118502E-01 0.13755706E+03</pdfrwt>
<totfact> 0.70562591E+03</totfact>
</mgrwt>
</event>
<event>
 6    3  0.3813045E-003  0.1321423E+03  0.7818608E-02  0.1224311E+00
          4   -1    0    0  502    0 -0.00000000000E+00  0.00000000000E+00  0.13800236897E+03  0.13800821259E+03  0.12700000000E+01 0. -1.
         21   -1    0    0  501  502  0.00000000000E+00 -0.00000000000E+00 -0.63569951663E+02  0.63569951663E+02  0.00000000000E+00 0.  1.
         25    2    1    2    0    0  0.18090837703E+02  0.38861473607E+02  0.85370498272E+02  0.15732042985E+03  0.12499641248E+03 0.  0.
    9000005    1    3    3    0    0  0.47937133382E+02  0.72489333556E+02  0.51558190163E+02  0.10105404103E+03  0.10000000000E+01 0.  0.
    9000005    1    3    3    0    0 -0.29846295679E+02 -0.33627859949E+02  0.33812308109E+02  0.56266388814E+02  0.10000000000E+01 0.  0.
          4    1    1    2  501    0 -0.18090837703E+02 -0.38861473607E+02 -0.10938080961E+02  0.44257734406E+02  0.12700000000E+01 0.  1.
<mgrwt>
<rscale>  1 0.13214233E+03</rscale>
<asrwt>0</asrwt>
<pdfrwt beam="2">  1       21 0.97799926E-02 0.13214233E+03</pdfrwt>
<pdfrwt beam="1">  1        4 0.21232559E-01 0.13214233E+03</pdfrwt>
<totfact> 0.68717844E+04</totfact>
</mgrwt>
</event>
<event>
 6    3  0.3813045E-003  0.1405162E+03  0.7818608E-02  0.1212636E+00
         21   -1    0    0  501  502  0.00000000000E+00  0.00000000000E+00  0.17760592611E+03  0.17760592611E+03  0.00000000000E+00 0. -1.
         -4   -1    0    0    0  501 -0.00000000000E+00 -0.00000000000E+00 -0.20072889473E+03  0.20073291230E+03  0.12700000000E+01 0.  1.
         25    2    1    2    0    0 -0.35705733079E+01 -0.64019932763E+02 -0.16852553311E+03  0.21942118853E+03  0.12503400290E+03 0.  0.
    9000005    1    3    3    0    0 -0.25595808370E+02  0.27868385929E+02 -0.86000885471E+02  0.93962464007E+02  0.10000000000E+01 0.  0.
    9000005    1    3    3    0    0  0.22025235062E+02 -0.91888318692E+02 -0.82524647636E+02  0.12545872452E+03  0.10000000000E+01 0.  0.
         -4    1    1    2    0  502  0.35705733079E+01  0.64019932763E+02  0.14540256449E+03  0.15891764988E+03  0.12700000000E+01 0. -1.
<mgrwt>
<rscale>  1 0.14051620E+03</rscale>
<asrwt>0</asrwt>
<pdfrwt beam="1">  1       21 0.27323989E-01 0.14051620E+03</pdfrwt>
<pdfrwt beam="2">  1       -4 0.30882027E-01 0.14051620E+03</pdfrwt>
<totfact> 0.53108319E+03</totfact>
</mgrwt>
</event>
<event>
 6    3  0.3813045E-003  0.1278877E+03  0.7818608E-02  0.1230624E+00
         -4   -1    0    0    0  501 -0.00000000000E+00  0.00000000000E+00  0.52078738756E+02  0.52094221660E+02  0.12700000000E+01 0.  1.
         21   -1    0    0  501  502  0.00000000000E+00 -0.00000000000E+00 -0.11540087899E+03  0.11540087899E+03  0.00000000000E+00 0.  1.
         25    2    1    2    0    0  0.26922944703E+02 -0.22779196248E+01 -0.54813433625E+02  0.13913941590E+03  0.12500092272E+03 0.  0.
    9000005    1    3    3    0    0  0.23964272573E+02  0.43732463592E+02 -0.73959519863E+02  0.89206643868E+02  0.10000000000E+01 0.  0.
    9000005    1    3    3    0    0  0.29586721299E+01 -0.46010383217E+02  0.19146086239E+02  0.49932772032E+02  0.10000000000E+01 0.  0.
         -4    1    1    2    0  502 -0.26922944703E+02  0.22779196248E+01 -0.85087066054E+01  0.28355684746E+02  0.12700000000E+01 0. -1.
<mgrwt>
<rscale>  1 0.12788770E+03</rscale>
<asrwt>0</asrwt>
<pdfrwt beam="2">  1       21 0.17753981E-01 0.12788770E+03</pdfrwt>
<pdfrwt beam="1">  1       -4 0.80138422E-02 0.12788770E+03</pdfrwt>
<totfact> 0.12668801E+05</totfact>
</mgrwt>
</event>
<event>
 6    3  0.3813045E-003  0.1272905E+03  0.7818608E-02  0.1231532E+00
          4   -1    0    0  502    0 -0.00000000000E+00  0.00000000000E+00  0.11305934526E+03  0.11306647802E+03  0.12700000000E+01 0.  1.
         21   -1    0    0  501  502  0.00000000000E+00 -0.00000000000E+00 -0.52184643661E+02  0.52184643661E+02  0.00000000000E+00 0.  1.
         25    2    1    2    0    0 -0.14255386172E+02 -0.19360243189E+02  0.61052354762E+02  0.14117458721E+03  0.12499935601E+03 0.  0.
    9000005    1    3    3    0    0 -0.47291512476E+02 -0.45148807584E+02 -0.20426278605E+01  0.65422276841E+02  0.10000000000E+01 0.  0.
    9000005    1    3    3    0    0  0.33036126304E+02  0.25788564396E+02  0.63094982623E+02  0.75752310373E+02  0.10000000000E+01 0.  0.
          4    1    1    2  501    0  0.14255386172E+02  0.19360243189E+02 -0.17765315833E+00  0.24076534466E+02  0.12700000000E+01 0. -1.
<mgrwt>
<rscale>  1 0.12729051E+03</rscale>
<asrwt>0</asrwt>
<pdfrwt beam="2">  1       21 0.80284068E-02 0.12729051E+03</pdfrwt>
<pdfrwt beam="1">  1        4 0.17395483E-01 0.12729051E+03</pdfrwt>
<totfact> 0.13753350E+05</totfact>
</mgrwt>
</event>
<event>
 6    3  0.3813045E-003  0.1285403E+03  0.7818608E-02  0.1229638E+00
         21   -1    0    0  501  502  0.00000000000E+00  0.00000000000E+00  0.27425707070E+02  0.27425707070E+02  0.00000000000E+00 0. -1.
          4   -1    0    0  502    0 -0.00000000000E+00 -0.00000000000E+00 -0.25736998779E+03  0.25737312120E+03  0.12700000000E+01 0. -1.
         25    2    1    2    0    0  0.29834996387E+02  0.26632659227E+01 -0.21684805660E+03  0.25208271632E+03  0.12500158487E+03 0.  0.
    9000005    1    3    3    0    0  0.57184113720E+02 -0.91470140443E+01 -0.34714387861E+02  0.67526139031E+02  0.10000000000E+01 0.  0.
    9000005    1    3    3    0    0 -0.27349117333E+02  0.11810279967E+02 -0.18213366874E+03  0.18455657729E+03  0.10000000000E+01 0.  0.
          4    1    1    2  501    0 -0.29834996387E+02 -0.26632659227E+01 -0.13096224118E+02  0.32716111947E+02  0.12700000000E+01 0.  1.
<mgrwt>
<rscale>  1 0.12854033E+03</rscale>
<asrwt>0</asrwt>
<pdfrwt beam="1">  1       21 0.42193393E-02 0.12854033E+03</pdfrwt>
<pdfrwt beam="2">  1        4 0.39597888E-01 0.12854033E+03</pdfrwt>
<totfact> 0.88737023E+04</totfact>
</mgrwt>
</event>
<event>
 6    3  0.3813045E-003  0.1435811E+03  0.7818608E-02  0.1208590E+00
         21   -1    0    0  501  502  0.00000000000E+00  0.00000000000E+00  0.73789361235E+03  0.73789361235E+03  0.00000000000E+00 0.  1.
          4   -1    0    0  502    0 -0.00000000000E+00 -0.00000000000E+00 -0.15524831902E+02  0.15576691099E+02  0.12700000000E+01 0.  1.
         25    2    1    2    0    0 -0.43740121123E+02  0.55461060634E+02  0.48879934102E+03  0.50945099402E+03  0.12500556819E+03 0.  0.
    9000005    1    3    3    0    0 -0.85523967320E+02  0.45743468418E+02  0.38715737147E+03  0.39912234236E+03  0.10000000000E+01 0.  0.
    9000005    1    3    3    0    0  0.41783846197E+02  0.97175922160E+01  0.10164196955E+03  0.11032865166E+03  0.10000000000E+01 0.  0.
          4    1    1    2  501    0  0.43740121123E+02 -0.55461060634E+02  0.23356943943E+03  0.24401930944E+03  0.12700000000E+01 0. -1.
<mgrwt>
<rscale>  1 0.14358106E+03</rscale>
<asrwt>0</asrwt>
<pdfrwt beam="1">  1       21 0.11352207E+00 0.14358106E+03</pdfrwt>
<pdfrwt beam="2">  1        4 0.23925095E-02 0.14358106E+03</pdfrwt>
<totfact> 0.19301950E+04</totfact>
</mgrwt>
</event>
<event>
 6    3  0.3813045E-003  0.1296707E+03  0.7818608E-02  0.1227945E+00
         -4   -1    0    0    0  501 -0.00000000000E+00  0.00000000000E+00  0.12740832716E+04  0.12740839045E+04  0.12700000000E+01 0. -1.
         21   -1    0    0  501  502  0.00000000000E+00 -0.00000000000E+00 -0.52359912140E+02  0.52359912140E+02  0.00000000000E+00 0.  1.
         25    2    1    2    0    0  0.20492721996E+02 -0.27740961861E+02  0.12646968780E+04  0.12713271330E+04  0.12499989373E+03 0.  0.
    9000005    1    3    3    0    0  0.52485170037E+02  0.30560264475E+02  0.48266784063E+03  0.48647493996E+03  0.10000000000E+01 0.  0.
    9000005    1    3    3    0    0 -0.31992448040E+02 -0.58301226335E+02  0.78202903735E+03  0.78485219308E+03  0.10000000000E+01 0.  0.
         -4    1    1    2    0  502 -0.20492721996E+02  0.27740961861E+02 -0.42973518538E+02  0.55116683639E+02  0.12700000000E+01 0.  1.
<mgrwt>
<rscale>  1 0.12967068E+03</rscale>
<asrwt>0</asrwt>
<pdfrwt beam="2">  1       21 0.80553721E-02 0.12967068E+03</pdfrwt>
<pdfrwt beam="1">  1       -4 0.19601402E+00 0.12967068E+03</pdfrwt>
<totfact> 0.76453382E+02</totfact>
</mgrwt>
</event>
<event>
 6    3  0.3813045E-003  0.1270325E+03  0.7818608E-02  0.1231927E+00
         -4   -1    0    0    0  501 -0.00000000000E+00  0.00000000000E+00  0.12907524717E+02  0.12969853289E+02  0.12700000000E+01 0.  1.
         21   -1    0    0  501  502  0.00000000000E+00 -0.00000000000E+00 -0.58737908921E+03  0.58737908921E+03  0.00000000000E+00 0. -1.
         25    2    1    2    0    0 -0.22370818679E+02 -0.34414449372E+01 -0.31156680904E+03  0.33646862794E+03  0.12499985608E+03 0.  0.
    9000005    1    3    3    0    0 -0.22442442874E+02 -0.62228888278E+02 -0.13442017126E+03  0.14981949212E+03  0.10000000000E+01 0.  0.
    9000005    1    3    3    0    0  0.71624194493E-01  0.58787443341E+02 -0.17714663778E+03  0.18664913582E+03  0.10000000000E+01 0.  0.
         -4    1    1    2    0  502  0.22370818679E+02  0.34414449372E+01 -0.26290475545E+03  0.26388031456E+03  0.12700000000E+01 0. -1.
<mgrwt>
<rscale>  1 0.12703252E+03</rscale>
<asrwt>0</asrwt>
<pdfrwt beam="2">  1       21 0.90366014E-01 0.12703252E+03</pdfrwt>
<pdfrwt beam="1">  1       -4 0.19906731E-02 0.12703252E+03</pdfrwt>
<totfact> 0.43410848E+04</totfact>
</mgrwt>
</event>
<event>
 6    3  0.3813045E-003  0.1268463E+03  0.7818608E-02  0.1232212E+00
         21   -1    0    0  501  502  0.00000000000E+00  0.00000000000E+00  0.16562865422E+02  0.16562865422E+02  0.00000000000E+00 0. -1.
         -4   -1    0    0    0  501 -0.00000000000E+00 -0.00000000000E+00 -0.36133132876E+03  0.36133356064E+03  0.12700000000E+01 0. -1.
         25    2    1    2    0    0 -0.24686446524E+01 -0.21449448711E+02 -0.32385590380E+03  0.34781119542E+03  0.12499523261E+03 0.  0.
    9000005    1    3    3    0    0  0.39320322360E+02  0.37545183712E+02 -0.14792445139E+03  0.15760194126E+03  0.10000000000E+01 0.  0.
    9000005    1    3    3    0    0 -0.41788967013E+02 -0.58994632424E+02 -0.17593145242E+03  0.19020925416E+03  0.10000000000E+01 0.  0.
         -4    1    1    2    0  502  0.24686446524E+01  0.21449448711E+02 -0.20912559538E+02  0.30085230643E+02  0.12700000000E+01 0.  1.
<mgrwt>
<rscale>  1 0.12684629E+03</rscale>
<asrwt>0</asrwt>
<pdfrwt beam="1">  1       21 0.25481334E-02 0.12684629E+03</pdfrwt>
<pdfrwt beam="2">  1       -4 0.55593347E-01 0.12684629E+03</pdfrwt>
<totfact> 0.10254793E+05</totfact>
</mgrwt>
</event>
<event>
 6    3  0.3813045E-003  0.1268282E+03  0.7818608E-02  0.1232239E+00
         21   -1    0    0  501  502  0.00000000000E+00  0.00000000000E+00  0.36789427829E+03  0.36789427829E+03  0.00000000000E+00 0. -1.
          4   -1    0    0  502    0 -0.00000000000E+00 -0.00000000000E+00 -0.15543884999E+02  0.15595680840E+02  0.12700000000E+01 0. -1.
         25    2    1    2    0    0  0.12418507614E+02 -0.17520423114E+02  0.26886353874E+03  0.29727596757E+03  0.12499685546E+03 0.  0.
    9000005    1    3    3    0    0  0.30734031702E+02  0.48903835290E+02  0.11544528280E+03  0.12909213428E+03  0.10000000000E+01 0.  0.
    9000005    1    3    3    0    0 -0.18315524088E+02 -0.66424258404E+02  0.15341825594E+03  0.16818383330E+03  0.10000000000E+01 0.  0.
          4    1    1    2  501    0 -0.12418507614E+02  0.17520423114E+02  0.83486854552E+02  0.86213991558E+02  0.12700000000E+01 0.  1.
<mgrwt>
<rscale>  1 0.12682822E+03</rscale>
<asrwt>0</asrwt>
<pdfrwt beam="1">  1       21 0.56599113E-01 0.12682822E+03</pdfrwt>
<pdfrwt beam="2">  1        4 0.23955201E-02 0.12682822E+03</pdfrwt>
<totfact> 0.90869136E+04</totfact>
</mgrwt>
</event>
<event>
 6    3  0.3813045E-003  0.1298886E+03  0.7818608E-02  0.1227621E+00
         21   -1    0    0  501  502  0.00000000000E+00  0.00000000000E+00  0.55811100224E+02  0.55811100224E+02  0.00000000000E+00 0. -1.
         -4   -1    0    0    0  501 -0.00000000000E+00 -0.00000000000E+00 -0.40511615931E+03  0.40511814997E+03  0.12700000000E+01 0. -1.
         25    2    1    2    0    0  0.33298132208E+02  0.11711732150E+02 -0.38762863036E+03  0.40881169754E+03  0.12500047476E+03 0.  0.
    9000005    1    3    3    0    0 -0.20220566652E+02  0.43888947145E+02 -0.28190752296E+03  0.28602091270E+03  0.10000000000E+01 0.  0.
    9000005    1    3    3    0    0  0.53518698860E+02 -0.32177214995E+02 -0.10572110740E+03  0.12279078484E+03  0.10000000000E+01 0.  0.
         -4    1    1    2    0  502 -0.33298132208E+02 -0.11711732150E+02  0.38323571280E+02  0.52117552649E+02  0.12700000000E+01 0.  1.
<mgrwt>
<rscale>  1 0.12988860E+03</rscale>
<asrwt>0</asrwt>
<pdfrwt beam="1">  1       21 0.85863233E-02 0.12988860E+03</pdfrwt>
<pdfrwt beam="2">  1       -4 0.62326827E-01 0.12988860E+03</pdfrwt>
<totfact> 0.10574858E+04</totfact>
</mgrwt>
</event>
<event>
 6    3  0.3813045E-003  0.1276182E+03  0.7818608E-02  0.1231033E+00
         21   -1    0    0  501  502  0.00000000000E+00  0.00000000000E+00  0.11248814832E+03  0.11248814832E+03  0.00000000000E+00 0. -1.
         -4   -1    0    0    0  501 -0.00000000000E+00 -0.00000000000E+00 -0.65726429607E+02  0.65738698260E+02  0.12700000000E+01 0.  1.
         25    2    1    2    0    0 -0.21867531762E+02  0.13676453680E+02  0.32863534826E+01  0.12766050785E+03  0.12498468232E+03 0.  0.
    9000005    1    3    3    0    0  0.21316418247E+02 -0.29643327383E+02 -0.38891533887E+02  0.53354174657E+02  0.10000000000E+01 0.  0.
    9000005    1    3    3    0    0 -0.43183950008E+02  0.43319781063E+02  0.42177887370E+02  0.74306333193E+02  0.10000000000E+01 0.  0.
         -4    1    1    2    0  502  0.21867531762E+02 -0.13676453680E+02  0.43475365229E+02  0.50566338728E+02  0.12700000000E+01 0. -1.
<mgrwt>
<rscale>  1 0.12761820E+03</rscale>
<asrwt>0</asrwt>
<pdfrwt beam="1">  1       21 0.17305869E-01 0.12761820E+03</pdfrwt>
<pdfrwt beam="2">  1       -4 0.10113254E-01 0.12761820E+03</pdfrwt>
<totfact> 0.89992330E+04</totfact>
</mgrwt>
</event>
<event>
 6    3  0.3813045E-003  0.1272080E+03  0.7818608E-02  0.1231658E+00
          4   -1    0    0  502    0 -0.00000000000E+00  0.00000000000E+00  0.45194947859E+03  0.45195126297E+03  0.12700000000E+01 0.  1.
         21   -1    0    0  501  502  0.00000000000E+00 -0.00000000000E+00 -0.13294296747E+02  0.13294296747E+02  0.00000000000E+00 0.  1.
         25    2    1    2    0    0  0.15196773184E+02 -0.18109370363E+02  0.40166925382E+03  0.42133129117E+03  0.12499190471E+03 0.  0.
    9000005    1    3    3    0    0 -0.36875229047E+02  0.22137894882E+01  0.36620503862E+02  0.52026384501E+02  0.10000000000E+01 0.  0.
    9000005    1    3    3    0    0  0.52072002231E+02 -0.20323159851E+02  0.36504874996E+03  0.36930490667E+03  0.10000000000E+01 0.  0.
          4    1    1    2  501    0 -0.15196773184E+02  0.18109370363E+02  0.36985928026E+02  0.43914268548E+02  0.12700000000E+01 0. -1.
<mgrwt>
<rscale>  1 0.12720797E+03</rscale>
<asrwt>0</asrwt>
<pdfrwt beam="2">  1       21 0.20452768E-02 0.12720797E+03</pdfrwt>
<pdfrwt beam="1">  1        4 0.69535481E-01 0.12720797E+03</pdfrwt>
<totfact> 0.91374806E+04</totfact>
</mgrwt>
</event>
<event>
 6    3  0.3813045E-003  0.1307867E+03  0.7818608E-02  0.1226293E+00
         21   -1    0    0  501  502  0.00000000000E+00  0.00000000000E+00  0.83857194971E+03  0.83857194971E+03  0.00000000000E+00 0.  1.
         -4   -1    0    0    0  501 -0.00000000000E+00 -0.00000000000E+00 -0.87832397565E+01  0.88745817152E+01  0.12700000000E+01 0.  1.
         25    2    1    2    0    0 -0.56017515259E+01 -0.38002172862E+02  0.69889053413E+03  0.71102259622E+03  0.12501843416E+03 0.  0.
    9000005    1    3    3    0    0 -0.37937264279E+02 -0.54784687241E+02  0.20018768207E+03  0.21098982447E+03  0.10000000000E+01 0.  0.
    9000005    1    3    3    0    0  0.32335512753E+02  0.16782514379E+02  0.49870285206E+03  0.50003277175E+03  0.10000000000E+01 0.  0.
         -4    1    1    2    0  502  0.56017515259E+01  0.38002172862E+02  0.13089817582E+03  0.13642393520E+03  0.12700000000E+01 0. -1.
<mgrwt>
<rscale>  1 0.13078667E+03</rscale>
<asrwt>0</asrwt>
<pdfrwt beam="1">  1       21 0.12901101E+00 0.13078667E+03</pdfrwt>
<pdfrwt beam="2">  1       -4 0.13583686E-02 0.13078667E+03</pdfrwt>
<totfact> 0.33419342E+04</totfact>
</mgrwt>
</event>
<event>
 6    3  0.3813045E-003  0.1274511E+03  0.7818608E-02  0.1231288E+00
         21   -1    0    0  501  502  0.00000000000E+00  0.00000000000E+00  0.20911877286E+03  0.20911877286E+03  0.00000000000E+00 0.  1.
          4   -1    0    0  502    0 -0.00000000000E+00 -0.00000000000E+00 -0.29436569001E+02  0.29463952459E+02  0.12700000000E+01 0. -1.
         25    2    1    2    0    0 -0.17180628974E+02  0.17981806344E+02  0.12510098493E+03  0.17858904456E+03  0.12500108413E+03 0.  0.
    9000005    1    3    3    0    0  0.32217488829E+01  0.61336173930E+02  0.22630287726E+02  0.65464767782E+02  0.10000000000E+01 0.  0.
    9000005    1    3    3    0    0 -0.20402377857E+02 -0.43354367586E+02  0.10247069720E+03  0.11312427677E+03  0.10000000000E+01 0.  0.
          4    1    1    2  501    0  0.17180628974E+02 -0.17981806344E+02  0.54581218936E+02  0.59993680766E+02  0.12700000000E+01 0.  1.
<mgrwt>
<rscale>  1 0.12745113E+03</rscale>
<asrwt>0</asrwt>
<pdfrwt beam="1">  1       21 0.32172118E-01 0.12745113E+03</pdfrwt>
<pdfrwt beam="2">  1        4 0.45311061E-02 0.12745113E+03</pdfrwt>
<totfact> 0.10440617E+05</totfact>
</mgrwt>
</event>
<event>
 6    3  0.3813045E-003  0.1293230E+03  0.7818608E-02  0.1228464E+00
         21   -1    0    0  501  502  0.00000000000E+00  0.00000000000E+00  0.84495744707E+02  0.84495744707E+02  0.00000000000E+00 0.  1.
         -4   -1    0    0    0  501 -0.00000000000E+00 -0.00000000000E+00 -0.78108962520E+02  0.78119286517E+02  0.12700000000E+01 0.  1.
         25    2    1    2    0    0 -0.15370074653E+02  0.29311351916E+02  0.66335184947E+01  0.12949300948E+03  0.12501616451E+03 0.  0.
    9000005    1    3    3    0    0  0.14852365259E+02 -0.44066583616E+02 -0.11862405890E+02  0.48001804330E+02  0.10000000000E+01 0.  0.
    9000005    1    3    3    0    0 -0.30222439912E+02  0.73377935532E+02  0.18495924384E+02  0.81491205145E+02  0.10000000000E+01 0.  0.
         -4    1    1    2    0  502  0.15370074653E+02 -0.29311351916E+02 -0.24673630731E+00  0.33122021750E+02  0.12700000000E+01 0. -1.
<mgrwt>
<rscale>  1 0.12932299E+03</rscale>
<asrwt>0</asrwt>
<pdfrwt beam="1">  1       21 0.12999345E-01 0.12932299E+03</pdfrwt>
<pdfrwt beam="2">  1       -4 0.12018292E-01 0.12932299E+03</pdfrwt>
<totfact> 0.11269435E+05</totfact>
</mgrwt>
</event>
<event>
 6    3  0.3813045E-003  0.1303003E+03  0.7818608E-02  0.1227011E+00
          4   -1    0    0  502    0 -0.00000000000E+00  0.00000000000E+00  0.11626132918E+02  0.11695292498E+02  0.12700000000E+01 0. -1.
         21   -1    0    0  501  502  0.00000000000E+00 -0.00000000000E+00 -0.60734939782E+03  0.60734939782E+03  0.00000000000E+00 0. -1.
         25    2    1    2    0    0 -0.27132458393E+02  0.24842990712E+02 -0.49287297118E+03  0.50980577644E+03  0.12499927795E+03 0.  0.
    9000005    1    3    3    0    0  0.37916832298E+02  0.18373118996E+02 -0.35185118053E+03  0.35436635127E+03  0.10000000000E+01 0.  0.
    9000005    1    3    3    0    0 -0.65049290691E+02  0.64698717162E+01 -0.14102179066E+03  0.15543942518E+03  0.10000000000E+01 0.  0.
          4    1    1    2  501    0  0.27132458393E+02 -0.24842990712E+02 -0.10285029372E+03  0.10923891388E+03  0.12700000000E+01 0.  1.
<mgrwt>
<rscale>  1 0.13030028E+03</rscale>
<asrwt>0</asrwt>
<pdfrwt beam="2">  1       21 0.93438398E-01 0.13030028E+03</pdfrwt>
<pdfrwt beam="1">  1        4 0.17940574E-02 0.13030028E+03</pdfrwt>
<totfact> 0.47279602E+04</totfact>
</mgrwt>
</event>
<event>
 6    3  0.3813045E-003  0.1283826E+03  0.7818608E-02  0.1229876E+00
         -4   -1    0    0    0  501 -0.00000000000E+00  0.00000000000E+00  0.11307398792E+03  0.11308111975E+03  0.12700000000E+01 0.  1.
         21   -1    0    0  501  502  0.00000000000E+00 -0.00000000000E+00 -0.62473783001E+02  0.62473783001E+02  0.00000000000E+00 0.  1.
         25    2    1    2    0    0 -0.92597120207E+01  0.27775814778E+02  0.63860336634E+02  0.14338842725E+03  0.12499944128E+03 0.  0.
    9000005    1    3    3    0    0 -0.43023714055E+02  0.22419462591E+02 -0.20257507000E+02  0.52583636844E+02  0.10000000000E+01 0.  0.
    9000005    1    3    3    0    0  0.33764002034E+02  0.53563521872E+01  0.84117843634E+02  0.90804790401E+02  0.10000000000E+01 0.  0.
         -4    1    1    2    0  502  0.92597120207E+01 -0.27775814778E+02 -0.13260131716E+02  0.32166475505E+02  0.12700000000E+01 0. -1.
<mgrwt>
<rscale>  1 0.12838263E+03</rscale>
<asrwt>0</asrwt>
<pdfrwt beam="2">  1       21 0.96113513E-02 0.12838263E+03</pdfrwt>
<pdfrwt beam="1">  1       -4 0.17397540E-01 0.12838263E+03</pdfrwt>
<totfact> 0.10077330E+05</totfact>
</mgrwt>
</event>
<event>
 6    3  0.3813045E-003  0.1266171E+03  0.7818608E-02  0.1232563E+00
         21   -1    0    0  501  502  0.00000000000E+00  0.00000000000E+00  0.82017075974E+01  0.82017075974E+01  0.00000000000E+00 0.  1.
         -4   -1    0    0    0  501 -0.00000000000E+00 -0.00000000000E+00 -0.85890200330E+03  0.85890294223E+03  0.12700000000E+01 0.  1.
         25    2    1    2    0    0 -0.25799584125E+01  0.20008626860E+02 -0.82370563167E+03  0.83338038378E+03  0.12499958037E+03 0.  0.
    9000005    1    3    3    0    0  0.29801607456E+02  0.62362522905E+02 -0.56677066369E+03  0.57097040666E+03  0.10000000000E+01 0.  0.
    9000005    1    3    3    0    0 -0.32381565869E+02 -0.42353896045E+02 -0.25693496798E+03  0.26240997712E+03  0.10000000000E+01 0.  0.
         -4    1    1    2    0  502  0.25799584125E+01 -0.20008626860E+02 -0.26994664039E+02  0.33724266053E+02  0.12700000000E+01 0. -1.
<mgrwt>
<rscale>  1 0.12661713E+03</rscale>
<asrwt>0</asrwt>
<pdfrwt beam="1">  1       21 0.12618011E-02 0.12661713E+03</pdfrwt>
<pdfrwt beam="2">  1       -4 0.13214641E+00 0.12661713E+03</pdfrwt>
<totfact> 0.45410742E+04</totfact>
</mgrwt>
</event>
<event>
 6    3  0.3813045E-003  0.1347993E+03  0.7818608E-02  0.1220503E+00
         21   -1    0    0  501  502  0.00000000000E+00  0.00000000000E+00  0.15133169613E+03  0.15133169613E+03  0.00000000000E+00 0. -1.
          4   -1    0    0  502    0 -0.00000000000E+00 -0.00000000000E+00 -0.10738305118E+03  0.10739056094E+03  0.12700000000E+01 0.  1.
         25    2    1    2    0    0 -0.27249837999E+02  0.42478383804E+02 -0.56609266962E+02  0.14620348837E+03  0.12499553650E+03 0.  0.
    9000005    1    3    3    0    0  0.47198156699E+02  0.28535243713E+02 -0.68817013746E+01  0.55590322389E+02  0.10000000000E+01 0.  0.
    9000005    1    3    3    0    0 -0.74447994697E+02  0.13943140091E+02 -0.49727565588E+02  0.90613165982E+02  0.10000000000E+01 0.  0.
          4    1    1    2  501    0  0.27249837999E+02 -0.42478383804E+02  0.10055791192E+03  0.11251876870E+03  0.12700000000E+01 0. -1.
<mgrwt>
<rscale>  1 0.13479930E+03</rscale>
<asrwt>0</asrwt>
<pdfrwt beam="1">  1       21 0.23281799E-01 0.13479930E+03</pdfrwt>
<pdfrwt beam="2">  1        4 0.16521457E-01 0.13479930E+03</pdfrwt>
<totfact> 0.22472553E+04</totfact>
</mgrwt>
</event>
<event>
 6    3  0.3813045E-003  0.1273060E+03  0.7818608E-02  0.1231509E+00
         -4   -1    0    0    0  501 -0.00000000000E+00  0.00000000000E+00  0.58372283605E+01  0.59737873190E+01  0.12700000000E+01 0.  1.
         21   -1    0    0  501  502  0.00000000000E+00 -0.00000000000E+00 -0.10856120532E+04  0.10856120532E+04  0.00000000000E+00 0.  1.
         25    2    1    2    0    0 -0.18116712780E+02 -0.15910963929E+02 -0.73312563435E+03  0.74409677850E+03  0.12500178390E+03 0.  0.
    9000005    1    3    3    0    0  0.51077438426E+02 -0.24187737600E+01 -0.42169526173E+03  0.42478541518E+03  0.10000000000E+01 0.  0.
    9000005    1    3    3    0    0 -0.69194151207E+02 -0.13492190169E+02 -0.31143037262E+03  0.31931136332E+03  0.10000000000E+01 0.  0.
         -4    1    1    2    0  502  0.18116712780E+02  0.15910963929E+02 -0.34664919051E+03  0.34748906204E+03  0.12700000000E+01 0. -1.
<mgrwt>
<rscale>  1 0.12730601E+03</rscale>
<asrwt>0</asrwt>
<pdfrwt beam="2">  1       21 0.16701732E+00 0.12730601E+03</pdfrwt>
<pdfrwt beam="1">  1       -4 0.90859635E-03 0.12730601E+03</pdfrwt>
<totfact> 0.31445990E+04</totfact>
</mgrwt>
</event>
<event>
 6    3  0.3813045E-003  0.1275518E+03  0.7818608E-02  0.1231134E+00
         -4   -1    0    0    0  501 -0.00000000000E+00  0.00000000000E+00  0.13947558866E+02  0.14005259667E+02  0.12700000000E+01 0.  1.
         21   -1    0    0  501  502  0.00000000000E+00 -0.00000000000E+00 -0.42118276421E+03  0.42118276421E+03  0.00000000000E+00 0.  1.
         25    2    1    2    0    0  0.24041998451E+02  0.86623125923E+01 -0.32821218214E+03  0.35212597210E+03  0.12496563677E+03 0.  0.
    9000005    1    3    3    0    0  0.62643537935E+02 -0.12544952678E+02 -0.27835166533E+03  0.28559103326E+03  0.10000000000E+01 0.  0.
    9000005    1    3    3    0    0 -0.38601539485E+02  0.21207265270E+02 -0.49860516809E+02  0.66534938846E+02  0.10000000000E+01 0.  0.
         -4    1    1    2    0  502 -0.24041998451E+02 -0.86623125923E+01 -0.79023023200E+02  0.83062051772E+02  0.12700000000E+01 0. -1.
<mgrwt>
<rscale>  1 0.12755181E+03</rscale>
<asrwt>0</asrwt>
<pdfrwt beam="2">  1       21 0.64797346E-01 0.12755181E+03</pdfrwt>
<pdfrwt beam="1">  1       -4 0.21503642E-02 0.12755181E+03</pdfrwt>
<totfact> 0.80590636E+04</totfact>
</mgrwt>
</event>
<event>
 6    3  0.3813045E-003  0.1266604E+03  0.7818608E-02  0.1232497E+00
          4   -1    0    0  502    0 -0.00000000000E+00  0.00000000000E+00  0.19049088171E+02  0.19091376591E+02  0.12700000000E+01 0.  1.
         21   -1    0    0  501  502  0.00000000000E+00 -0.00000000000E+00 -0.52500608300E+03  0.52500608300E+03  0.00000000000E+00 0. -1.
         25    2    1    2    0    0  0.20198134854E+02 -0.22928064615E+01 -0.19531932850E+03  0.23279279490E+03  0.12501849328E+03 0.  0.
    9000005    1    3    3    0    0 -0.14749598839E+02  0.56340049323E+02 -0.95546074390E+02  0.11190086753E+03  0.10000000000E+01 0.  0.
    9000005    1    3    3    0    0  0.34947733693E+02 -0.58632855784E+02 -0.99773254108E+02  0.12089192737E+03  0.10000000000E+01 0.  0.
          4    1    1    2  501    0 -0.20198134854E+02  0.22928064615E+01 -0.31063766633E+03  0.31130466469E+03  0.12700000000E+01 0. -1.
<mgrwt>
<rscale>  1 0.12666035E+03</rscale>
<asrwt>0</asrwt>
<pdfrwt beam="2">  1       21 0.80770165E-01 0.12666035E+03</pdfrwt>
<pdfrwt beam="1">  1        4 0.29340001E-02 0.12666035E+03</pdfrwt>
<totfact> 0.30664879E+04</totfact>
</mgrwt>
</event>
<event>
 6    3  0.3813045E-003  0.1297688E+03  0.7818608E-02  0.1227799E+00
          4   -1    0    0  502    0 -0.00000000000E+00  0.00000000000E+00  0.29172706385E+03  0.29172982823E+03  0.12700000000E+01 0. -1.
         21   -1    0    0  501  502  0.00000000000E+00 -0.00000000000E+00 -0.24809289598E+02  0.24809289598E+02  0.00000000000E+00 0.  1.
         25    2    1    2    0    0 -0.15414765443E+02 -0.31260247962E+02  0.23862894673E+03  0.27163155991E+03  0.12500044810E+03 0.  0.
    9000005    1    3    3    0    0 -0.84815472430E+01 -0.71967214590E+02  0.81036081686E+02  0.10871551478E+03  0.10000000000E+01 0.  0.
    9000005    1    3    3    0    0 -0.69332181997E+01  0.40706966628E+02  0.15759286504E+03  0.16291604512E+03  0.10000000000E+01 0.  0.
          4    1    1    2  501    0  0.15414765443E+02  0.31260247962E+02  0.28288827523E+02  0.44907557926E+02  0.12700000000E+01 0.  1.
<mgrwt>
<rscale>  1 0.12976876E+03</rscale>
<asrwt>0</asrwt>
<pdfrwt beam="2">  1       21 0.38168140E-02 0.12976876E+03</pdfrwt>
<pdfrwt beam="1">  1        4 0.44883797E-01 0.12976876E+03</pdfrwt>
<totfact> 0.81888253E+04</totfact>
</mgrwt>
</event>
<event>
 6    3  0.3813045E-003  0.1276952E+03  0.7818608E-02  0.1230916E+00
         -4   -1    0    0    0  501 -0.00000000000E+00  0.00000000000E+00  0.15232317288E+03  0.15232846713E+03  0.12700000000E+01 0.  1.
         21   -1    0    0  501  502  0.00000000000E+00 -0.00000000000E+00 -0.23212110079E+03  0.23212110079E+03  0.00000000000E+00 0.  1.
         25    2    1    2    0    0  0.96472693401E+01 -0.24242313572E+02  0.12458585910E+03  0.17840320210E+03  0.12500122663E+03 0.  0.
    9000005    1    3    3    0    0  0.59426433557E+02 -0.40222212410E+02  0.50627467463E+02  0.87826350477E+02  0.10000000000E+01 0.  0.
    9000005    1    3    3    0    0 -0.49779164217E+02  0.15979898838E+02  0.73958391637E+02  0.90576851627E+02  0.10000000000E+01 0.  0.
         -4    1    1    2    0  502 -0.96472693401E+01  0.24242313572E+02 -0.20438378701E+03  0.20604636581E+03  0.12700000000E+01 0. -1.
<mgrwt>
<rscale>  1 0.12769521E+03</rscale>
<asrwt>0</asrwt>
<pdfrwt beam="2">  1       21 0.35710939E-01 0.12769521E+03</pdfrwt>
<pdfrwt beam="1">  1       -4 0.23435009E-01 0.12769521E+03</pdfrwt>
<totfact> 0.52502246E+03</totfact>
</mgrwt>
</event>
<event>
 6    3  0.3813045E-003  0.1286263E+03  0.7818608E-02  0.1229508E+00
         21   -1    0    0  501  502  0.00000000000E+00  0.00000000000E+00  0.37129793643E+01  0.37129793643E+01  0.00000000000E+00 0.  1.
         -4   -1    0    0    0  501 -0.00000000000E+00 -0.00000000000E+00 -0.17019309014E+04  0.17019313752E+04  0.12700000000E+01 0.  1.
         25    2    1    2    0    0 -0.25456364659E+02 -0.16487322939E+02 -0.13662624447E+04  0.13723038228E+04  0.12499942371E+03 0.  0.
    9000005    1    3    3    0    0 -0.57558749642E+02 -0.54159211804E+02 -0.81605412133E+03  0.81987289187E+03  0.10000000000E+01 0.  0.
    9000005    1    3    3    0    0  0.32102384983E+02  0.37671888865E+02 -0.55020832338E+03  0.55243093093E+03  0.10000000000E+01 0.  0.
         -4    1    1    2    0  502  0.25456364659E+02  0.16487322939E+02 -0.33195547731E+03  0.33334053180E+03  0.12700000000E+01 0. -1.
<mgrwt>
<rscale>  1 0.12862626E+03</rscale>
<asrwt>0</asrwt>
<pdfrwt beam="1">  1       21 0.57122656E-03 0.12862626E+03</pdfrwt>
<pdfrwt beam="2">  1       -4 0.26185274E+00 0.12862626E+03</pdfrwt>
<totfact> 0.22940144E+04</totfact>
</mgrwt>
</event>
<event>
 6    3  0.3813045E-003  0.1300220E+03  0.7818608E-02  0.1227423E+00
         21   -1    0    0  501  502  0.00000000000E+00  0.00000000000E+00  0.53517883308E+03  0.53517883308E+03  0.00000000000E+00 0.  1.
          4   -1    0    0  502    0 -0.00000000000E+00 -0.00000000000E+00 -0.31597631051E+02  0.31623143234E+02  0.12700000000E+01 0. -1.
         25    2    1    2    0    0 -0.12751722167E+02  0.33388199286E+02  0.10638355812E+03  0.16799756373E+03  0.12501336613E+03 0.  0.
    9000005    1    3    3    0    0 -0.23346146276E+02  0.67278285263E+01 -0.24193724739E+02  0.34302223534E+02  0.10000000000E+01 0.  0.
    9000005    1    3    3    0    0  0.10594424109E+02  0.26660370760E+02  0.13057728285E+03  0.13369534019E+03  0.10000000000E+01 0.  0.
          4    1    1    2  501    0  0.12751722167E+02 -0.33388199286E+02  0.39719764391E+03  0.39880441259E+03  0.12700000000E+01 0.  1.
<mgrwt>
<rscale>  1 0.13002200E+03</rscale>
<asrwt>0</asrwt>
<pdfrwt beam="1">  1       21 0.82335198E-01 0.13002200E+03</pdfrwt>
<pdfrwt beam="2">  1        4 0.48632528E-02 0.13002200E+03</pdfrwt>
<totfact> 0.13232308E+04</totfact>
</mgrwt>
</event>
<event>
 6    3  0.3813045E-003  0.1275875E+03  0.7818608E-02  0.1231080E+00
          4   -1    0    0  502    0 -0.00000000000E+00  0.00000000000E+00  0.41986312684E+02  0.42005515742E+02  0.12700000000E+01 0.  1.
         21   -1    0    0  501  502  0.00000000000E+00 -0.00000000000E+00 -0.14038187565E+03  0.14038187565E+03  0.00000000000E+00 0.  1.
         25    2    1    2    0    0 -0.11967740933E-02  0.25543757165E+02 -0.76836854611E+02  0.14893781236E+03  0.12500434469E+03 0.  0.
    9000005    1    3    3    0    0 -0.35253780442E+02  0.49437878072E+01 -0.97042369036E+02  0.10337065087E+03  0.10000000000E+01 0.  0.
    9000005    1    3    3    0    0  0.35252583668E+02  0.20599969357E+02  0.20205514425E+02  0.45567161487E+02  0.10000000000E+01 0.  0.
          4    1    1    2  501    0  0.11967740933E-02 -0.25543757165E+02 -0.21558708350E+02  0.33449579029E+02  0.12700000000E+01 0. -1.
<mgrwt>
<rscale>  1 0.12758750E+03</rscale>
<asrwt>0</asrwt>
<pdfrwt beam="2">  1       21 0.21597212E-01 0.12758750E+03</pdfrwt>
<pdfrwt beam="1">  1        4 0.64613517E-02 0.12758750E+03</pdfrwt>
<totfact> 0.12566344E+05</totfact>
</mgrwt>
</event>
<event>
 6    3  0.3813045E-003  0.1311794E+03  0.7818608E-02  0.1225716E+00
         -4   -1    0    0    0  501 -0.00000000000E+00  0.00000000000E+00  0.65305765981E+03  0.65305889469E+03  0.12700000000E+01 0.  1.
         21   -1    0    0  501  502  0.00000000000E+00 -0.00000000000E+00 -0.33550984646E+02  0.33550984646E+02  0.00000000000E+00 0. -1.
         25    2    1    2    0    0 -0.38395117683E+02  0.10471413579E+02  0.63153496788E+03  0.64501506848E+03  0.12499674936E+03 0.  0.
    9000005    1    3    3    0    0 -0.46102078338E+02 -0.37839346829E+02  0.51748161500E+03  0.52090828335E+03  0.10000000000E+01 0.  0.
    9000005    1    3    3    0    0  0.77069606546E+01  0.48310760408E+02  0.11405335288E+03  0.12410678513E+03  0.10000000000E+01 0.  0.
         -4    1    1    2    0  502  0.38395117683E+02 -0.10471413579E+02 -0.12028292718E+02  0.41594810854E+02  0.12700000000E+01 0. -1.
<mgrwt>
<rscale>  1 0.13117935E+03</rscale>
<asrwt>0</asrwt>
<pdfrwt beam="2">  1       21 0.51616904E-02 0.13117935E+03</pdfrwt>
<pdfrwt beam="1">  1       -4 0.10047234E+00 0.13117935E+03</pdfrwt>
<totfact> 0.87974830E+03</totfact>
</mgrwt>
</event>
<event>
 6    3  0.3813045E-003  0.1268763E+03  0.7818608E-02  0.1232166E+00
         -4   -1    0    0    0  501 -0.00000000000E+00  0.00000000000E+00  0.61640149140E+03  0.61640279972E+03  0.12700000000E+01 0.  1.
         21   -1    0    0  501  502  0.00000000000E+00 -0.00000000000E+00 -0.10738986343E+02  0.10738986343E+02  0.00000000000E+00 0.  1.
         25    2    1    2    0    0 -0.16848827658E+02  0.13700750563E+02  0.57896474332E+03  0.59270377013E+03  0.12500396618E+03 0.  0.
    9000005    1    3    3    0    0 -0.50210883464E+02 -0.38823045186E+02  0.25219167946E+03  0.26005769522E+03  0.10000000000E+01 0.  0.
    9000005    1    3    3    0    0  0.33362055807E+02  0.52523795749E+02  0.32677306386E+03  0.33264607491E+03  0.10000000000E+01 0.  0.
         -4    1    1    2    0  502  0.16848827658E+02 -0.13700750563E+02  0.26697761737E+02  0.34438015930E+02  0.12700000000E+01 0. -1.
<mgrwt>
<rscale>  1 0.12687626E+03</rscale>
<asrwt>0</asrwt>
<pdfrwt beam="2">  1       21 0.16521522E-02 0.12687626E+03</pdfrwt>
<pdfrwt beam="1">  1       -4 0.94836848E-01 0.12687626E+03</pdfrwt>
<totfact> 0.64761967E+04</totfact>
</mgrwt>
</event>
<event>
 6    3  0.3813045E-003  0.1336422E+03  0.7818608E-02  0.1222149E+00
         21   -1    0    0  501  502  0.00000000000E+00  0.00000000000E+00  0.13853396649E+02  0.13853396649E+02  0.00000000000E+00 0. -1.
         -4   -1    0    0    0  501 -0.00000000000E+00 -0.00000000000E+00 -0.59076285880E+03  0.59076422390E+03  0.12700000000E+01 0. -1.
         25    2    1    2    0    0  0.33372170077E+02 -0.33446151545E+02 -0.42135794540E+03  0.44204384021E+03  0.12501156638E+03 0.  0.
    9000005    1    3    3    0    0  0.36878479476E+01 -0.76216898533E+02 -0.30775546281E+03  0.31707576497E+03  0.10000000000E+01 0.  0.
    9000005    1    3    3    0    0  0.29684322130E+02  0.42770746988E+02 -0.11360248259E+03  0.12496807524E+03  0.10000000000E+01 0.  0.
         -4    1    1    2    0  502 -0.33372170077E+02  0.33446151545E+02 -0.15555151676E+03  0.16257378034E+03  0.12700000000E+01 0.  1.
<mgrwt>
<rscale>  1 0.13364220E+03</rscale>
<asrwt>0</asrwt>
<pdfrwt beam="1">  1       21 0.21312917E-02 0.13364220E+03</pdfrwt>
<pdfrwt beam="2">  1       -4 0.90891181E-01 0.13364220E+03</pdfrwt>
<totfact> 0.47670903E+04</totfact>
</mgrwt>
</event>
<event>
 6    3  0.3813045E-003  0.1286980E+03  0.7818608E-02  0.1229401E+00
         21   -1    0    0  501  502  0.00000000000E+00  0.00000000000E+00  0.13293012485E+04  0.13293012485E+04  0.00000000000E+00 0. -1.
         -4   -1    0    0    0  501 -0.00000000000E+00 -0.00000000000E+00 -0.66586511755E+01  0.67786824293E+01  0.12700000000E+01 0.  1.
         25    2    1    2    0    0  0.28705908030E+02  0.10582339661E+02  0.64328461296E+03  0.65603221283E+03  0.12500862344E+03 0.  0.
    9000005    1    3    3    0    0 -0.24468164621E+02  0.26868345388E+02  0.51408245720E+03  0.51536625022E+03  0.10000000000E+01 0.  0.
    9000005    1    3    3    0    0  0.53174072652E+02 -0.16286005727E+02  0.12920215575E+03  0.14066596261E+03  0.10000000000E+01 0.  0.
         -4    1    1    2    0  502 -0.28705908030E+02 -0.10582339661E+02  0.67935798440E+03  0.68004771813E+03  0.12700000000E+01 0. -1.
<mgrwt>
<rscale>  1 0.12869798E+03</rscale>
<asrwt>0</asrwt>
<pdfrwt beam="1">  1       21 0.20450768E+00 0.12869798E+03</pdfrwt>
<pdfrwt beam="2">  1       -4 0.10336888E-02 0.12869798E+03</pdfrwt>
<totfact> 0.14707303E+04</totfact>
</mgrwt>
</event>
<event>
 6    3  0.3813045E-003  0.1295418E+03  0.7818608E-02  0.1228137E+00
          4   -1    0    0  502    0 -0.00000000000E+00  0.00000000000E+00  0.11165590679E+03  0.11166312919E+03  0.12700000000E+01 0.  1.
         21   -1    0    0  501  502  0.00000000000E+00 -0.00000000000E+00 -0.78633358448E+02  0.78633358448E+02  0.00000000000E+00 0.  1.
         25    2    1    2    0    0  0.20829368062E+02 -0.26867077911E+02  0.63818288306E+02  0.14440865756E+03  0.12500153602E+03 0.  0.
    9000005    1    3    3    0    0  0.53907883524E+02  0.98585287732E+01 -0.98510596319E+01  0.55689261725E+02  0.10000000000E+01 0.  0.
    9000005    1    3    3    0    0 -0.33078515462E+02 -0.36725606685E+02  0.73669347938E+02  0.88719395834E+02  0.10000000000E+01 0.  0.
          4    1    1    2  501    0 -0.20829368062E+02  0.26867077911E+02 -0.30795739966E+02  0.45887830080E+02  0.12700000000E+01 0.  1.
<mgrwt>
<rscale>  1 0.12954183E+03</rscale>
<asrwt>0</asrwt>
<pdfrwt beam="2">  1       21 0.12097440E-01 0.12954183E+03</pdfrwt>
<pdfrwt beam="1">  1        4 0.17179176E-01 0.12954183E+03</pdfrwt>
<totfact> 0.68851024E+04</totfact>
</mgrwt>
</event>
<event>
 6    3  0.3813045E-003  0.1303641E+03  0.7818608E-02  0.1226916E+00
         21   -1    0    0  501  502  0.00000000000E+00  0.00000000000E+00  0.79963644172E+02  0.79963644172E+02  0.00000000000E+00 0.  1.
         -4   -1    0    0    0  501 -0.00000000000E+00 -0.00000000000E+00 -0.10428030110E+03  0.10428803430E+03  0.12700000000E+01 0. -1.
         25    2    1    2    0    0 -0.31528120247E+02  0.19385121744E+02 -0.49523983608E+02  0.13945404985E+03  0.12500000703E+03 0.  0.
    9000005    1    3    3    0    0 -0.61853523001E+02  0.55245302136E+02 -0.26001432914E+02  0.86919366250E+02  0.10000000000E+01 0.  0.
    9000005    1    3    3    0    0  0.30325402754E+02 -0.35860180393E+02 -0.23522550695E+02  0.52534683602E+02  0.10000000000E+01 0.  0.
         -4    1    1    2    0  502  0.31528120247E+02 -0.19385121744E+02  0.25207326680E+02  0.44797628617E+02  0.12700000000E+01 0.  1.
<mgrwt>
<rscale>  1 0.13036413E+03</rscale>
<asrwt>0</asrwt>
<pdfrwt beam="1">  1       21 0.12302099E-01 0.13036413E+03</pdfrwt>
<pdfrwt beam="2">  1       -4 0.16044494E-01 0.13036413E+03</pdfrwt>
<totfact> 0.75447075E+04</totfact>
</mgrwt>
</event>
<event>
 6    3  0.3813045E-003  0.1270639E+03  0.7818608E-02  0.1231879E+00
         21   -1    0    0  501  502  0.00000000000E+00  0.00000000000E+00  0.86585270833E+02  0.86585270833E+02  0.00000000000E+00 0.  1.
         -4   -1    0    0    0  501 -0.00000000000E+00 -0.00000000000E+00 -0.66152267717E+02  0.66164457409E+02  0.12700000000E+01 0.  1.
         25    2    1    2    0    0 -0.13072311006E+02  0.18723766473E+02  0.24810962913E+02  0.12946359121E+03  0.12499509119E+03 0.  0.
    9000005    1    3    3    0    0 -0.54420546746E+01  0.53791283547E+02  0.58898305095E+02  0.79957041515E+02  0.10000000000E+01 0.  0.
    9000005    1    3    3    0    0 -0.76302563313E+01 -0.35067517074E+02 -0.34087342182E+02  0.49506549692E+02  0.10000000000E+01 0.  0.
         -4    1    1    2    0  502  0.13072311006E+02 -0.18723766473E+02 -0.43779597984E+01  0.23286137034E+02  0.12700000000E+01 0. -1.
<mgrwt>
<rscale>  1 0.12706391E+03</rscale>
<asrwt>0</asrwt>
<pdfrwt beam="1">  1       21 0.13320811E-01 0.12706391E+03</pdfrwt>
<pdfrwt beam="2">  1       -4 0.10178926E-01 0.12706391E+03</pdfrwt>
<totfact> 0.14264593E+05</totfact>
</mgrwt>
</event>
<event>
 6    3  0.3813045E-003  0.1277599E+03  0.7818608E-02  0.1230818E+00
          4   -1    0    0  502    0 -0.00000000000E+00  0.00000000000E+00  0.12490007323E+03  0.12490652982E+03  0.12700000000E+01 0. -1.
         21   -1    0    0  501  502  0.00000000000E+00 -0.00000000000E+00 -0.14605346594E+03  0.14605346594E+03  0.00000000000E+00 0.  1.
         25    2    1    2    0    0  0.21587978442E+02 -0.15207903070E+02  0.90276598889E+02  0.15643673587E+03  0.12500106757E+03 0.  0.
    9000005    1    3    3    0    0 -0.49631186721E+02  0.12422913021E+02  0.32059536865E+02  0.60385406907E+02  0.10000000000E+01 0.  0.
    9000005    1    3    3    0    0  0.71219165163E+02 -0.27630816091E+02  0.58217062024E+02  0.96051328961E+02  0.10000000000E+01 0.  0.
          4    1    1    2  501    0 -0.21587978442E+02  0.15207903070E+02 -0.11142999161E+03  0.11452325990E+03  0.12700000000E+01 0.  1.
<mgrwt>
<rscale>  1 0.12775988E+03</rscale>
<asrwt>0</asrwt>
<pdfrwt beam="2">  1       21 0.22469764E-01 0.12775988E+03</pdfrwt>
<pdfrwt beam="1">  1        4 0.19216317E-01 0.12775988E+03</pdfrwt>
<totfact> 0.18270106E+04</totfact>
</mgrwt>
</event>
<event>
 6    3  0.3813045E-003  0.1318753E+03  0.7818608E-02  0.1224699E+00
         -4   -1    0    0    0  501 -0.00000000000E+00  0.00000000000E+00  0.40422733164E+02  0.40442678651E+02  0.12700000000E+01 0. -1.
         21   -1    0    0  501  502  0.00000000000E+00 -0.00000000000E+00 -0.29322644463E+03  0.29322644463E+03  0.00000000000E+00 0. -1.
         25    2    1    2    0    0 -0.13392435882E+02  0.39830911664E+02 -0.76575586993E+02  0.15249566050E+03  0.12500098833E+03 0.  0.
    9000005    1    3    3    0    0 -0.49878089461E+02 -0.25592593455E+02 -0.24102715026E+02  0.61030693259E+02  0.10000000000E+01 0.  0.
    9000005    1    3    3    0    0  0.36485653579E+02  0.65423505119E+02 -0.52472871967E+02  0.91464967236E+02  0.10000000000E+01 0.  0.
         -4    1    1    2    0  502  0.13392435882E+02 -0.39830911664E+02 -0.17622812447E+03  0.18117346278E+03  0.12700000000E+01 0.  1.
<mgrwt>
<rscale>  1 0.13187534E+03</rscale>
<asrwt>0</asrwt>
<pdfrwt beam="2">  1       21 0.45111764E-01 0.13187534E+03</pdfrwt>
<pdfrwt beam="1">  1       -4 0.62206274E-02 0.13187534E+03</pdfrwt>
<totfact> 0.32129198E+04</totfact>
</mgrwt>
</event>
<event>
 6    3  0.3813045E-003  0.1293079E+03  0.7818608E-02  0.1228486E+00
         21   -1    0    0  501  502  0.00000000000E+00  0.00000000000E+00  0.27298112401E+03  0.27298112401E+03  0.00000000000E+00 0.  1.
         -4   -1    0    0    0  501 -0.00000000000E+00 -0.00000000000E+00 -0.75100115620E+02  0.75110853185E+02  0.12700000000E+01 0. -1.
         25    2    1    2    0    0  0.32798363112E+02 -0.43608766250E+01 -0.17227059706E+02  0.13045042848E+03  0.12500317131E+03 0.  0.
    9000005    1    3    3    0    0  0.18821903821E+02 -0.20678902155E+02  0.51405256926E+02  0.58526758815E+02  0.10000000000E+01 0.  0.
    9000005    1    3    3    0    0  0.13976459291E+02  0.16318025531E+02 -0.68632316632E+02  0.71923669663E+02  0.10000000000E+01 0.  0.
         -4    1    1    2    0  502 -0.32798363112E+02  0.43608766250E+01  0.21510806809E+03  0.21764154871E+03  0.12700000000E+01 0.  1.
<mgrwt>
<rscale>  1 0.12930794E+03</rscale>
<asrwt>0</asrwt>
<pdfrwt beam="1">  1       21 0.41997095E-01 0.12930794E+03</pdfrwt>
<pdfrwt beam="2">  1       -4 0.11554917E-01 0.12930794E+03</pdfrwt>
<totfact> 0.13231368E+04</totfact>
</mgrwt>
</event>
<event>
 6    3  0.3813045E-003  0.1272367E+03  0.7818608E-02  0.1231614E+00
         21   -1    0    0  501  502  0.00000000000E+00  0.00000000000E+00  0.29193660198E+01  0.29193660198E+01  0.00000000000E+00 0. -1.
          4   -1    0    0  502    0 -0.00000000000E+00 -0.00000000000E+00 -0.19641539838E+04  0.19641543944E+04  0.12700000000E+01 0. -1.
         25    2    1    2    0    0 -0.20639300553E+02 -0.11824286390E+02 -0.17003732136E+04  0.17051270491E+04  0.12499357400E+03 0.  0.
    9000005    1    3    3    0    0 -0.62942055759E+02 -0.39359235236E+02 -0.84024541493E+03  0.84351894412E+03  0.10000000000E+01 0.  0.
    9000005    1    3    3    0    0  0.42302755206E+02  0.27534948845E+02 -0.86012779870E+03  0.86160810500E+03  0.10000000000E+01 0.  0.
          4    1    1    2  501    0  0.20639300553E+02  0.11824286390E+02 -0.26086140417E+03  0.26194671130E+03  0.12700000000E+01 0.  1.
<mgrwt>
<rscale>  1 0.12723674E+03</rscale>
<asrwt>0</asrwt>
<pdfrwt beam="1">  1       21 0.44913281E-03 0.12723674E+03</pdfrwt>
<pdfrwt beam="2">  1        4 0.30219910E+00 0.12723674E+03</pdfrwt>
<totfact> 0.19504252E+04</totfact>
</mgrwt>
</event>
<event>
 6    3  0.3813045E-003  0.1274140E+03  0.7818608E-02  0.1231344E+00
          4   -1    0    0  502    0 -0.00000000000E+00  0.00000000000E+00  0.87051693786E+02  0.87060957329E+02  0.12700000000E+01 0.  1.
         21   -1    0    0  501  502  0.00000000000E+00 -0.00000000000E+00 -0.10101081711E+03  0.10101081711E+03  0.00000000000E+00 0. -1.
         25    2    1    2    0    0  0.10931419560E+02 -0.22144641691E+02  0.35936187703E+02  0.13238482757E+03  0.12499780756E+03 0.  0.
    9000005    1    3    3    0    0 -0.52541108646E+02 -0.22869876357E+02  0.38173546477E+02  0.68860866920E+02  0.10000000000E+01 0.  0.
    9000005    1    3    3    0    0  0.63472528206E+02  0.72523466568E+00 -0.22373587746E+01  0.63523960648E+02  0.10000000000E+01 0.  0.
          4    1    1    2  501    0 -0.10931419560E+02  0.22144641691E+02 -0.49895311023E+02  0.55686946866E+02  0.12700000000E+01 0. -1.
<mgrwt>
<rscale>  1 0.12741402E+03</rscale>
<asrwt>0</asrwt>
<pdfrwt beam="2">  1       21 0.15540126E-01 0.12741402E+03</pdfrwt>
<pdfrwt beam="1">  1        4 0.13393895E-01 0.12741402E+03</pdfrwt>
<totfact> 0.67770626E+04</totfact>
</mgrwt>
</event>
<event>
 6    3  0.3813045E-003  0.1271498E+03  0.7818608E-02  0.1231747E+00
         21   -1    0    0  501  502  0.00000000000E+00  0.00000000000E+00  0.10216993935E+04  0.10216993935E+04  0.00000000000E+00 0.  1.
         -4   -1    0    0    0  501 -0.00000000000E+00 -0.00000000000E+00 -0.56765183143E+01  0.58168513968E+01  0.12700000000E+01 0.  1.
         25    2    1    2    0    0 -0.23203351563E+02  0.20450781012E+01  0.77430256955E+03  0.78467288607E+03  0.12499796422E+03 0.  0.
    9000005    1    3    3    0    0 -0.69975278061E+02  0.97926853724E+00  0.60457394959E+03  0.60861166521E+03  0.10000000000E+01 0.  0.
    9000005    1    3    3    0    0  0.46771926498E+02  0.10658095640E+01  0.16972861997E+03  0.17606122087E+03  0.10000000000E+01 0.  0.
         -4    1    1    2    0  502  0.23203351563E+02 -0.20450781012E+01  0.24172030565E+03  0.24284335884E+03  0.12700000000E+01 0. -1.
<mgrwt>
<rscale>  1 0.12714979E+03</rscale>
<asrwt>0</asrwt>
<pdfrwt beam="1">  1       21 0.15718438E+00 0.12714979E+03</pdfrwt>
<pdfrwt beam="2">  1       -4 0.88416689E-03 0.12714979E+03</pdfrwt>
<totfact> 0.38490661E+04</totfact>
</mgrwt>
</event>
<event>
 6    3  0.3813045E-003  0.1272912E+03  0.7818608E-02  0.1231531E+00
         -4   -1    0    0    0  501 -0.00000000000E+00  0.00000000000E+00  0.82037128738E+03  0.82037227041E+03  0.12700000000E+01 0. -1.
         21   -1    0    0  501  502  0.00000000000E+00 -0.00000000000E+00 -0.11886685752E+02  0.11886685752E+02  0.00000000000E+00 0.  1.
         25    2    1    2    0    0  0.37624905254E+00  0.24035756749E+02  0.79405544021E+03  0.80419344771E+03  0.12500080015E+03 0.  0.
    9000005    1    3    3    0    0 -0.52392791309E+02  0.35490790025E+02  0.26794417288E+03  0.27531741779E+03  0.10000000000E+01 0.  0.
    9000005    1    3    3    0    0  0.52769040362E+02 -0.11455033277E+02  0.52611126733E+03  0.52887602992E+03  0.10000000000E+01 0.  0.
         -4    1    1    2    0  502 -0.37624905254E+00 -0.24035756749E+02  0.14429161421E+02  0.28065508461E+02  0.12700000000E+01 0.  1.
<mgrwt>
<rscale>  1 0.12729124E+03</rscale>
<asrwt>0</asrwt>
<pdfrwt beam="2">  1       21 0.18287215E-02 0.12729124E+03</pdfrwt>
<pdfrwt beam="1">  1       -4 0.12621622E+00 0.12729124E+03</pdfrwt>
<totfact> 0.28099860E+04</totfact>
</mgrwt>
</event>
<event>
 6    3  0.3813045E-003  0.1267300E+03  0.7818608E-02  0.1232390E+00
         21   -1    0    0  501  502  0.00000000000E+00  0.00000000000E+00  0.13966517797E+03  0.13966517797E+03  0.00000000000E+00 0.  1.
          4   -1    0    0  502    0 -0.00000000000E+00 -0.00000000000E+00 -0.84894485288E+02  0.84903984195E+02  0.12700000000E+01 0.  1.
         25    2    1    2    0    0 -0.32222818635E+01  0.20618914687E+02 -0.35741465936E+02  0.13167359445E+03  0.12499984138E+03 0.  0.
    9000005    1    3    3    0    0  0.25364710560E+02  0.28050835384E+02  0.37147836552E+02  0.53020558919E+02  0.10000000000E+01 0.  0.
    9000005    1    3    3    0    0 -0.28586992424E+02 -0.74319206972E+01 -0.72889302488E+02  0.78653035532E+02  0.10000000000E+01 0.  0.
          4    1    1    2  501    0  0.32222818635E+01 -0.20618914687E+02  0.90512158615E+02  0.92895567711E+02  0.12700000000E+01 0. -1.
<mgrwt>
<rscale>  1 0.12672996E+03</rscale>
<asrwt>0</asrwt>
<pdfrwt beam="1">  1       21 0.21486950E-01 0.12672996E+03</pdfrwt>
<pdfrwt beam="2">  1        4 0.13061865E-01 0.12672996E+03</pdfrwt>
<totfact> 0.39047885E+04</totfact>
</mgrwt>
</event>
<event>
 6    3  0.3813045E-003  0.1339497E+03  0.7818608E-02  0.1221710E+00
         21   -1    0    0  501  502  0.00000000000E+00  0.00000000000E+00  0.20406589918E+03  0.20406589918E+03  0.00000000000E+00 0.  1.
          4   -1    0    0  502    0 -0.00000000000E+00 -0.00000000000E+00 -0.44632994586E+02  0.44651059402E+02  0.12700000000E+01 0.  1.
         25    2    1    2    0    0 -0.47261484488E+02 -0.91074890906E+01  0.80558014076E+02  0.15630778410E+03  0.12500374181E+03 0.  0.
    9000005    1    3    3    0    0  0.29676461930E+02 -0.40829711637E+02  0.25940793754E+02  0.56759867209E+02  0.10000000000E+01 0.  0.
    9000005    1    3    3    0    0 -0.76937946418E+02  0.31722222547E+02  0.54617220322E+02  0.99547916894E+02  0.10000000000E+01 0.  0.
          4    1    1    2  501    0  0.47261484488E+02  0.91074890906E+01  0.78874890518E+02  0.92409174478E+02  0.12700000000E+01 0. -1.
<mgrwt>
<rscale>  1 0.13394973E+03</rscale>
<asrwt>0</asrwt>
<pdfrwt beam="1">  1       21 0.31394753E-01 0.13394973E+03</pdfrwt>
<pdfrwt beam="2">  1        4 0.68683082E-02 0.13394973E+03</pdfrwt>
<totfact> 0.56224477E+04</totfact>
</mgrwt>
</event>
<event>
 6    3  0.3813045E-003  0.2708613E+03  0.7818608E-02  0.1100788E+00
         21   -1    0    0  501  502  0.00000000000E+00  0.00000000000E+00  0.15959153712E+03  0.15959153712E+03  0.00000000000E+00 0. -1.
         -4   -1    0    0    0  501 -0.00000000000E+00 -0.00000000000E+00 -0.58171429036E+03  0.58171567669E+03  0.12700000000E+01 0.  1.
         25    2    1    2    0    0 -0.20216947299E+03 -0.12987926583E+03 -0.42147874774E+03  0.50100917564E+03  0.12499895912E+03 0.  0.
    9000005    1    3    3    0    0 -0.58612444164E+02 -0.35756646722E+02 -0.32775048078E+02  0.76086530820E+02  0.10000000000E+01 0.  0.
    9000005    1    3    3    0    0 -0.14355702883E+03 -0.94122619112E+02 -0.38870369966E+03  0.42492264482E+03  0.10000000000E+01 0.  0.
         -4    1    1    2    0  502  0.20216947299E+03  0.12987926583E+03 -0.64400550325E+00  0.24029803817E+03  0.12700000000E+01 0. -1.
<mgrwt>
<rscale>  1 0.27086133E+03</rscale>
<asrwt>0</asrwt>
<pdfrwt beam="1">  1       21 0.24552544E-01 0.27086133E+03</pdfrwt>
<pdfrwt beam="2">  1       -4 0.89495002E-01 0.27086133E+03</pdfrwt>
<totfact> 0.72665638E+02</totfact>
</mgrwt>
</event>
<event>
 6    3  0.3813045E-003  0.1268873E+03  0.7818608E-02  0.1232149E+00
         -4   -1    0    0    0  501 -0.00000000000E+00  0.00000000000E+00  0.75807950103E+03  0.75808056483E+03  0.12700000000E+01 0. -1.
         21   -1    0    0  501  502  0.00000000000E+00 -0.00000000000E+00 -0.73202277290E+01  0.73202277290E+01  0.00000000000E+00 0. -1.
         25    2    1    2    0    0 -0.21796346086E+02  0.63950125385E+00  0.62344912675E+03  0.63623045549E+03  0.12499955674E+03 0.  0.
    9000005    1    3    3    0    0 -0.15060631754E+02 -0.53515951107E+02  0.15615348648E+03  0.16575792890E+03  0.10000000000E+01 0.  0.
    9000005    1    3    3    0    0 -0.67357143324E+01  0.54155452360E+02  0.46729564027E+03  0.47047252659E+03  0.10000000000E+01 0.  0.
         -4    1    1    2    0  502  0.21796346086E+02 -0.63950125385E+00  0.12731014655E+03  0.12917033707E+03  0.12700000000E+01 0.  1.
<mgrwt>
<rscale>  1 0.12688727E+03</rscale>
<asrwt>0</asrwt>
<pdfrwt beam="2">  1       21 0.11261895E-02 0.12688727E+03</pdfrwt>
<pdfrwt beam="1">  1       -4 0.11663611E+00 0.12688727E+03</pdfrwt>
<totfact> 0.73562761E+04</totfact>
</mgrwt>
</event>
<event>
 6    3  0.3813045E-003  0.1646756E+03  0.7818608E-02  0.1183517E+00
          4   -1    0    0  502    0 -0.00000000000E+00  0.00000000000E+00  0.62707790797E+03  0.62707919401E+03  0.12700000000E+01 0. -1.
         21   -1    0    0  501  502  0.00000000000E+00 -0.00000000000E+00 -0.42937078731E+02  0.42937078731E+02  0.00000000000E+00 0.  1.
         25    2    1    2    0    0 -0.53508598725E+02  0.92916490026E+02  0.51911948213E+03  0.54461279298E+03  0.12498565235E+03 0.  0.
    9000005    1    3    3    0    0 -0.77622476856E+02  0.19205206213E+02  0.34251948609E+03  0.35173098699E+03  0.10000000000E+01 0.  0.
    9000005    1    3    3    0    0  0.24113878132E+02  0.73711283813E+02  0.17659999604E+03  0.19288180599E+03  0.10000000000E+01 0.  0.
          4    1    1    2  501    0  0.53508598725E+02 -0.92916490026E+02  0.65021347104E+02  0.12540347976E+03  0.12700000000E+01 0.  1.
<mgrwt>
<rscale>  1 0.16467561E+03</rscale>
<asrwt>0</asrwt>
<pdfrwt beam="2">  1       21 0.66057049E-02 0.16467561E+03</pdfrwt>
<pdfrwt beam="1">  1        4 0.96475062E-01 0.16467561E+03</pdfrwt>
<totfact> 0.64694424E+03</totfact>
</mgrwt>
</event>
<event>
 6    3  0.3813045E-003  0.1273807E+03  0.7818608E-02  0.1231395E+00
         21   -1    0    0  501  502  0.00000000000E+00  0.00000000000E+00  0.21082095821E+03  0.21082095821E+03  0.00000000000E+00 0.  1.
          4   -1    0    0  502    0 -0.00000000000E+00 -0.00000000000E+00 -0.29070598033E+02  0.29098325897E+02  0.12700000000E+01 0.  1.
         25    2    1    2    0    0  0.20741819038E+02 -0.13073184346E+02  0.12679777468E+03  0.17973182064E+03  0.12499888192E+03 0.  0.
    9000005    1    3    3    0    0 -0.45225787985E+02 -0.10430911863E+02  0.13073997538E+02  0.48229713174E+02  0.10000000000E+01 0.  0.
    9000005    1    3    3    0    0  0.65967607024E+02 -0.26422724825E+01  0.11372377714E+03  0.13150210747E+03  0.10000000000E+01 0.  0.
          4    1    1    2  501    0 -0.20741819038E+02  0.13073184346E+02  0.54952585498E+02  0.60187463470E+02  0.12700000000E+01 0. -1.
<mgrwt>
<rscale>  1 0.12738074E+03</rscale>
<asrwt>0</asrwt>
<pdfrwt beam="1">  1       21 0.32433993E-01 0.12738074E+03</pdfrwt>
<pdfrwt beam="2">  1        4 0.44748270E-02 0.12738074E+03</pdfrwt>
<totfact> 0.10483632E+05</totfact>
</mgrwt>
</event>
<event>
 6    3  0.3813045E-003  0.1289427E+03  0.7818608E-02  0.1229033E+00
          4   -1    0    0  502    0 -0.00000000000E+00  0.00000000000E+00  0.37191285729E+03  0.37191502566E+03  0.12700000000E+01 0. -1.
         21   -1    0    0  501  502  0.00000000000E+00 -0.00000000000E+00 -0.19011645896E+02  0.19011645896E+02  0.00000000000E+00 0. -1.
         25    2    1    2    0    0 -0.15371689382E+02 -0.27640370986E+02  0.32126168598E+03  0.34617232640E+03  0.12500371891E+03 0.  0.
    9000005    1    3    3    0    0  0.12754215847E+02  0.19672325081E+02  0.35581528919E+01  0.23734591801E+02  0.10000000000E+01 0.  0.
    9000005    1    3    3    0    0 -0.28125905228E+02 -0.47312696068E+02  0.31770353309E+03  0.32243773460E+03  0.10000000000E+01 0.  0.
          4    1    1    2  501    0  0.15371689382E+02  0.27640370986E+02  0.31639525408E+02  0.44754345160E+02  0.12700000000E+01 0.  1.
<mgrwt>
<rscale>  1 0.12894266E+03</rscale>
<asrwt>0</asrwt>
<pdfrwt beam="2">  1       21 0.29248689E-02 0.12894266E+03</pdfrwt>
<pdfrwt beam="1">  1        4 0.57220787E-01 0.12894266E+03</pdfrwt>
<totfact> 0.77301285E+04</totfact>
</mgrwt>
</event>
<event>
 6    3  0.3813045E-003  0.1305915E+03  0.7818608E-02  0.1226581E+00
         21   -1    0    0  501  502  0.00000000000E+00  0.00000000000E+00  0.20789144763E+02  0.20789144763E+02  0.00000000000E+00 0. -1.
          4   -1    0    0  502    0 -0.00000000000E+00 -0.00000000000E+00 -0.35644177462E+03  0.35644403712E+03  0.12700000000E+01 0. -1.
         25    2    1    2    0    0  0.20036723548E+02 -0.32057445354E+02 -0.28927387120E+03  0.31738543967E+03  0.12499997864E+03 0.  0.
    9000005    1    3    3    0    0 -0.27081247318E+01  0.42806505572E+02 -0.16534300792E+03  0.17081873763E+03  0.10000000000E+01 0.  0.
    9000005    1    3    3    0    0  0.22744848280E+02 -0.74863950926E+02 -0.12393086328E+03  0.14656670204E+03  0.10000000000E+01 0.  0.
          4    1    1    2  501    0 -0.20036723548E+02  0.32057445354E+02 -0.46378758660E+02  0.59847742213E+02  0.12700000000E+01 0.  1.
<mgrwt>
<rscale>  1 0.13059152E+03</rscale>
<asrwt>0</asrwt>
<pdfrwt beam="1">  1       21 0.31983301E-02 0.13059152E+03</pdfrwt>
<pdfrwt beam="2">  1        4 0.54840351E-01 0.13059152E+03</pdfrwt>
<totfact> 0.73032412E+04</totfact>
</mgrwt>
</event>
<event>
 6    3  0.3813045E-003  0.1766068E+03  0.7818608E-02  0.1171128E+00
         21   -1    0    0  501  502  0.00000000000E+00  0.00000000000E+00  0.40184409557E+03  0.40184409557E+03  0.00000000000E+00 0.  1.
          4   -1    0    0  502    0 -0.00000000000E+00 -0.00000000000E+00 -0.57673566499E+02  0.57687547813E+02  0.12700000000E+01 0. -1.
         25    2    1    2    0    0 -0.47347872641E+02 -0.11542989491E+03  0.16877139195E+03  0.24428213262E+03  0.12499638352E+03 0.  0.
    9000005    1    3    3    0    0 -0.80886441887E+02 -0.42639225124E+02  0.60793079094E+02  0.10980673233E+03  0.10000000000E+01 0.  0.
    9000005    1    3    3    0    0  0.33538569246E+02 -0.72790669781E+02  0.10797831285E+03  0.13447540028E+03  0.10000000000E+01 0.  0.
          4    1    1    2  501    0  0.47347872641E+02  0.11542989491E+03  0.17539913712E+03  0.21524951077E+03  0.12700000000E+01 0.  1.
<mgrwt>
<rscale>  1 0.17660684E+03</rscale>
<asrwt>0</asrwt>
<pdfrwt beam="1">  1       21 0.61822167E-01 0.17660684E+03</pdfrwt>
<pdfrwt beam="2">  1        4 0.88740865E-02 0.17660684E+03</pdfrwt>
<totfact> 0.94494760E+03</totfact>
</mgrwt>
</event>
<event>
 6    3  0.3813045E-003  0.1311535E+03  0.7818608E-02  0.1225754E+00
          4   -1    0    0  502    0 -0.00000000000E+00  0.00000000000E+00  0.92358540203E+03  0.92358627520E+03  0.12700000000E+01 0. -1.
         21   -1    0    0  501  502  0.00000000000E+00 -0.00000000000E+00 -0.14639718023E+02  0.14639718023E+02  0.00000000000E+00 0.  1.
         25    2    1    2    0    0 -0.35847650159E+02 -0.17044835036E+02  0.87836443316E+03  0.88810208449E+03  0.12500261842E+03 0.  0.
    9000005    1    3    3    0    0 -0.12787137848E+02 -0.36498187517E+02  0.83123147533E+03  0.83213123615E+03  0.10000000000E+01 0.  0.
    9000005    1    3    3    0    0 -0.23060512312E+02  0.19453352481E+02  0.47132957826E+02  0.55970848343E+02  0.10000000000E+01 0.  0.
          4    1    1    2  501    0  0.35847650159E+02  0.17044835036E+02  0.30581250844E+02  0.50123908732E+02  0.12700000000E+01 0.  1.
<mgrwt>
<rscale>  1 0.13115348E+03</rscale>
<asrwt>0</asrwt>
<pdfrwt beam="2">  1       21 0.22522650E-02 0.13115348E+03</pdfrwt>
<pdfrwt beam="1">  1        4 0.14209432E+00 0.13115348E+03</pdfrwt>
<totfact> 0.15040967E+04</totfact>
</mgrwt>
</event>
<event>
 6    3  0.3813045E-003  0.1412022E+03  0.7818608E-02  0.1211720E+00
         21   -1    0    0  501  502  0.00000000000E+00  0.00000000000E+00  0.80404415300E+02  0.80404415300E+02  0.00000000000E+00 0. -1.
         -4   -1    0    0    0  501 -0.00000000000E+00 -0.00000000000E+00 -0.16154397961E+03  0.16154897167E+03  0.12700000000E+01 0.  1.
         25    2    1    2    0    0 -0.63990241586E+02  0.14749964655E+02 -0.10068895603E+03  0.17342526069E+03  0.12500297078E+03 0.  0.
    9000005    1    3    3    0    0 -0.70839887158E+02 -0.36897690023E+02 -0.89807091188E+02  0.12019169176E+03  0.10000000000E+01 0.  0.
    9000005    1    3    3    0    0  0.68496455717E+01  0.51647654677E+02 -0.10881864838E+02  0.53233568925E+02  0.10000000000E+01 0.  0.
         -4    1    1    2    0  502  0.63990241586E+02 -0.14749964655E+02  0.19549391715E+02  0.68528126284E+02  0.12700000000E+01 0. -1.
<mgrwt>
<rscale>  1 0.14120218E+03</rscale>
<asrwt>0</asrwt>
<pdfrwt beam="1">  1       21 0.12369910E-01 0.14120218E+03</pdfrwt>
<pdfrwt beam="2">  1       -4 0.24854075E-01 0.14120218E+03</pdfrwt>
<totfact> 0.34318916E+04</totfact>
</mgrwt>
</event>
<event>
 6    3  0.3813045E-003  0.1385010E+03  0.7818608E-02  0.1215360E+00
         -4   -1    0    0    0  501 -0.00000000000E+00  0.00000000000E+00  0.32345787307E+03  0.32346036627E+03  0.12700000000E+01 0. -1.
         21   -1    0    0  501  502  0.00000000000E+00 -0.00000000000E+00 -0.32869935643E+02  0.32869935643E+02  0.00000000000E+00 0.  1.
         25    2    1    2    0    0  0.84685310865E+01 -0.59043549406E+02  0.24425826296E+03  0.28079283849E+03  0.12499864950E+03 0.  0.
    9000005    1    3    3    0    0  0.29879194129E+02 -0.82123882268E+02  0.23032887338E+03  0.24635236591E+03  0.10000000000E+01 0.  0.
    9000005    1    3    3    0    0 -0.21410663042E+02  0.23080332862E+02  0.13929389587E+02  0.34440472575E+02  0.10000000000E+01 0.  0.
         -4    1    1    2    0  502 -0.84685310865E+01  0.59043549406E+02  0.46329674461E+02  0.75537463426E+02  0.12700000000E+01 0.  1.
<mgrwt>
<rscale>  1 0.13850097E+03</rscale>
<asrwt>0</asrwt>
<pdfrwt beam="2">  1       21 0.50569134E-02 0.13850097E+03</pdfrwt>
<pdfrwt beam="1">  1       -4 0.49764826E-01 0.13850097E+03</pdfrwt>
<totfact> 0.41910416E+04</totfact>
</mgrwt>
</event>
<event>
 6    3  0.3813045E-003  0.1370566E+03  0.7818608E-02  0.1217345E+00
         21   -1    0    0  501  502  0.00000000000E+00  0.00000000000E+00  0.59351758406E+02  0.59351758406E+02  0.00000000000E+00 0.  1.
          4   -1    0    0  502    0 -0.00000000000E+00 -0.00000000000E+00 -0.32159373276E+03  0.32159624042E+03  0.12700000000E+01 0. -1.
         25    2    1    2    0    0  0.54189302887E+02 -0.14925528721E+02 -0.28811943046E+03  0.31905690424E+03  0.12500099992E+03 0.  0.
    9000005    1    3    3    0    0  0.55477382739E+02  0.45976878444E+02 -0.11694424209E+03  0.13736291022E+03  0.10000000000E+01 0.  0.
    9000005    1    3    3    0    0 -0.12880798522E+01 -0.60902407165E+02 -0.17117518837E+03  0.18169399402E+03  0.10000000000E+01 0.  0.
          4    1    1    2  501    0 -0.54189302887E+02  0.14925528721E+02  0.25877456101E+02  0.61891094588E+02  0.12700000000E+01 0.  1.
<mgrwt>
<rscale>  1 0.13705656E+03</rscale>
<asrwt>0</asrwt>
<pdfrwt beam="1">  1       21 0.91310398E-02 0.13705656E+03</pdfrwt>
<pdfrwt beam="2">  1        4 0.49477197E-01 0.13705656E+03</pdfrwt>
<totfact> 0.15411912E+04</totfact>
</mgrwt>
</event>
<event>
 6    3  0.3813045E-003  0.1285418E+03  0.7818608E-02  0.1229636E+00
         21   -1    0    0  501  502  0.00000000000E+00  0.00000000000E+00  0.83829995250E+02  0.83829995250E+02  0.00000000000E+00 0. -1.
          4   -1    0    0  502    0 -0.00000000000E+00 -0.00000000000E+00 -0.17729509140E+03  0.17729963997E+03  0.12700000000E+01 0.  1.
         25    2    1    2    0    0 -0.25248497084E+02  0.16128701336E+02 -0.14975136142E+03  0.19735363526E+03  0.12500146196E+03 0.  0.
    9000005    1    3    3    0    0  0.80373706828E+01  0.67069506965E+02 -0.83121121640E+02  0.10711227266E+03  0.10000000000E+01 0.  0.
    9000005    1    3    3    0    0 -0.33285867767E+02 -0.50940805629E+02 -0.66630239779E+02  0.90241362601E+02  0.10000000000E+01 0.  0.
          4    1    1    2  501    0  0.25248497084E+02 -0.16128701336E+02  0.56286265273E+02  0.63775999955E+02  0.12700000000E+01 0. -1.
<mgrwt>
<rscale>  1 0.12854177E+03</rscale>
<asrwt>0</asrwt>
<pdfrwt beam="1">  1       21 0.12896922E-01 0.12854177E+03</pdfrwt>
<pdfrwt beam="2">  1        4 0.27277258E-01 0.12854177E+03</pdfrwt>
<totfact> 0.26537268E+04</totfact>
</mgrwt>
</event>
<event>
 6    3  0.3813045E-003  0.1273961E+03  0.7818608E-02  0.1231371E+00
         21   -1    0    0  501  502  0.00000000000E+00  0.00000000000E+00  0.15131008102E+02  0.15131008102E+02  0.00000000000E+00 0.  1.
         -4   -1    0    0    0  501 -0.00000000000E+00 -0.00000000000E+00 -0.38209522077E+03  0.38209733136E+03  0.12700000000E+01 0.  1.
         25    2    1    2    0    0 -0.75357879581E+01  0.23443958667E+02 -0.30483915422E+03  0.33038865750E+03  0.12499339087E+03 0.  0.
    9000005    1    3    3    0    0  0.46461459459E+02  0.16421392368E+02 -0.24316672643E+03  0.24811164057E+03  0.10000000000E+01 0.  0.
    9000005    1    3    3    0    0 -0.53997247417E+02  0.70225662998E+01 -0.61672427795E+02  0.82277016937E+02  0.10000000000E+01 0.  0.
         -4    1    1    2    0  502  0.75357879581E+01 -0.23443958667E+02 -0.62125058444E+02  0.66839681962E+02  0.12700000000E+01 0. -1.
<mgrwt>
<rscale>  1 0.12739606E+03</rscale>
<asrwt>0</asrwt>
<pdfrwt beam="1">  1       21 0.23278475E-02 0.12739606E+03</pdfrwt>
<pdfrwt beam="2">  1       -4 0.58788139E-01 0.12739606E+03</pdfrwt>
<totfact> 0.10582012E+05</totfact>
</mgrwt>
</event>
<event>
 6    3  0.3813045E-003  0.1304335E+03  0.7818608E-02  0.1226814E+00
         21   -1    0    0  501  502  0.00000000000E+00  0.00000000000E+00  0.82591818470E+02  0.82591818470E+02  0.00000000000E+00 0.  1.
          4   -1    0    0  502    0 -0.00000000000E+00 -0.00000000000E+00 -0.15791085213E+03  0.15791595904E+03  0.12700000000E+01 0. -1.
         25    2    1    2    0    0 -0.32688333345E+02 -0.17815528503E+02 -0.12348763403E+03  0.17961650429E+03  0.12500789040E+03 0.  0.
    9000005    1    3    3    0    0 -0.65967911606E+02 -0.36824964983E+02 -0.11907571121E+03  0.14102435396E+03  0.10000000000E+01 0.  0.
    9000005    1    3    3    0    0  0.33279578261E+02  0.19009436480E+02 -0.44119228198E+01  0.38592150335E+02  0.10000000000E+01 0.  0.
          4    1    1    2  501    0  0.32688333345E+02  0.17815528503E+02  0.48168600373E+02  0.60891273222E+02  0.12700000000E+01 0.  1.
<mgrwt>
<rscale>  1 0.13043348E+03</rscale>
<asrwt>0</asrwt>
<pdfrwt beam="1">  1       21 0.12706434E-01 0.13043348E+03</pdfrwt>
<pdfrwt beam="2">  1        4 0.24295121E-01 0.13043348E+03</pdfrwt>
<totfact> 0.33819170E+04</totfact>
</mgrwt>
</event>
<event>
 6    3  0.3813045E-003  0.1374697E+03  0.7818608E-02  0.1216775E+00
         21   -1    0    0  501  502  0.00000000000E+00  0.00000000000E+00  0.11508937455E+03  0.11508937455E+03  0.00000000000E+00 0. -1.
          4   -1    0    0  502    0 -0.00000000000E+00 -0.00000000000E+00 -0.26147220076E+03  0.26147528501E+03  0.12700000000E+01 0.  1.
         25    2    1    2    0    0  0.13323426023E+02  0.55634040568E+02 -0.23430872778E+03  0.27165881025E+03  0.12500107649E+03 0.  0.
    9000005    1    3    3    0    0  0.63575816231E+02  0.35884072666E+02 -0.18358098204E+03  0.19756651551E+03  0.10000000000E+01 0.  0.
    9000005    1    3    3    0    0 -0.50252390208E+02  0.19749967902E+02 -0.50727745734E+02  0.74092294748E+02  0.10000000000E+01 0.  0.
          4    1    1    2  501    0 -0.13323426023E+02 -0.55634040568E+02  0.87925901575E+02  0.10490584931E+03  0.12700000000E+01 0. -1.
<mgrwt>
<rscale>  1 0.13746974E+03</rscale>
<asrwt>0</asrwt>
<pdfrwt beam="1">  1       21 0.17706058E-01 0.13746974E+03</pdfrwt>
<pdfrwt beam="2">  1        4 0.40227269E-01 0.13746974E+03</pdfrwt>
<totfact> 0.71597232E+03</totfact>
</mgrwt>
</event>
<event>
 6    3  0.3813045E-003  0.1306490E+03  0.7818608E-02  0.1226496E+00
         21   -1    0    0  501  502  0.00000000000E+00  0.00000000000E+00  0.13860243965E+03  0.13860243965E+03  0.00000000000E+00 0.  1.
          4   -1    0    0  502    0 -0.00000000000E+00 -0.00000000000E+00 -0.10329783597E+03  0.10330564271E+03  0.12700000000E+01 0. -1.
         25    2    1    2    0    0 -0.17278303964E+02 -0.33860338497E+02 -0.56646579180E+02  0.14240082011E+03  0.12499638524E+03 0.  0.
    9000005    1    3    3    0    0  0.13134573142E+02 -0.49175830619E+02 -0.84329404774E+02  0.98504963520E+02  0.10000000000E+01 0.  0.
    9000005    1    3    3    0    0 -0.30412877106E+02  0.15315492122E+02  0.27682825593E+02  0.43895856588E+02  0.10000000000E+01 0.  0.
          4    1    1    2  501    0  0.17278303964E+02  0.33860338497E+02  0.91951182861E+02  0.99507262250E+02  0.12700000000E+01 0.  1.
<mgrwt>
<rscale>  1 0.13064899E+03</rscale>
<asrwt>0</asrwt>
<pdfrwt beam="1">  1       21 0.21323452E-01 0.13064899E+03</pdfrwt>
<pdfrwt beam="2">  1        4 0.15893023E-01 0.13064899E+03</pdfrwt>
<totfact> 0.28263101E+04</totfact>
</mgrwt>
</event>
<event>
 6    3  0.3813045E-003  0.1480854E+03  0.7818608E-02  0.1202846E+00
         21   -1    0    0  501  502  0.00000000000E+00  0.00000000000E+00  0.35480466784E+03  0.35480466784E+03  0.00000000000E+00 0.  1.
         -4   -1    0    0    0  501 -0.00000000000E+00 -0.00000000000E+00 -0.43915200368E+02  0.43933560331E+02  0.12700000000E+01 0. -1.
         25    2    1    2    0    0 -0.71239782281E+02 -0.35064626928E+02  0.11541745735E+03  0.18775113311E+03  0.12499865552E+03 0.  0.
    9000005    1    3    3    0    0  0.14607344896E+02  0.22313993577E+02  0.70051351270E+02  0.74963195297E+02  0.10000000000E+01 0.  0.
    9000005    1    3    3    0    0 -0.85847127176E+02 -0.57378620505E+02  0.45366106081E+02  0.11278793781E+03  0.10000000000E+01 0.  0.
         -4    1    1    2    0  502  0.71239782281E+02  0.35064626928E+02  0.19547201013E+03  0.21098709506E+03  0.12700000000E+01 0.  1.
<mgrwt>
<rscale>  1 0.14808544E+03</rscale>
<asrwt>0</asrwt>
<pdfrwt beam="1">  1       21 0.54585332E-01 0.14808544E+03</pdfrwt>
<pdfrwt beam="2">  1       -4 0.67577721E-02 0.14808544E+03</pdfrwt>
<totfact> 0.19126074E+04</totfact>
</mgrwt>
</event>
<event>
 6    3  0.3813045E-003  0.1270850E+03  0.7818608E-02  0.1231846E+00
         -4   -1    0    0    0  501 -0.00000000000E+00  0.00000000000E+00  0.41453355019E+03  0.41453549563E+03  0.12700000000E+01 0. -1.
         21   -1    0    0  501  502  0.00000000000E+00 -0.00000000000E+00 -0.16804292107E+02  0.16804292107E+02  0.00000000000E+00 0. -1.
         25    2    1    2    0    0  0.14549102438E+02  0.17728522149E+02  0.38422061992E+03  0.40469259118E+03  0.12499852679E+03 0.  0.
    9000005    1    3    3    0    0  0.63035171706E+02 -0.19172097923E+02  0.21231824178E+03  0.22230842990E+03  0.10000000000E+01 0.  0.
    9000005    1    3    3    0    0 -0.48486069268E+02  0.36900620071E+02  0.17190237814E+03  0.18238416128E+03  0.10000000000E+01 0.  0.
         -4    1    1    2    0  502 -0.14549102438E+02 -0.17728522149E+02  0.13508638163E+02  0.26647196557E+02  0.12700000000E+01 0.  1.
<mgrwt>
<rscale>  1 0.12708504E+03</rscale>
<asrwt>0</asrwt>
<pdfrwt beam="2">  1       21 0.25852760E-02 0.12708504E+03</pdfrwt>
<pdfrwt beam="1">  1       -4 0.63778226E-01 0.12708504E+03</pdfrwt>
<totfact> 0.75143486E+04</totfact>
</mgrwt>
</event>
<event>
 6    3  0.3813045E-003  0.1320197E+03  0.7818608E-02  0.1224489E+00
         21   -1    0    0  501  502  0.00000000000E+00  0.00000000000E+00  0.54277899508E+02  0.54277899508E+02  0.00000000000E+00 0. -1.
          4   -1    0    0  502    0 -0.00000000000E+00 -0.00000000000E+00 -0.14808312918E+03  0.14808857500E+03  0.12700000000E+01 0. -1.
         25    2    1    2    0    0 -0.29599315278E+02 -0.30462415710E+02 -0.89839882822E+02  0.15968843436E+03  0.12500045314E+03 0.  0.
    9000005    1    3    3    0    0 -0.57614581650E+02  0.27430025659E+02 -0.25542973500E+02  0.68740743534E+02  0.10000000000E+01 0.  0.
    9000005    1    3    3    0    0  0.28015266372E+02 -0.57892441369E+02 -0.64296909322E+02  0.90947690822E+02  0.10000000000E+01 0.  0.
          4    1    1    2  501    0  0.29599315278E+02  0.30462415710E+02 -0.39653468455E+01  0.42678040154E+02  0.12700000000E+01 0.  1.
<mgrwt>
<rscale>  1 0.13201966E+03</rscale>
<asrwt>0</asrwt>
<pdfrwt beam="1">  1       21 0.83504462E-02 0.13201966E+03</pdfrwt>
<pdfrwt beam="2">  1        4 0.22783581E-01 0.13201966E+03</pdfrwt>
<totfact> 0.79559103E+04</totfact>
</mgrwt>
</event>
<event>
 6    3  0.3813045E-003  0.1267040E+03  0.7818608E-02  0.1232430E+00
          4   -1    0    0  502    0 -0.00000000000E+00  0.00000000000E+00  0.19319878010E+02  0.19361574996E+02  0.12700000000E+01 0. -1.
         21   -1    0    0  501  502  0.00000000000E+00 -0.00000000000E+00 -0.30330294467E+03  0.30330294467E+03  0.00000000000E+00 0. -1.
         25    2    1    2    0    0  0.19959974205E+02 -0.54920843876E+01 -0.20493141067E+03  0.24093728567E+03  0.12500131594E+03 0.  0.
    9000005    1    3    3    0    0 -0.12827398250E+02  0.31041425942E+02 -0.37032332726E+01  0.33805712639E+02  0.10000000000E+01 0.  0.
    9000005    1    3    3    0    0  0.32787372455E+02 -0.36533510329E+02 -0.20122817740E+03  0.20713157304E+03  0.10000000000E+01 0.  0.
          4    1    1    2  501    0 -0.19959974205E+02  0.54920843876E+01 -0.79051655987E+02  0.81727233989E+02  0.12700000000E+01 0.  1.
<mgrwt>
<rscale>  1 0.12670396E+03</rscale>
<asrwt>0</asrwt>
<pdfrwt beam="2">  1       21 0.46661993E-01 0.12670396E+03</pdfrwt>
<pdfrwt beam="1">  1        4 0.29757008E-02 0.12670396E+03</pdfrwt>
<totfact> 0.96695776E+04</totfact>
</mgrwt>
</event>
<event>
 6    3  0.3813045E-003  0.1342735E+03  0.7818608E-02  0.1221249E+00
         21   -1    0    0  501  502  0.00000000000E+00  0.00000000000E+00  0.18239599641E+04  0.18239599641E+04  0.00000000000E+00 0.  1.
         -4   -1    0    0    0  501 -0.00000000000E+00 -0.00000000000E+00 -0.14145908702E+02  0.14202803702E+02  0.12700000000E+01 0. -1.
         25    2    1    2    0    0  0.40582157405E+02 -0.27512917068E+02  0.31349696551E+03  0.34104209180E+03  0.12500195556E+03 0.  0.
    9000005    1    3    3    0    0  0.57821284510E+02 -0.36736850938E+02  0.74380147778E+02  0.10112518748E+03  0.10000000000E+01 0.  0.
    9000005    1    3    3    0    0 -0.17239127105E+02  0.92239338697E+01  0.23911681773E+03  0.23991690432E+03  0.10000000000E+01 0.  0.
         -4    1    1    2    0  502 -0.40582157405E+02  0.27512917068E+02  0.14963170899E+04  0.14971206760E+04  0.12700000000E+01 0.  1.
<mgrwt>
<rscale>  1 0.13427346E+03</rscale>
<asrwt>0</asrwt>
<pdfrwt beam="1">  1       21 0.28060904E+00 0.13427346E+03</pdfrwt>
<pdfrwt beam="2">  1       -4 0.21807056E-02 0.13427346E+03</pdfrwt>
<totfact> 0.16933955E+03</totfact>
</mgrwt>
</event>
<event>
 6    3  0.3813045E-003  0.1297570E+03  0.7818608E-02  0.1227817E+00
          4   -1    0    0  502    0 -0.00000000000E+00  0.00000000000E+00  0.22332467850E+04  0.22332471461E+04  0.12700000000E+01 0. -1.
         21   -1    0    0  501  502  0.00000000000E+00 -0.00000000000E+00 -0.79940365126E+01  0.79940365126E+01  0.00000000000E+00 0.  1.
         25    2    1    2    0    0  0.22293115590E+02 -0.26730640206E+02  0.21813242974E+04  0.21851802172E+04  0.12500152448E+03 0.  0.
    9000005    1    3    3    0    0  0.20997439771E+02  0.24826074547E+02  0.18097773230E+04  0.18100696631E+04  0.10000000000E+01 0.  0.
    9000005    1    3    3    0    0  0.12956758191E+01 -0.51556714753E+02  0.37154697433E+03  0.37511055403E+03  0.10000000000E+01 0.  0.
          4    1    1    2  501    0 -0.22293115590E+02  0.26730640206E+02  0.43928451095E+02  0.56060965423E+02  0.12700000000E+01 0.  1.
<mgrwt>
<rscale>  1 0.12975705E+03</rscale>
<asrwt>0</asrwt>
<pdfrwt beam="2">  1       21 0.12298536E-02 0.12975705E+03</pdfrwt>
<pdfrwt beam="1">  1        4 0.34358372E+00 0.12975705E+03</pdfrwt>
<totfact> 0.23090863E+03</totfact>
</mgrwt>
</event>
<event>
 6    3  0.3813045E-003  0.1297324E+03  0.7818608E-02  0.1227853E+00
         -4   -1    0    0    0  501 -0.00000000000E+00  0.00000000000E+00  0.62557799676E+01  0.63833911836E+01  0.12700000000E+01 0. -1.
         21   -1    0    0  501  502  0.00000000000E+00 -0.00000000000E+00 -0.12529622530E+04  0.12529622530E+04  0.00000000000E+00 0. -1.
         25    2    1    2    0    0  0.33907634794E+02 -0.73285412826E+01 -0.72726217457E+03  0.73874269825E+03  0.12500827347E+03 0.  0.
    9000005    1    3    3    0    0 -0.22883552519E+02 -0.51811493483E+02 -0.27648625334E+03  0.28222993484E+03  0.10000000000E+01 0.  0.
    9000005    1    3    3    0    0  0.56791187313E+02  0.44482952200E+02 -0.45077592123E+03  0.45651276341E+03  0.10000000000E+01 0.  0.
         -4    1    1    2    0  502 -0.33907634794E+02  0.73285412826E+01 -0.51944429847E+03  0.52060294595E+03  0.12700000000E+01 0.  1.
<mgrwt>
<rscale>  1 0.12973243E+03</rscale>
<asrwt>0</asrwt>
<pdfrwt beam="2">  1       21 0.19276338E+00 0.12973243E+03</pdfrwt>
<pdfrwt beam="1">  1       -4 0.97229366E-03 0.12973243E+03</pdfrwt>
<totfact> 0.19133615E+04</totfact>
</mgrwt>
</event>
<event>
 6    3  0.3813045E-003  0.1274334E+03  0.7818608E-02  0.1231315E+00
         21   -1    0    0  501  502  0.00000000000E+00  0.00000000000E+00  0.16008901477E+03  0.16008901477E+03  0.00000000000E+00 0.  1.
          4   -1    0    0  502    0 -0.00000000000E+00 -0.00000000000E+00 -0.39679264496E+02  0.39699583511E+02  0.12700000000E+01 0.  1.
         25    2    1    2    0    0  0.22255769412E+02  0.10809520045E+02  0.74478693755E+02  0.14760201142E+03  0.12500845153E+03 0.  0.
    9000005    1    3    3    0    0  0.64328684328E+02 -0.26270669957E+02  0.28638443841E+02  0.75163077325E+02  0.10000000000E+01 0.  0.
    9000005    1    3    3    0    0 -0.42072914915E+02  0.37080190002E+02  0.45840249914E+02  0.72438934091E+02  0.10000000000E+01 0.  0.
          4    1    1    2  501    0 -0.22255769412E+02 -0.10809520045E+02  0.45931056517E+02  0.52186586864E+02  0.12700000000E+01 0. -1.
<mgrwt>
<rscale>  1 0.12743343E+03</rscale>
<asrwt>0</asrwt>
<pdfrwt beam="1">  1       21 0.24629079E-01 0.12743343E+03</pdfrwt>
<pdfrwt beam="2">  1        4 0.61064528E-02 0.12743343E+03</pdfrwt>
<totfact> 0.10768864E+05</totfact>
</mgrwt>
</event>
<event>
 6    3  0.3813045E-003  0.1280217E+03  0.7818608E-02  0.1230421E+00
          4   -1    0    0  502    0 -0.00000000000E+00  0.00000000000E+00  0.31884095124E+03  0.31884348055E+03  0.12700000000E+01 0. -1.
         21   -1    0    0  501  502  0.00000000000E+00 -0.00000000000E+00 -0.20004384314E+02  0.20004384314E+02  0.00000000000E+00 0. -1.
         25    2    1    2    0    0  0.43469053779E+01  0.27303619942E+02  0.27035265113E+03  0.29913225575E+03  0.12500066882E+03 0.  0.
    9000005    1    3    3    0    0 -0.50353125207E+02  0.37763398736E+02  0.86183689898E+02  0.10672459841E+03  0.10000000000E+01 0.  0.
    9000005    1    3    3    0    0  0.54700030585E+02 -0.10459778794E+02  0.18416896124E+03  0.19240765733E+03  0.10000000000E+01 0.  0.
          4    1    1    2  501    0 -0.43469053779E+01 -0.27303619942E+02  0.28483915795E+02  0.39715609114E+02  0.12700000000E+01 0.  1.
<mgrwt>
<rscale>  1 0.12802168E+03</rscale>
<asrwt>0</asrwt>
<pdfrwt beam="2">  1       21 0.30775978E-02 0.12802168E+03</pdfrwt>
<pdfrwt beam="1">  1        4 0.49055746E-01 0.12802168E+03</pdfrwt>
<totfact> 0.97458488E+04</totfact>
</mgrwt>
</event>
<event>
 6    3  0.3813045E-003  0.1267296E+03  0.7818608E-02  0.1232391E+00
         21   -1    0    0  501  502  0.00000000000E+00  0.00000000000E+00  0.21228226365E+02  0.21228226365E+02  0.00000000000E+00 0.  1.
          4   -1    0    0  502    0 -0.00000000000E+00 -0.00000000000E+00 -0.26378370053E+03  0.26378675775E+03  0.12700000000E+01 0.  1.
         25    2    1    2    0    0 -0.82060510744E+01  0.19184994565E+02 -0.18931066813E+03  0.22781336211E+03  0.12499998239E+03 0.  0.
    9000005    1    3    3    0    0 -0.81700233691E+01  0.70425710063E+02 -0.78846122244E+02  0.10603886510E+03  0.10000000000E+01 0.  0.
    9000005    1    3    3    0    0 -0.36027705268E-01 -0.51240715498E+02 -0.11046454589E+03  0.12177449700E+03  0.10000000000E+01 0.  0.
          4    1    1    2  501    0  0.82060510744E+01 -0.19184994565E+02 -0.53244806031E+02  0.57201622005E+02  0.12700000000E+01 0. -1.
<mgrwt>
<rscale>  1 0.12672963E+03</rscale>
<asrwt>0</asrwt>
<pdfrwt beam="1">  1       21 0.32658807E-02 0.12672963E+03</pdfrwt>
<pdfrwt beam="2">  1        4 0.40585268E-01 0.12672963E+03</pdfrwt>
<totfact> 0.12890266E+05</totfact>
</mgrwt>
</event>
<event>
 6    3  0.3813045E-003  0.1267508E+03  0.7818608E-02  0.1232358E+00
         21   -1    0    0  501  502  0.00000000000E+00  0.00000000000E+00  0.12682793553E+03  0.12682793553E+03  0.00000000000E+00 0. -1.
         -4   -1    0    0    0  501 -0.00000000000E+00 -0.00000000000E+00 -0.51397780667E+03  0.51397937570E+03  0.12700000000E+01 0.  1.
         25    2    1    2    0    0  0.20541152432E+02 -0.41917001199E+01 -0.50522333318E+03  0.52088039752E+03  0.12500505128E+03 0.  0.
    9000005    1    3    3    0    0 -0.21281652868E+02 -0.13785948771E+02 -0.16484483031E+02  0.30260524006E+02  0.10000000000E+01 0.  0.
    9000005    1    3    3    0    0  0.41822805300E+02  0.95942486510E+01 -0.48873885014E+03  0.49061987352E+03  0.10000000000E+01 0.  0.
         -4    1    1    2    0  502 -0.20541152432E+02  0.41917001199E+01  0.11807346204E+03  0.11992691371E+03  0.12700000000E+01 0. -1.
<mgrwt>
<rscale>  1 0.12675083E+03</rscale>
<asrwt>0</asrwt>
<pdfrwt beam="1">  1       21 0.19511990E-01 0.12675083E+03</pdfrwt>
<pdfrwt beam="2">  1       -4 0.79074117E-01 0.12675083E+03</pdfrwt>
<totfact> 0.14613914E+03</totfact>
</mgrwt>
</event>
<event>
 6    3  0.3813045E-003  0.1294099E+03  0.7818608E-02  0.1228334E+00
          4   -1    0    0  502    0 -0.00000000000E+00  0.00000000000E+00  0.19128193248E+02  0.19170307169E+02  0.12700000000E+01 0.  1.
         21   -1    0    0  501  502  0.00000000000E+00 -0.00000000000E+00 -0.55395530680E+03  0.55395530680E+03  0.00000000000E+00 0. -1.
         25    2    1    2    0    0  0.26271701571E+02 -0.20754573930E+02 -0.21067524262E+03  0.24724679758E+03  0.12500386561E+03 0.  0.
    9000005    1    3    3    0    0 -0.35297803174E+02 -0.17768630487E+02 -0.16719952627E+03  0.17180902399E+03  0.10000000000E+01 0.  0.
    9000005    1    3    3    0    0  0.61569504745E+02 -0.29859434424E+01 -0.43475716354E+02  0.75437773597E+02  0.10000000000E+01 0.  0.
          4    1    1    2  501    0 -0.26271701571E+02  0.20754573930E+02 -0.32415187092E+03  0.32587881638E+03  0.12700000000E+01 0. -1.
<mgrwt>
<rscale>  1 0.12940990E+03</rscale>
<asrwt>0</asrwt>
<pdfrwt beam="2">  1       21 0.85223899E-01 0.12940990E+03</pdfrwt>
<pdfrwt beam="1">  1        4 0.29461503E-02 0.12940990E+03</pdfrwt>
<totfact> 0.27054914E+04</totfact>
</mgrwt>
</event>
<event>
 6    3  0.3813045E-003  0.1302280E+03  0.7818608E-02  0.1227118E+00
         -4   -1    0    0    0  501 -0.00000000000E+00  0.00000000000E+00  0.75677501016E+02  0.75688156669E+02  0.12700000000E+01 0.  1.
         21   -1    0    0  501  502  0.00000000000E+00 -0.00000000000E+00 -0.30533284663E+03  0.30533284663E+03  0.00000000000E+00 0. -1.
         25    2    1    2    0    0  0.25235914256E+02  0.26425550959E+02  0.17301532304E+02  0.13137230300E+03  0.12499671141E+03 0.  0.
    9000005    1    3    3    0    0 -0.28668767754E+02  0.52167513796E+02  0.35001685084E+02  0.69061318398E+02  0.10000000000E+01 0.  0.
    9000005    1    3    3    0    0  0.53904682010E+02 -0.25741962837E+02 -0.17700152779E+02  0.62310984599E+02  0.10000000000E+01 0.  0.
         -4    1    1    2    0  502 -0.25235914256E+02 -0.26425550959E+02 -0.24695687792E+03  0.24964870030E+03  0.12700000000E+01 0. -1.
<mgrwt>
<rscale>  1 0.13022803E+03</rscale>
<asrwt>0</asrwt>
<pdfrwt beam="2">  1       21 0.46974285E-01 0.13022803E+03</pdfrwt>
<pdfrwt beam="1">  1       -4 0.11643715E-01 0.13022803E+03</pdfrwt>
<totfact> 0.10411521E+04</totfact>
</mgrwt>
</event>
<event>
 6    3  0.3813045E-003  0.1275127E+03  0.7818608E-02  0.1231194E+00
         21   -1    0    0  501  502  0.00000000000E+00  0.00000000000E+00  0.23205343795E+03  0.23205343795E+03  0.00000000000E+00 0. -1.
         -4   -1    0    0    0  501 -0.00000000000E+00 -0.00000000000E+00 -0.27061254799E+02  0.27091039317E+02  0.12700000000E+01 0. -1.
         25    2    1    2    0    0  0.14297740904E+02 -0.20703238920E+02  0.13961598620E+03  0.18908229399E+03  0.12500576308E+03 0.  0.
    9000005    1    3    3    0    0 -0.33768541048E+01 -0.41167815658E+02 -0.53044814286E+01  0.41657288833E+02  0.10000000000E+01 0.  0.
    9000005    1    3    3    0    0  0.17674595009E+02  0.20464576738E+02  0.14492046762E+03  0.14742500516E+03  0.10000000000E+01 0.  0.
         -4    1    1    2    0  502 -0.14297740904E+02  0.20703238920E+02  0.65376196956E+02  0.70062183274E+02  0.12700000000E+01 0.  1.
<mgrwt>
<rscale>  1 0.12751271E+03</rscale>
<asrwt>0</asrwt>
<pdfrwt beam="1">  1       21 0.35700528E-01 0.12751271E+03</pdfrwt>
<pdfrwt beam="2">  1       -4 0.41658286E-02 0.12751271E+03</pdfrwt>
<totfact> 0.97387974E+04</totfact>
</mgrwt>
</event>
<event>
 6    3  0.3813045E-003  0.1272475E+03  0.7818608E-02  0.1231598E+00
         21   -1    0    0  501  502  0.00000000000E+00  0.00000000000E+00  0.24688249876E+02  0.24688249876E+02  0.00000000000E+00 0.  1.
          4   -1    0    0  502    0 -0.00000000000E+00 -0.00000000000E+00 -0.25829733903E+03  0.25830046119E+03  0.12700000000E+01 0.  1.
         25    2    1    2    0    0 -0.23797244548E+02 -0.11248354986E+01 -0.22327390597E+03  0.25698865309E+03  0.12499742650E+03 0.  0.
    9000005    1    3    3    0    0 -0.29672789351E+02 -0.60595167454E+02 -0.11777502208E+03  0.13573578958E+03  0.10000000000E+01 0.  0.
    9000005    1    3    3    0    0  0.58755448028E+01  0.59470331955E+02 -0.10549888388E+03  0.12125286351E+03  0.10000000000E+01 0.  0.
          4    1    1    2  501    0  0.23797244548E+02  0.11248354986E+01 -0.10335183190E+02  0.26000057972E+02  0.12700000000E+01 0. -1.
<mgrwt>
<rscale>  1 0.12724752E+03</rscale>
<asrwt>0</asrwt>
<pdfrwt beam="1">  1       21 0.37981923E-02 0.12724752E+03</pdfrwt>
<pdfrwt beam="2">  1        4 0.39740805E-01 0.12724752E+03</pdfrwt>
<totfact> 0.10476704E+05</totfact>
</mgrwt>
</event>
<event>
 6    3  0.3813045E-003  0.1487374E+03  0.7818608E-02  0.1202033E+00
         21   -1    0    0  501  502  0.00000000000E+00  0.00000000000E+00  0.63013302467E+02  0.63013302467E+02  0.00000000000E+00 0.  1.
          4   -1    0    0  502    0 -0.00000000000E+00 -0.00000000000E+00 -0.11341542030E+04  0.11341549140E+04  0.12700000000E+01 0. -1.
         25    2    1    2    0    0  0.37490570461E+02  0.71359514922E+02 -0.11011468149E+04  0.11111467596E+04  0.12500036057E+03 0.  0.
    9000005    1    3    3    0    0 -0.28392085920E+02  0.41306027076E+01 -0.63186097821E+03  0.63251282059E+03  0.10000000000E+01 0.  0.
    9000005    1    3    3    0    0  0.65882656381E+02  0.67228912214E+02 -0.46928583670E+03  0.47863393901E+03  0.10000000000E+01 0.  0.
          4    1    1    2  501    0 -0.37490570461E+02 -0.71359514922E+02  0.30005914422E+02  0.86021456879E+02  0.12700000000E+01 0.  1.
<mgrwt>
<rscale>  1 0.14873740E+03</rscale>
<asrwt>0</asrwt>
<pdfrwt beam="1">  1       21 0.96943544E-02 0.14873740E+03</pdfrwt>
<pdfrwt beam="2">  1        4 0.17448630E+00 0.14873740E+03</pdfrwt>
<totfact> 0.76568974E+02</totfact>
</mgrwt>
</event>
<event>
 6    3  0.3813045E-003  0.1285266E+03  0.7818608E-02  0.1229658E+00
         -4   -1    0    0    0  501 -0.00000000000E+00  0.00000000000E+00  0.53659135662E+02  0.53674162685E+02  0.12700000000E+01 0. -1.
         21   -1    0    0  501  502  0.00000000000E+00 -0.00000000000E+00 -0.22724081755E+03  0.22724081755E+03  0.00000000000E+00 0.  1.
         25    2    1    2    0    0  0.59251966210E+01 -0.29329138434E+02 -0.27034733135E+02  0.13133915530E+03  0.12499516232E+03 0.  0.
    9000005    1    3    3    0    0 -0.49562149885E+02 -0.38958753704E+02 -0.38477772151E+02  0.73862914518E+02  0.10000000000E+01 0.  0.
    9000005    1    3    3    0    0  0.55487346506E+02  0.96296152695E+01  0.11443039016E+02  0.57476240782E+02  0.10000000000E+01 0.  0.
         -4    1    1    2    0  502 -0.59251966210E+01  0.29329138434E+02 -0.14654694875E+03  0.14957582494E+03  0.12700000000E+01 0.  1.
<mgrwt>
<rscale>  1 0.12852664E+03</rscale>
<asrwt>0</asrwt>
<pdfrwt beam="2">  1       21 0.34960126E-01 0.12852664E+03</pdfrwt>
<pdfrwt beam="1">  1       -4 0.82566805E-02 0.12852664E+03</pdfrwt>
<totfact> 0.33489201E+04</totfact>
</mgrwt>
</event>
<event>
 6    3  0.3813045E-003  0.1380430E+03  0.7818608E-02  0.1215987E+00
         -4   -1    0    0    0  501 -0.00000000000E+00  0.00000000000E+00  0.47953820344E+02  0.47970634617E+02  0.12700000000E+01 0. -1.
         21   -1    0    0  501  502  0.00000000000E+00 -0.00000000000E+00 -0.24527536815E+03  0.24527536815E+03  0.00000000000E+00 0. -1.
         25    2    1    2    0    0  0.58197408686E+02 -0.65580842377E+01 -0.73786965122E+02  0.15652602301E+03  0.12500373118E+03 0.  0.
    9000005    1    3    3    0    0  0.48666152442E+02 -0.50427456998E+02  0.72122173419E-01  0.70088001929E+02  0.10000000000E+01 0.  0.
    9000005    1    3    3    0    0  0.95312562441E+01  0.43869372760E+02 -0.73859087295E+02  0.86438021079E+02  0.10000000000E+01 0.  0.
         -4    1    1    2    0  502 -0.58197408686E+02  0.65580842377E+01 -0.12353458268E+03  0.13671997976E+03  0.12700000000E+01 0.  1.
<mgrwt>
<rscale>  1 0.13804304E+03</rscale>
<asrwt>0</asrwt>
<pdfrwt beam="2">  1       21 0.37734673E-01 0.13804304E+03</pdfrwt>
<pdfrwt beam="1">  1       -4 0.73790570E-02 0.13804304E+03</pdfrwt>
<totfact> 0.34936510E+04</totfact>
</mgrwt>
</event>
<event>
 6    3  0.3813045E-003  0.1291191E+03  0.7818608E-02  0.1228769E+00
         21   -1    0    0  501  502  0.00000000000E+00  0.00000000000E+00  0.12157675905E+02  0.12157675905E+02  0.00000000000E+00 0.  1.
         -4   -1    0    0    0  501 -0.00000000000E+00 -0.00000000000E+00 -0.53760862995E+03  0.53761013001E+03  0.12700000000E+01 0.  1.
         25    2    1    2    0    0  0.19602538376E+01  0.32230784319E+02 -0.40721358236E+03  0.42719393017E+03  0.12501634399E+03 0.  0.
    9000005    1    3    3    0    0  0.29588390818E+02 -0.45563953153E+01 -0.36007183555E+03  0.36131559663E+03  0.10000000000E+01 0.  0.
    9000005    1    3    3    0    0 -0.27628136980E+02  0.36787179634E+02 -0.47141746807E+02  0.65878333543E+02  0.10000000000E+01 0.  0.
         -4    1    1    2    0  502 -0.19602538376E+01 -0.32230784319E+02 -0.11823737168E+03  0.12257387575E+03  0.12700000000E+01 0. -1.
<mgrwt>
<rscale>  1 0.12911914E+03</rscale>
<asrwt>0</asrwt>
<pdfrwt beam="1">  1       21 0.18704115E-02 0.12911914E+03</pdfrwt>
<pdfrwt beam="2">  1       -4 0.82714244E-01 0.12911914E+03</pdfrwt>
<totfact> 0.72364303E+04</totfact>
</mgrwt>
</event>
<event>
 6    3  0.3813045E-003  0.1289614E+03  0.7818608E-02  0.1229005E+00
         21   -1    0    0  501  502  0.00000000000E+00  0.00000000000E+00  0.45405134670E+02  0.45405134670E+02  0.00000000000E+00 0.  1.
         -4   -1    0    0    0  501 -0.00000000000E+00 -0.00000000000E+00 -0.15659356261E+03  0.15659871248E+03  0.12700000000E+01 0. -1.
         25    2    1    2    0    0  0.71907788063E+01  0.30888719495E+02 -0.11116971053E+03  0.17026375355E+03  0.12500088376E+03 0.  0.
    9000005    1    3    3    0    0  0.10231294759E+02  0.71465173649E+02 -0.27576520030E+02  0.77287870291E+02  0.10000000000E+01 0.  0.
    9000005    1    3    3    0    0 -0.30405159532E+01 -0.40576454154E+02 -0.83593190500E+02  0.92975883254E+02  0.10000000000E+01 0.  0.
         -4    1    1    2    0  502 -0.71907788063E+01 -0.30888719495E+02 -0.18717411787E-01  0.31740093608E+02  0.12700000000E+01 0.  1.
<mgrwt>
<rscale>  1 0.12896139E+03</rscale>
<asrwt>0</asrwt>
<pdfrwt beam="1">  1       21 0.69854054E-02 0.12896139E+03</pdfrwt>
<pdfrwt beam="2">  1       -4 0.24093079E-01 0.12896139E+03</pdfrwt>
<totfact> 0.97306486E+04</totfact>
</mgrwt>
</event>
<event>
 6    3  0.3813045E-003  0.1423455E+03  0.7818608E-02  0.1210207E+00
         21   -1    0    0  501  502  0.00000000000E+00  0.00000000000E+00  0.15559195507E+02  0.15559195507E+02  0.00000000000E+00 0. -1.
          4   -1    0    0  502    0 -0.00000000000E+00 -0.00000000000E+00 -0.14838971053E+04  0.14838976488E+04  0.12700000000E+01 0.  1.
         25    2    1    2    0    0 -0.41487458285E+02  0.54054225268E+02 -0.13827123099E+04  0.13900199916E+04  0.12497670448E+03 0.  0.
    9000005    1    3    3    0    0 -0.44018447276E+02  0.90941856894E+02 -0.11447243842E+04  0.11491749043E+04  0.10000000000E+01 0.  0.
    9000005    1    3    3    0    0  0.25309889906E+01 -0.36887631626E+02 -0.23798792574E+03  0.24084508728E+03  0.10000000000E+01 0.  0.
          4    1    1    2  501    0  0.41487458285E+02 -0.54054225268E+02 -0.85625599895E+02  0.10943685267E+03  0.12700000000E+01 0. -1.
<mgrwt>
<rscale>  1 0.14234551E+03</rscale>
<asrwt>0</asrwt>
<pdfrwt beam="1">  1       21 0.23937220E-02 0.14234551E+03</pdfrwt>
<pdfrwt beam="2">  1        4 0.22829593E+00 0.14234551E+03</pdfrwt>
<totfact> 0.37216321E+03</totfact>
</mgrwt>
</event>
<event>
 6    3  0.3813045E-003  0.1276852E+03  0.7818608E-02  0.1230931E+00
          4   -1    0    0  502    0 -0.00000000000E+00  0.00000000000E+00  0.32376445312E+03  0.32376694396E+03  0.12700000000E+01 0.  1.
         21   -1    0    0  501  502  0.00000000000E+00 -0.00000000000E+00 -0.53186070932E+02  0.53186070932E+02  0.00000000000E+00 0.  1.
         25    2    1    2    0    0 -0.25550317427E+02 -0.48325288246E+01  0.30682086608E+03  0.33232900124E+03  0.12500939624E+03 0.  0.
    9000005    1    3    3    0    0 -0.48008287482E+02  0.17049276308E+02  0.43071694338E+02  0.66720644052E+02  0.10000000000E+01 0.  0.
    9000005    1    3    3    0    0  0.22457970055E+02 -0.21881805132E+02  0.26374917174E+03  0.26560835719E+03  0.10000000000E+01 0.  0.
          4    1    1    2  501    0  0.25550317427E+02  0.48325288246E+01 -0.36242483894E+02  0.44624013651E+02  0.12700000000E+01 0. -1.
<mgrwt>
<rscale>  1 0.12768524E+03</rscale>
<asrwt>0</asrwt>
<pdfrwt beam="2">  1       21 0.81824727E-02 0.12768524E+03</pdfrwt>
<pdfrwt beam="1">  1        4 0.49811273E-01 0.12768524E+03</pdfrwt>
<totfact> 0.18254027E+04</totfact>
</mgrwt>
</event>
<event>
 6    3  0.3813045E-003  0.1273595E+03  0.7818608E-02  0.1231427E+00
         21   -1    0    0  501  502  0.00000000000E+00  0.00000000000E+00  0.66740471859E+02  0.66740471859E+02  0.00000000000E+00 0.  1.
         -4   -1    0    0    0  501 -0.00000000000E+00 -0.00000000000E+00 -0.14285189769E+03  0.14285754294E+03  0.12700000000E+01 0. -1.
         25    2    1    2    0    0  0.14848828884E+02 -0.19413697453E+02 -0.10966424624E+03  0.16806749560E+03  0.12499222698E+03 0.  0.
    9000005    1    3    3    0    0  0.41459385748E+02  0.67669343773E+01 -0.12176563376E+03  0.12881203993E+03  0.10000000000E+01 0.  0.
    9000005    1    3    3    0    0 -0.26610556864E+02 -0.26180631830E+02  0.12101387515E+02  0.39255455664E+02  0.10000000000E+01 0.  0.
         -4    1    1    2    0  502 -0.14848828884E+02  0.19413697453E+02  0.33552820406E+02  0.41530519202E+02  0.12700000000E+01 0.  1.
<mgrwt>
<rscale>  1 0.12735948E+03</rscale>
<asrwt>0</asrwt>
<pdfrwt beam="1">  1       21 0.10267765E-01 0.12735948E+03</pdfrwt>
<pdfrwt beam="2">  1       -4 0.21978579E-01 0.12735948E+03</pdfrwt>
<totfact> 0.58987125E+04</totfact>
</mgrwt>
</event>
<event>
 6    3  0.3813045E-003  0.1355407E+03  0.7818608E-02  0.1219458E+00
          4   -1    0    0  502    0 -0.00000000000E+00  0.00000000000E+00  0.26033321314E+03  0.26033631089E+03  0.12700000000E+01 0.  1.
         21   -1    0    0  501  502  0.00000000000E+00 -0.00000000000E+00 -0.13408243861E+03  0.13408243861E+03  0.00000000000E+00 0. -1.
         25    2    1    2    0    0  0.35663010333E+02  0.38393648238E+02  0.23636247255E+03  0.27246744170E+03  0.12500146330E+03 0.  0.
    9000005    1    3    3    0    0  0.77760176802E+02  0.23669695844E+02  0.99305124421E+02  0.12833318875E+03  0.10000000000E+01 0.  0.
    9000005    1    3    3    0    0 -0.42097166469E+02  0.14723952394E+02  0.13705734813E+03  0.14413425296E+03  0.10000000000E+01 0.  0.
          4    1    1    2  501    0 -0.35663010333E+02 -0.38393648238E+02 -0.11011169802E+03  0.12195130779E+03  0.12700000000E+01 0. -1.
<mgrwt>
<rscale>  1 0.13554073E+03</rscale>
<asrwt>0</asrwt>
<pdfrwt beam="2">  1       21 0.20628067E-01 0.13554073E+03</pdfrwt>
<pdfrwt beam="1">  1        4 0.40051964E-01 0.13554073E+03</pdfrwt>
<totfact> 0.54436946E+03</totfact>
</mgrwt>
</event>
<event>
 6    3  0.3813045E-003  0.1265954E+03  0.7818608E-02  0.1232597E+00
         -4   -1    0    0    0  501 -0.00000000000E+00  0.00000000000E+00  0.25662477704E+04  0.25662480846E+04  0.12700000000E+01 0.  1.
         21   -1    0    0  501  502  0.00000000000E+00 -0.00000000000E+00 -0.25178708813E+01  0.25178708813E+01  0.00000000000E+00 0.  1.
         25    2    1    2    0    0 -0.16421345960E+02  0.11486937603E+02  0.24506027751E+04  0.24538704834E+04  0.12499911043E+03 0.  0.
    9000005    1    3    3    0    0  0.36648917780E+02 -0.36976563499E+02  0.12841894697E+04  0.12852447251E+04  0.10000000000E+01 0.  0.
    9000005    1    3    3    0    0 -0.53070263740E+02  0.48463501102E+02  0.11664133054E+04  0.11686257583E+04  0.10000000000E+01 0.  0.
         -4    1    1    2    0  502  0.16421345960E+02 -0.11486937603E+02  0.11312712437E+03  0.11489547209E+03  0.12700000000E+01 0. -1.
<mgrwt>
<rscale>  1 0.12659537E+03</rscale>
<asrwt>0</asrwt>
<pdfrwt beam="2">  1       21 0.38736680E-03 0.12659537E+03</pdfrwt>
<pdfrwt beam="1">  1       -4 0.39482992E+00 0.12659537E+03</pdfrwt>
<totfact> 0.66843766E+03</totfact>
</mgrwt>
</event>
<event>
 6    3  0.3813045E-003  0.1272831E+03  0.7818608E-02  0.1231544E+00
         -4   -1    0    0    0  501 -0.00000000000E+00  0.00000000000E+00  0.62579584788E+03  0.62579713656E+03  0.12700000000E+01 0. -1.
         21   -1    0    0  501  502  0.00000000000E+00 -0.00000000000E+00 -0.94359514766E+01  0.94359514766E+01  0.00000000000E+00 0. -1.
         25    2    1    2    0    0  0.23293930720E+02  0.57838650244E+01  0.55321241506E+03  0.56766624999E+03  0.12499973960E+03 0.  0.
    9000005    1    3    3    0    0  0.51820125451E+02  0.55142571134E+01  0.52483165403E+03  0.52741349766E+03  0.10000000000E+01 0.  0.
    9000005    1    3    3    0    0 -0.28526194731E+02  0.26960791107E+00  0.28380761025E+02  0.40252752336E+02  0.10000000000E+01 0.  0.
         -4    1    1    2    0  502 -0.23293930720E+02 -0.57838650244E+01  0.63147481346E+02  0.67566838045E+02  0.12700000000E+01 0.  1.
<mgrwt>
<rscale>  1 0.12728313E+03</rscale>
<asrwt>0</asrwt>
<pdfrwt beam="2">  1       21 0.14516853E-02 0.12728313E+03</pdfrwt>
<pdfrwt beam="1">  1       -4 0.96282925E-01 0.12728313E+03</pdfrwt>
<totfact> 0.76965678E+04</totfact>
</mgrwt>
</event>
<event>
 6    3  0.3813045E-003  0.1272750E+03  0.7818608E-02  0.1231556E+00
         21   -1    0    0  501  502  0.00000000000E+00  0.00000000000E+00  0.26919039081E+01  0.26919039081E+01  0.00000000000E+00 0. -1.
         -4   -1    0    0    0  501 -0.00000000000E+00 -0.00000000000E+00 -0.21300332696E+04  0.21300336482E+04  0.12700000000E+01 0. -1.
         25    2    1    2    0    0 -0.19207604526E+02  0.14316705865E+02 -0.18266994057E+04  0.18311279706E+04  0.12500010391E+03 0.  0.
    9000005    1    3    3    0    0  0.29074705233E+02 -0.17043116628E+02 -0.16390952954E+03  0.16734138813E+03  0.10000000000E+01 0.  0.
    9000005    1    3    3    0    0 -0.48282309759E+02  0.31359822493E+02 -0.16627898761E+04  0.16637865825E+04  0.10000000000E+01 0.  0.
         -4    1    1    2    0  502  0.19207604526E+02 -0.14316705865E+02 -0.30064196004E+03  0.30159758151E+03  0.12700000000E+01 0.  1.
<mgrwt>
<rscale>  1 0.12727500E+03</rscale>
<asrwt>0</asrwt>
<pdfrwt beam="1">  1       21 0.41413919E-03 0.12727500E+03</pdfrwt>
<pdfrwt beam="2">  1       -4 0.32772040E+00 0.12727500E+03</pdfrwt>
<totfact> 0.15680056E+04</totfact>
</mgrwt>
</event>
<event>
 6    3  0.3813045E-003  0.1472659E+03  0.7818608E-02  0.1203873E+00
         21   -1    0    0  501  502  0.00000000000E+00  0.00000000000E+00  0.25809632260E+03  0.25809632260E+03  0.00000000000E+00 0.  1.
         -4   -1    0    0    0  501 -0.00000000000E+00 -0.00000000000E+00 -0.10751047169E+03  0.10751797256E+03  0.12700000000E+01 0. -1.
         25    2    1    2    0    0  0.24897691912E+02 -0.73771494560E+02 -0.45905907199E+02  0.15425499829E+03  0.12500049483E+03 0.  0.
    9000005    1    3    3    0    0 -0.94915910871E+01 -0.92634044037E+01  0.39589108470E+02  0.41763602238E+02  0.10000000000E+01 0.  0.
    9000005    1    3    3    0    0  0.34389282999E+02 -0.64508090157E+02 -0.85495015669E+02  0.11249139605E+03  0.10000000000E+01 0.  0.
         -4    1    1    2    0  502 -0.24897691912E+02  0.73771494560E+02  0.19649175811E+03  0.21135929688E+03  0.12700000000E+01 0.  1.
<mgrwt>
<rscale>  1 0.14726592E+03</rscale>
<asrwt>0</asrwt>
<pdfrwt beam="1">  1       21 0.39707126E-01 0.14726592E+03</pdfrwt>
<pdfrwt beam="2">  1       -4 0.16540890E-01 0.14726592E+03</pdfrwt>
<totfact> 0.80286793E+03</totfact>
</mgrwt>
</event>
<event>
 6    3  0.3813045E-003  0.1269333E+03  0.7818608E-02  0.1232078E+00
          4   -1    0    0  502    0 -0.00000000000E+00  0.00000000000E+00  0.22338779772E+03  0.22339140778E+03  0.12700000000E+01 0.  1.
         21   -1    0    0  501  502  0.00000000000E+00 -0.00000000000E+00 -0.10709146789E+03  0.10709146789E+03  0.00000000000E+00 0. -1.
         25    2    1    2    0    0  0.16207051395E+02 -0.14912749609E+02  0.20387935811E+03  0.24016422667E+03  0.12500801771E+03 0.  0.
    9000005    1    3    3    0    0  0.30584188823E+02 -0.44052882295E+02  0.26494146945E+02  0.59824650996E+02  0.10000000000E+01 0.  0.
    9000005    1    3    3    0    0 -0.14377137428E+02  0.29140132686E+02  0.17738521117E+03  0.18033957567E+03  0.10000000000E+01 0.  0.
          4    1    1    2  501    0 -0.16207051395E+02  0.14912749609E+02 -0.87583028276E+02  0.90318649004E+02  0.12700000000E+01 0. -1.
<mgrwt>
<rscale>  1 0.12693330E+03</rscale>
<asrwt>0</asrwt>
<pdfrwt beam="2">  1       21 0.16475610E-01 0.12693330E+03</pdfrwt>
<pdfrwt beam="1">  1        4 0.34368210E-01 0.12693330E+03</pdfrwt>
<totfact> 0.11017117E+04</totfact>
</mgrwt>
</event>
<event>
 6    3  0.3813045E-003  0.1286358E+03  0.7818608E-02  0.1229494E+00
          4   -1    0    0  502    0 -0.00000000000E+00  0.00000000000E+00  0.16853592370E+03  0.16854070867E+03  0.12700000000E+01 0.  1.
         21   -1    0    0  501  502  0.00000000000E+00 -0.00000000000E+00 -0.37943539211E+02  0.37943539211E+02  0.00000000000E+00 0.  1.
         25    2    1    2    0    0  0.29295891814E+02 -0.79920134226E+01  0.11386732076E+03  0.17179329498E+03  0.12500019164E+03 0.  0.
    9000005    1    3    3    0    0 -0.25786710556E+02  0.31121620537E+02  0.92469464787E+02  0.10092131402E+03  0.10000000000E+01 0.  0.
    9000005    1    3    3    0    0  0.55082602370E+02 -0.39113633959E+02  0.21397855972E+02  0.70871980962E+02  0.10000000000E+01 0.  0.
          4    1    1    2  501    0 -0.29295891814E+02  0.79920134226E+01  0.16725063732E+02  0.34690952892E+02  0.12700000000E+01 0. -1.
<mgrwt>
<rscale>  1 0.12863580E+03</rscale>
<asrwt>0</asrwt>
<pdfrwt beam="2">  1       21 0.58374677E-02 0.12863580E+03</pdfrwt>
<pdfrwt beam="1">  1        4 0.25930606E-01 0.12863580E+03</pdfrwt>
<totfact> 0.11529000E+05</totfact>
</mgrwt>
</event>
<event>
 6    3  0.3813045E-003  0.1303883E+03  0.7818608E-02  0.1226881E+00
         -4   -1    0    0    0  501 -0.00000000000E+00  0.00000000000E+00  0.11724142527E+03  0.11724830361E+03  0.12700000000E+01 0.  1.
         21   -1    0    0  501  502  0.00000000000E+00 -0.00000000000E+00 -0.64625136377E+02  0.64625136377E+02  0.00000000000E+00 0.  1.
         25    2    1    2    0    0 -0.26834625330E+02  0.25548900326E+02  0.18880749980E+02  0.13174816782E+03  0.12501301364E+03 0.  0.
    9000005    1    3    3    0    0 -0.15539586296E+02  0.59187688361E+02  0.54142105731E+02  0.81713088356E+02  0.10000000000E+01 0.  0.
    9000005    1    3    3    0    0 -0.11295039034E+02 -0.33638788035E+02 -0.35261355750E+02  0.50035079460E+02  0.10000000000E+01 0.  0.
         -4    1    1    2    0  502  0.26834625330E+02 -0.25548900326E+02  0.33735538911E+02  0.50125272170E+02  0.12700000000E+01 0. -1.
<mgrwt>
<rscale>  1 0.13038825E+03</rscale>
<asrwt>0</asrwt>
<pdfrwt beam="2">  1       21 0.99423287E-02 0.13038825E+03</pdfrwt>
<pdfrwt beam="1">  1       -4 0.18038631E-01 0.13038825E+03</pdfrwt>
<totfact> 0.89278184E+04</totfact>
</mgrwt>
</event>
<event>
 6    3  0.3813045E-003  0.1270362E+03  0.7818608E-02  0.1231921E+00
         -4   -1    0    0    0  501 -0.00000000000E+00  0.00000000000E+00  0.39256823264E+03  0.39257028693E+03  0.12700000000E+01 0.  1.
         21   -1    0    0  501  502  0.00000000000E+00 -0.00000000000E+00 -0.31245743776E+02  0.31245743776E+02  0.00000000000E+00 0. -1.
         25    2    1    2    0    0  0.44092474222E+01  0.22222077746E+02  0.37594046386E+03  0.39682417462E+03  0.12499972398E+03 0.  0.
    9000005    1    3    3    0    0 -0.93609556379E+01  0.70741803582E+02  0.16210211083E+03  0.17711613309E+03  0.10000000000E+01 0.  0.
    9000005    1    3    3    0    0  0.13770203060E+02 -0.48519725837E+02  0.21383835303E+03  0.21970804153E+03  0.10000000000E+01 0.  0.
         -4    1    1    2    0  502 -0.44092474222E+01 -0.22222077746E+02 -0.14617974991E+02  0.26991856087E+02  0.12700000000E+01 0. -1.
<mgrwt>
<rscale>  1 0.12703619E+03</rscale>
<asrwt>0</asrwt>
<pdfrwt beam="2">  1       21 0.48070378E-02 0.12703619E+03</pdfrwt>
<pdfrwt beam="1">  1       -4 0.60397252E-01 0.12703619E+03</pdfrwt>
<totfact> 0.30262541E+04</totfact>
</mgrwt>
</event>
<event>
 6    3  0.3813045E-003  0.1325357E+03  0.7818608E-02  0.1223741E+00
         21   -1    0    0  501  502  0.00000000000E+00  0.00000000000E+00  0.68485455054E+02  0.68485455054E+02  0.00000000000E+00 0.  1.
         -4   -1    0    0    0  501 -0.00000000000E+00 -0.00000000000E+00 -0.11817668139E+03  0.11818350530E+03  0.12700000000E+01 0. -1.
         25    2    1    2    0    0  0.34850438519E+02  0.26955635972E+02 -0.52377956735E+02  0.14251026024E+03  0.12499825817E+03 0.  0.
    9000005    1    3    3    0    0  0.22487507496E+02  0.64609567749E+02  0.94459004993E+01  0.69067425566E+02  0.10000000000E+01 0.  0.
    9000005    1    3    3    0    0  0.12362931023E+02 -0.37653931777E+02 -0.61823857234E+02  0.73442834675E+02  0.10000000000E+01 0.  0.
         -4    1    1    2    0  502 -0.34850438519E+02 -0.26955635972E+02  0.26867303951E+01  0.44158700115E+02  0.12700000000E+01 0.  1.
<mgrwt>
<rscale>  1 0.13253575E+03</rscale>
<asrwt>0</asrwt>
<pdfrwt beam="1">  1       21 0.10536224E-01 0.13253575E+03</pdfrwt>
<pdfrwt beam="2">  1       -4 0.18182458E-01 0.13253575E+03</pdfrwt>
<totfact> 0.79694753E+04</totfact>
</mgrwt>
</event>
<event>
 6    3  0.3813045E-003  0.1384017E+03  0.7818608E-02  0.1215496E+00
         -4   -1    0    0    0  501 -0.00000000000E+00  0.00000000000E+00  0.12281190871E+04  0.12281197437E+04  0.12700000000E+01 0. -1.
         21   -1    0    0  501  502  0.00000000000E+00 -0.00000000000E+00 -0.14378363569E+02  0.14378363569E+02  0.00000000000E+00 0.  1.
         25    2    1    2    0    0  0.23164599870E+02 -0.54715559369E+02  0.11372124522E+04  0.11456034205E+04  0.12499857782E+03 0.  0.
    9000005    1    3    3    0    0  0.19903838876E+02 -0.63037604641E+02  0.11341900919E+04  0.11361153405E+04  0.10000000000E+01 0.  0.
    9000005    1    3    3    0    0  0.32607609944E+01  0.83220452726E+01  0.30223603156E+01  0.94880799775E+01  0.10000000000E+01 0.  0.
         -4    1    1    2    0  502 -0.23164599870E+02  0.54715559369E+02  0.76528271302E+02  0.96894686813E+02  0.12700000000E+01 0.  1.
<mgrwt>
<rscale>  1 0.13840172E+03</rscale>
<asrwt>0</asrwt>
<pdfrwt beam="2">  1       21 0.22120569E-02 0.13840172E+03</pdfrwt>
<pdfrwt beam="1">  1       -4 0.18894568E+00 0.13840172E+03</pdfrwt>
<totfact> 0.73512216E+03</totfact>
</mgrwt>
</event>
<event>
 6    3  0.3813045E-003  0.1580267E+03  0.7818608E-02  0.1190943E+00
          4   -1    0    0  502    0 -0.00000000000E+00  0.00000000000E+00  0.30917960650E+02  0.30944033201E+02  0.12700000000E+01 0. -1.
         21   -1    0    0  501  502  0.00000000000E+00 -0.00000000000E+00 -0.80675930381E+03  0.80675930381E+03  0.00000000000E+00 0.  1.
         25    2    1    2    0    0 -0.64040873955E+02  0.72432792111E+02 -0.20555713162E+03  0.25928010291E+03  0.12499877799E+03 0.  0.
    9000005    1    3    3    0    0 -0.25853271898E+02  0.86570037738E+02 -0.19828859516E+03  0.21790394689E+03  0.10000000000E+01 0.  0.
    9000005    1    3    3    0    0 -0.38187602057E+02 -0.14137245626E+02 -0.72685364600E+01  0.41376156021E+02  0.10000000000E+01 0.  0.
          4    1    1    2  501    0  0.64040873955E+02 -0.72432792111E+02 -0.57028421154E+03  0.57842323410E+03  0.12700000000E+01 0.  1.
<mgrwt>
<rscale>  1 0.15802670E+03</rscale>
<asrwt>0</asrwt>
<pdfrwt beam="2">  1       21 0.12411682E+00 0.15802670E+03</pdfrwt>
<pdfrwt beam="1">  1        4 0.47586916E-02 0.15802670E+03</pdfrwt>
<totfact> 0.52649140E+03</totfact>
</mgrwt>
</event>
<event>
 6    3  0.3813045E-003  0.1356169E+03  0.7818608E-02  0.1219351E+00
         21   -1    0    0  501  502  0.00000000000E+00  0.00000000000E+00  0.27009176904E+03  0.27009176904E+03  0.00000000000E+00 0. -1.
          4   -1    0    0  502    0 -0.00000000000E+00 -0.00000000000E+00 -0.38412462552E+02  0.38433451306E+02  0.12700000000E+01 0.  1.
         25    2    1    2    0    0  0.48071376238E+02  0.21364780900E+02  0.10552234672E+03  0.17183395334E+03  0.12499852315E+03 0.  0.
    9000005    1    3    3    0    0  0.24403303078E+02 -0.92853045775E+01 -0.24709784831E+02  0.35962641012E+02  0.10000000000E+01 0.  0.
    9000005    1    3    3    0    0  0.23668073160E+02  0.30650085477E+02  0.13023213155E+03  0.13587131233E+03  0.10000000000E+01 0.  0.
          4    1    1    2  501    0 -0.48071376238E+02 -0.21364780900E+02  0.12615695977E+03  0.13669126701E+03  0.12700000000E+01 0. -1.
<mgrwt>
<rscale>  1 0.13561689E+03</rscale>
<asrwt>0</asrwt>
<pdfrwt beam="1">  1       21 0.41552579E-01 0.13561689E+03</pdfrwt>
<pdfrwt beam="2">  1        4 0.59114540E-02 0.13561689E+03</pdfrwt>
<totfact> 0.41336397E+04</totfact>
</mgrwt>
</event>
<event>
 6    3  0.3813045E-003  0.1295337E+03  0.7818608E-02  0.1228149E+00
         21   -1    0    0  501  502  0.00000000000E+00  0.00000000000E+00  0.11586353316E+03  0.11586353316E+03  0.00000000000E+00 0. -1.
          4   -1    0    0  502    0 -0.00000000000E+00 -0.00000000000E+00 -0.10665317772E+03  0.10666073888E+03  0.12700000000E+01 0. -1.
         25    2    1    2    0    0 -0.33768844712E+02 -0.36822798391E+01 -0.62007145030E+02  0.14361014573E+03  0.12500037546E+03 0.  0.
    9000005    1    3    3    0    0 -0.78650347828E+02 -0.13363392337E+02 -0.55587398091E+02  0.97238964900E+02  0.10000000000E+01 0.  0.
    9000005    1    3    3    0    0  0.44881503115E+02  0.96811124975E+01 -0.64197469387E+01  0.46371180833E+02  0.10000000000E+01 0.  0.
          4    1    1    2  501    0  0.33768844712E+02  0.36822798391E+01  0.71217500472E+02  0.78914126311E+02  0.12700000000E+01 0.  1.
<mgrwt>
<rscale>  1 0.12953373E+03</rscale>
<asrwt>0</asrwt>
<pdfrwt beam="1">  1       21 0.17825159E-01 0.12953373E+03</pdfrwt>
<pdfrwt beam="2">  1        4 0.16409298E-01 0.12953373E+03</pdfrwt>
<totfact> 0.37151972E+04</totfact>
</mgrwt>
</event>
<event>
 6    3  0.3813045E-003  0.1367387E+03  0.7818608E-02  0.1217786E+00
         21   -1    0    0  501  502  0.00000000000E+00  0.00000000000E+00  0.15124505058E+02  0.15124505058E+02  0.00000000000E+00 0. -1.
          4   -1    0    0  502    0 -0.00000000000E+00 -0.00000000000E+00 -0.87114952367E+03  0.87115044940E+03  0.12700000000E+01 0.  1.
         25    2    1    2    0    0 -0.33609061662E+02  0.44061365566E+02 -0.78162726633E+03  0.79349774063E+03  0.12500603167E+03 0.  0.
    9000005    1    3    3    0    0  0.92935880213E+01  0.53874819446E+01 -0.11101386374E+01  0.10845651101E+02  0.10000000000E+01 0.  0.
    9000005    1    3    3    0    0 -0.42902649683E+02  0.38673883621E+02 -0.78051712769E+03  0.78265208953E+03  0.10000000000E+01 0.  0.
          4    1    1    2  501    0  0.33609061662E+02 -0.44061365566E+02 -0.74397752288E+02  0.92777213834E+02  0.12700000000E+01 0. -1.
<mgrwt>
<rscale>  1 0.13673873E+03</rscale>
<asrwt>0</asrwt>
<pdfrwt beam="1">  1       21 0.23268471E-02 0.13673873E+03</pdfrwt>
<pdfrwt beam="2">  1        4 0.13402717E+00 0.13673873E+03</pdfrwt>
<totfact> 0.16566486E+04</totfact>
</mgrwt>
</event>
<event>
 6    3  0.3813045E-003  0.1270198E+03  0.7818608E-02  0.1231946E+00
         -4   -1    0    0    0  501 -0.00000000000E+00  0.00000000000E+00  0.74205996942E+03  0.74206105619E+03  0.12700000000E+01 0.  1.
         21   -1    0    0  501  502  0.00000000000E+00 -0.00000000000E+00 -0.11143129019E+02  0.11143129019E+02  0.00000000000E+00 0. -1.
         25    2    1    2    0    0 -0.21759351745E+01 -0.22454822654E+02  0.71338453741E+03  0.72460438971E+03  0.12500027848E+03 0.  0.
    9000005    1    3    3    0    0  0.71922976871E+01 -0.69727501391E+02  0.54387462810E+03  0.54837420133E+03  0.10000000000E+01 0.  0.
    9000005    1    3    3    0    0 -0.93682328616E+01  0.47272678737E+02  0.16950990932E+03  0.17623018839E+03  0.10000000000E+01 0.  0.
         -4    1    1    2    0  502  0.21759351745E+01  0.22454822654E+02  0.17532302988E+02  0.28599795495E+02  0.12700000000E+01 0. -1.
<mgrwt>
<rscale>  1 0.12701978E+03</rscale>
<asrwt>0</asrwt>
<pdfrwt beam="2">  1       21 0.17143281E-02 0.12701978E+03</pdfrwt>
<pdfrwt beam="1">  1       -4 0.11416868E+00 0.12701978E+03</pdfrwt>
<totfact> 0.39642674E+04</totfact>
</mgrwt>
</event>
<event>
 6    3  0.3813045E-003  0.1323975E+03  0.7818608E-02  0.1223941E+00
         21   -1    0    0  501  502  0.00000000000E+00  0.00000000000E+00  0.64910562519E+03  0.64910562519E+03  0.00000000000E+00 0.  1.
         -4   -1    0    0    0  501 -0.00000000000E+00 -0.00000000000E+00 -0.17498528132E+02  0.17544554334E+02  0.12700000000E+01 0. -1.
         25    2    1    2    0    0 -0.25157176425E+02  0.35614845917E+02  0.25309735851E+03  0.28563504091E+03  0.12501121125E+03 0.  0.
    9000005    1    3    3    0    0  0.31770237006E+02  0.54633944145E+02  0.18156332174E+03  0.19225102240E+03  0.10000000000E+01 0.  0.
    9000005    1    3    3    0    0 -0.56927413431E+02 -0.19019098227E+02  0.71534036775E+02  0.93384018518E+02  0.10000000000E+01 0.  0.
         -4    1    1    2    0  502  0.25157176425E+02 -0.35614845917E+02  0.37850973855E+03  0.38101513861E+03  0.12700000000E+01 0.  1.
<mgrwt>
<rscale>  1 0.13239752E+03</rscale>
<asrwt>0</asrwt>
<pdfrwt beam="1">  1       21 0.99862386E-01 0.13239752E+03</pdfrwt>
<pdfrwt beam="2">  1       -4 0.26957178E-02 0.13239752E+03</pdfrwt>
<totfact> 0.21625977E+04</totfact>
</mgrwt>
</event>
<event>
 6    3  0.3813045E-003  0.1273932E+03  0.7818608E-02  0.1231376E+00
         -4   -1    0    0    0  501 -0.00000000000E+00  0.00000000000E+00  0.88985742540E+02  0.88994804766E+02  0.12700000000E+01 0. -1.
         21   -1    0    0  501  502  0.00000000000E+00 -0.00000000000E+00 -0.19676748527E+03  0.19676748527E+03  0.00000000000E+00 0.  1.
         25    2    1    2    0    0 -0.86340996735E+01  0.23019071231E+02  0.41871376717E+02  0.13409787635E+03  0.12499841174E+03 0.  0.
    9000005    1    3    3    0    0 -0.57977386074E+02  0.39089045574E+02  0.43766203937E+01  0.70067721427E+02  0.10000000000E+01 0.  0.
    9000005    1    3    3    0    0  0.49343286400E+02 -0.16069974343E+02  0.37494756323E+02  0.64030154926E+02  0.10000000000E+01 0.  0.
         -4    1    1    2    0  502  0.86340996735E+01 -0.23019071231E+02 -0.14965311945E+03  0.15166441368E+03  0.12700000000E+01 0.  1.
<mgrwt>
<rscale>  1 0.12739320E+03</rscale>
<asrwt>0</asrwt>
<pdfrwt beam="2">  1       21 0.30271921E-01 0.12739320E+03</pdfrwt>
<pdfrwt beam="1">  1       -4 0.13691127E-01 0.12739320E+03</pdfrwt>
<totfact> 0.18821392E+04</totfact>
</mgrwt>
</event>
<event>
 6    3  0.3813045E-003  0.1314176E+03  0.7818608E-02  0.1225367E+00
          4   -1    0    0  502    0 -0.00000000000E+00  0.00000000000E+00  0.10107192270E+04  0.10107200249E+04  0.12700000000E+01 0.  1.
         21   -1    0    0  501  502  0.00000000000E+00 -0.00000000000E+00 -0.85678782059E+01  0.85678782059E+01  0.00000000000E+00 0. -1.
         25    2    1    2    0    0 -0.16641222525E+02 -0.36990236379E+02  0.89703157190E+03  0.90660698960E+03  0.12500153887E+03 0.  0.
    9000005    1    3    3    0    0  0.24881915688E+02  0.19106990331E+02  0.62418495672E+03  0.62497363705E+03  0.10000000000E+01 0.  0.
    9000005    1    3    3    0    0 -0.41523138213E+02 -0.56097226709E+02  0.27284661518E+03  0.28163335255E+03  0.10000000000E+01 0.  0.
          4    1    1    2  501    0  0.16641222525E+02  0.36990236379E+02  0.10511977686E+03  0.11268091347E+03  0.12700000000E+01 0. -1.
<mgrwt>
<rscale>  1 0.13141763E+03</rscale>
<asrwt>0</asrwt>
<pdfrwt beam="2">  1       21 0.13181359E-02 0.13141763E+03</pdfrwt>
<pdfrwt beam="1">  1        4 0.15550247E+00 0.13141763E+03</pdfrwt>
<totfact> 0.28285005E+04</totfact>
</mgrwt>
</event>
<event>
 6    3  0.3813045E-003  0.1328438E+03  0.7818608E-02  0.1223296E+00
         21   -1    0    0  501  502  0.00000000000E+00  0.00000000000E+00  0.42824026603E+02  0.42824026603E+02  0.00000000000E+00 0.  1.
         -4   -1    0    0    0  501 -0.00000000000E+00 -0.00000000000E+00 -0.20311234741E+03  0.20311631783E+03  0.12700000000E+01 0. -1.
         25    2    1    2    0    0 -0.16165828692E+02 -0.41942682011E+02 -0.14891270875E+03  0.19955564824E+03  0.12500775707E+03 0.  0.
    9000005    1    3    3    0    0 -0.31147279036E+02  0.38112789201E+02 -0.74079925865E+02  0.88947024167E+02  0.10000000000E+01 0.  0.
    9000005    1    3    3    0    0  0.14981450343E+02 -0.80055471212E+02 -0.74832782880E+02  0.11060862407E+03  0.10000000000E+01 0.  0.
         -4    1    1    2    0  502  0.16165828692E+02  0.41942682011E+02 -0.11375612062E+02  0.46384696198E+02  0.12700000000E+01 0.  1.
<mgrwt>
<rscale>  1 0.13284375E+03</rscale>
<asrwt>0</asrwt>
<pdfrwt beam="1">  1       21 0.65883120E-02 0.13284375E+03</pdfrwt>
<pdfrwt beam="2">  1       -4 0.31249806E-01 0.13284375E+03</pdfrwt>
<totfact> 0.66450379E+04</totfact>
</mgrwt>
</event>
<event>
 6    3  0.3813045E-003  0.1277177E+03  0.7818608E-02  0.1230882E+00
          4   -1    0    0  502    0 -0.00000000000E+00  0.00000000000E+00  0.22529399278E+03  0.22529757230E+03  0.12700000000E+01 0. -1.
         21   -1    0    0  501  502  0.00000000000E+00 -0.00000000000E+00 -0.29962514138E+02  0.29962514138E+02  0.00000000000E+00 0. -1.
         25    2    1    2    0    0 -0.25231059989E+02 -0.71195629885E+01  0.18925580617E+03  0.22831901628E+03  0.12499807382E+03 0.  0.
    9000005    1    3    3    0    0 -0.60955554966E+02 -0.33035151460E+01  0.18157674684E+03  0.19156619714E+03  0.10000000000E+01 0.  0.
    9000005    1    3    3    0    0  0.35724494978E+02 -0.38160478426E+01  0.76790593357E+01  0.36752819141E+02  0.10000000000E+01 0.  0.
          4    1    1    2  501    0  0.25231059989E+02  0.71195629885E+01  0.60756724714E+01  0.26941070158E+02  0.12700000000E+01 0.  1.
<mgrwt>
<rscale>  1 0.12771771E+03</rscale>
<asrwt>0</asrwt>
<pdfrwt beam="2">  1       21 0.46096177E-02 0.12771771E+03</pdfrwt>
<pdfrwt beam="1">  1        4 0.34662959E-01 0.12771771E+03</pdfrwt>
<totfact> 0.99063468E+04</totfact>
</mgrwt>
</event>
<event>
 6    3  0.3813045E-003  0.1283243E+03  0.7818608E-02  0.1229964E+00
         21   -1    0    0  501  502  0.00000000000E+00  0.00000000000E+00  0.11973053399E+03  0.11973053399E+03  0.00000000000E+00 0.  1.
         -4   -1    0    0    0  501 -0.00000000000E+00 -0.00000000000E+00 -0.63684116649E+02  0.63696778673E+02  0.12700000000E+01 0.  1.
         25    2    1    2    0    0 -0.26509737027E+00 -0.29026350780E+02  0.96535074574E+01  0.12868688607E+03  0.12499810048E+03 0.  0.
    9000005    1    3    3    0    0  0.61181145193E+02 -0.12414373343E+02 -0.71567022038E+01  0.62844789594E+02  0.10000000000E+01 0.  0.
    9000005    1    3    3    0    0 -0.61446242564E+02 -0.16611977437E+02  0.16810209661E+02  0.65842096476E+02  0.10000000000E+01 0.  0.
         -4    1    1    2    0  502  0.26509737027E+00  0.29026350780E+02  0.46392909888E+02  0.54740426598E+02  0.12700000000E+01 0. -1.
<mgrwt>
<rscale>  1 0.12832429E+03</rscale>
<asrwt>0</asrwt>
<pdfrwt beam="1">  1       21 0.18420082E-01 0.12832429E+03</pdfrwt>
<pdfrwt beam="2">  1       -4 0.97990485E-02 0.12832429E+03</pdfrwt>
<totfact> 0.84729348E+04</totfact>
</mgrwt>
</event>
<event>
 6    3  0.3813045E-003  0.1275055E+03  0.7818608E-02  0.1231205E+00
         -4   -1    0    0    0  501 -0.00000000000E+00  0.00000000000E+00  0.12942679703E+04  0.12942685934E+04  0.12700000000E+01 0. -1.
         21   -1    0    0  501  502  0.00000000000E+00 -0.00000000000E+00 -0.45851714181E+01  0.45851714181E+01  0.00000000000E+00 0. -1.
         25    2    1    2    0    0 -0.93578818113E+00  0.25138785605E+02  0.11341116728E+04  0.11412567394E+04  0.12499929862E+03 0.  0.
    9000005    1    3    3    0    0 -0.14815049176E+02 -0.25042448587E+02  0.93483813456E+03  0.93529137050E+03  0.10000000000E+01 0.  0.
    9000005    1    3    3    0    0  0.13879260995E+02  0.50181234192E+02  0.19927353825E+03  0.20596536893E+03  0.10000000000E+01 0.  0.
         -4    1    1    2    0  502  0.93578818113E+00 -0.25138785605E+02  0.15557112611E+03  0.15759702542E+03  0.12700000000E+01 0.  1.
<mgrwt>
<rscale>  1 0.12750552E+03</rscale>
<asrwt>0</asrwt>
<pdfrwt beam="2">  1       21 0.70541202E-03 0.12750552E+03</pdfrwt>
<pdfrwt beam="1">  1       -4 0.19913143E+00 0.12750552E+03</pdfrwt>
<totfact> 0.38689233E+04</totfact>
</mgrwt>
</event>
<event>
 6    3  0.3813045E-003  0.1267205E+03  0.7818608E-02  0.1232405E+00
         21   -1    0    0  501  502  0.00000000000E+00  0.00000000000E+00  0.74322708175E+02  0.74322708175E+02  0.00000000000E+00 0. -1.
          4   -1    0    0  502    0 -0.00000000000E+00 -0.00000000000E+00 -0.11798047297E+03  0.11798730823E+03  0.12700000000E+01 0.  1.
         25    2    1    2    0    0 -0.12383026938E+02 -0.16651526953E+02 -0.80413930543E+02  0.15008157425E+03  0.12500986361E+03 0.  0.
    9000005    1    3    3    0    0 -0.37094301828E+02  0.28308019059E+02  0.84838654680E+01  0.47437402378E+02  0.10000000000E+01 0.  0.
    9000005    1    3    3    0    0  0.24711274890E+02 -0.44959546011E+02 -0.88897796011E+02  0.10264417187E+03  0.10000000000E+01 0.  0.
          4    1    1    2  501    0  0.12383026938E+02  0.16651526953E+02  0.36756165747E+02  0.42228442150E+02  0.12700000000E+01 0. -1.
<mgrwt>
<rscale>  1 0.12672047E+03</rscale>
<asrwt>0</asrwt>
<pdfrwt beam="1">  1       21 0.11434263E-01 0.12672047E+03</pdfrwt>
<pdfrwt beam="2">  1        4 0.18152202E-01 0.12672047E+03</pdfrwt>
<totfact> 0.68789863E+04</totfact>
</mgrwt>
</event>
<event>
 6    3  0.3813045E-003  0.1270635E+03  0.7818608E-02  0.1231879E+00
         -4   -1    0    0    0  501 -0.00000000000E+00  0.00000000000E+00  0.49490709141E+02  0.49507001437E+02  0.12700000000E+01 0.  1.
         21   -1    0    0  501  502  0.00000000000E+00 -0.00000000000E+00 -0.15645939521E+03  0.15645939521E+03  0.00000000000E+00 0.  1.
         25    2    1    2    0    0 -0.89531940798E+01  0.20971258692E+02 -0.36964379186E+02  0.13233101617E+03  0.12500071655E+03 0.  0.
    9000005    1    3    3    0    0 -0.26511484871E+02  0.70057422948E+02 -0.22581111764E+02  0.78241983287E+02  0.10000000000E+01 0.  0.
    9000005    1    3    3    0    0  0.17558290792E+02 -0.49086164256E+02 -0.14383267422E+02  0.54089032887E+02  0.10000000000E+01 0.  0.
         -4    1    1    2    0  502  0.89531940798E+01 -0.20971258692E+02 -0.70004306879E+02  0.73635380470E+02  0.12700000000E+01 0. -1.
<mgrwt>
<rscale>  1 0.12706350E+03</rscale>
<asrwt>0</asrwt>
<pdfrwt beam="2">  1       21 0.24070677E-01 0.12706350E+03</pdfrwt>
<pdfrwt beam="1">  1       -4 0.76156049E-02 0.12706350E+03</pdfrwt>
<totfact> 0.78304810E+04</totfact>
</mgrwt>
</event>
<event>
 6    3  0.3813045E-003  0.1278017E+03  0.7818608E-02  0.1230754E+00
         21   -1    0    0  501  502  0.00000000000E+00  0.00000000000E+00  0.53917501048E+03  0.53917501048E+03  0.00000000000E+00 0.  1.
          4   -1    0    0  502    0 -0.00000000000E+00 -0.00000000000E+00 -0.11533100177E+02  0.11602814301E+02  0.12700000000E+01 0. -1.
         25    2    1    2    0    0 -0.17720641085E+02 -0.19865046024E+02  0.38471195185E+03  0.40538447178E+03  0.12499857155E+03 0.  0.
    9000005    1    3    3    0    0 -0.22996015883E+02  0.30856012019E+02  0.35175090212E+02  0.52145922138E+02  0.10000000000E+01 0.  0.
    9000005    1    3    3    0    0  0.52753747975E+01 -0.50721058043E+02  0.34953686163E+03  0.35323854964E+03  0.10000000000E+01 0.  0.
          4    1    1    2  501    0  0.17720641085E+02  0.19865046024E+02  0.14292995845E+03  0.14539335300E+03  0.12700000000E+01 0.  1.
<mgrwt>
<rscale>  1 0.12780174E+03</rscale>
<asrwt>0</asrwt>
<pdfrwt beam="1">  1       21 0.82949982E-01 0.12780174E+03</pdfrwt>
<pdfrwt beam="2">  1        4 0.17798012E-02 0.12780174E+03</pdfrwt>
<totfact> 0.62639699E+04</totfact>
</mgrwt>
</event>
<event>
 6    3  0.3813045E-003  0.1303680E+03  0.7818608E-02  0.1226911E+00
          4   -1    0    0  502    0 -0.00000000000E+00  0.00000000000E+00  0.89780037856E+02  0.89789019916E+02  0.12700000000E+01 0.  1.
         21   -1    0    0  501  502  0.00000000000E+00 -0.00000000000E+00 -0.93305178294E+02  0.93305178294E+02  0.00000000000E+00 0. -1.
         25    2    1    2    0    0  0.35733973572E+02  0.90912400071E+01  0.29403121252E+02  0.13364269843E+03  0.12504503106E+03 0.  0.
    9000005    1    3    3    0    0  0.31852911615E+01 -0.32739719629E+02  0.62861758689E+02  0.70955169133E+02  0.10000000000E+01 0.  0.
    9000005    1    3    3    0    0  0.32548682411E+02  0.41830959636E+02 -0.33458637437E+02  0.62687529301E+02  0.10000000000E+01 0.  0.
          4    1    1    2  501    0 -0.35733973572E+02 -0.90912400071E+01 -0.32928261690E+02  0.49451499776E+02  0.12700000000E+01 0. -1.
<mgrwt>
<rscale>  1 0.13036805E+03</rscale>
<asrwt>0</asrwt>
<pdfrwt beam="2">  1       21 0.14354643E-01 0.13036805E+03</pdfrwt>
<pdfrwt beam="1">  1        4 0.13813669E-01 0.13036805E+03</pdfrwt>
<totfact> 0.74353674E+04</totfact>
</mgrwt>
</event>
<event>
 6    3  0.3813045E-003  0.1272416E+03  0.7818608E-02  0.1231607E+00
         21   -1    0    0  501  502  0.00000000000E+00  0.00000000000E+00  0.20193512522E+02  0.20193512522E+02  0.00000000000E+00 0.  1.
         -4   -1    0    0    0  501 -0.00000000000E+00 -0.00000000000E+00 -0.31632615050E+03  0.31632869992E+03  0.12700000000E+01 0.  1.
         25    2    1    2    0    0  0.19017263576E+02  0.14393722371E+02 -0.28040661047E+03  0.30792577212E+03  0.12498631279E+03 0.  0.
    9000005    1    3    3    0    0  0.28628897662E+02 -0.49227676081E+02 -0.17882763862E+03  0.18767872071E+03  0.10000000000E+01 0.  0.
    9000005    1    3    3    0    0 -0.96116340868E+01  0.63621398452E+02 -0.10157897185E+03  0.12024705141E+03  0.10000000000E+01 0.  0.
         -4    1    1    2    0  502 -0.19017263576E+02 -0.14393722371E+02 -0.15726027513E+02  0.28596440319E+02  0.12700000000E+01 0. -1.
<mgrwt>
<rscale>  1 0.12724156E+03</rscale>
<asrwt>0</asrwt>
<pdfrwt beam="1">  1       21 0.31066941E-02 0.12724156E+03</pdfrwt>
<pdfrwt beam="2">  1       -4 0.48668832E-01 0.12724156E+03</pdfrwt>
<totfact> 0.97427805E+04</totfact>
</mgrwt>
</event>
<event>
 6    3  0.3813045E-003  0.1433642E+03  0.7818608E-02  0.1208873E+00
         21   -1    0    0  501  502  0.00000000000E+00  0.00000000000E+00  0.27374164217E+02  0.27374164217E+02  0.00000000000E+00 0.  1.
         -4   -1    0    0    0  501 -0.00000000000E+00 -0.00000000000E+00 -0.50891943154E+03  0.50892101617E+03  0.12700000000E+01 0. -1.
         25    2    1    2    0    0 -0.23198217538E+02  0.66262046100E+02 -0.41686366150E+03  0.44082718008E+03  0.12499789747E+03 0.  0.
    9000005    1    3    3    0    0 -0.44995313161E+01 -0.19243739302E+02 -0.59055501781E+01  0.20650491696E+02  0.10000000000E+01 0.  0.
    9000005    1    3    3    0    0 -0.18698686222E+02  0.85505785402E+02 -0.41095811132E+03  0.42017668839E+03  0.10000000000E+01 0.  0.
         -4    1    1    2    0  502  0.23198217538E+02 -0.66262046100E+02 -0.64681605829E+02  0.95468000309E+02  0.12700000000E+01 0.  1.
<mgrwt>
<rscale>  1 0.14336419E+03</rscale>
<asrwt>0</asrwt>
<pdfrwt beam="1">  1       21 0.42114099E-02 0.14336419E+03</pdfrwt>
<pdfrwt beam="2">  1       -4 0.78297684E-01 0.14336419E+03</pdfrwt>
<totfact> 0.21899665E+04</totfact>
</mgrwt>
</event>
<event>
 6    3  0.3813045E-003  0.1322172E+03  0.7818608E-02  0.1224202E+00
         -4   -1    0    0    0  501 -0.00000000000E+00  0.00000000000E+00  0.13812815447E+03  0.13813399277E+03  0.12700000000E+01 0. -1.
         21   -1    0    0  501  502  0.00000000000E+00 -0.00000000000E+00 -0.77713372845E+02  0.77713372845E+02  0.00000000000E+00 0. -1.
         25    2    1    2    0    0  0.37934551209E+02 -0.20461240472E+02  0.93128233483E+02  0.16172273749E+03  0.12499473353E+03 0.  0.
    9000005    1    3    3    0    0  0.65875235392E+00 -0.42855561014E+02  0.10764408753E+03  0.11586752195E+03  0.10000000000E+01 0.  0.
    9000005    1    3    3    0    0  0.37275798855E+02  0.22394320542E+02 -0.14515854044E+02  0.45855215532E+02  0.10000000000E+01 0.  0.
         -4    1    1    2    0  502 -0.37934551209E+02  0.20461240472E+02 -0.32713451858E+02  0.54124628124E+02  0.12700000000E+01 0.  1.
<mgrwt>
<rscale>  1 0.13221715E+03</rscale>
<asrwt>0</asrwt>
<pdfrwt beam="2">  1       21 0.11955904E-01 0.13221715E+03</pdfrwt>
<pdfrwt beam="1">  1       -4 0.21251733E-01 0.13221715E+03</pdfrwt>
<totfact> 0.48179061E+04</totfact>
</mgrwt>
</event>
<event>
 6    3  0.3813045E-003  0.1269712E+03  0.7818608E-02  0.1232020E+00
         -4   -1    0    0    0  501 -0.00000000000E+00  0.00000000000E+00  0.59958537350E+02  0.59971985970E+02  0.12700000000E+01 0.  1.
         21   -1    0    0  501  502  0.00000000000E+00 -0.00000000000E+00 -0.26198049953E+03  0.26198049953E+03  0.00000000000E+00 0. -1.
         25    2    1    2    0    0  0.95361265573E+01  0.20088072365E+02 -0.86105153573E+01  0.12726281186E+03  0.12500885547E+03 0.  0.
    9000005    1    3    3    0    0 -0.43356786681E+02 -0.29429910113E+02  0.77393594108E+01  0.52979507781E+02  0.10000000000E+01 0.  0.
    9000005    1    3    3    0    0  0.52892913239E+02  0.49517982478E+02 -0.16349874768E+02  0.74283304077E+02  0.10000000000E+01 0.  0.
         -4    1    1    2    0  502 -0.95361265573E+01 -0.20088072365E+02 -0.19341144682E+03  0.19468967364E+03  0.12700000000E+01 0. -1.
<mgrwt>
<rscale>  1 0.12697119E+03</rscale>
<asrwt>0</asrwt>
<pdfrwt beam="2">  1       21 0.40304692E-01 0.12697119E+03</pdfrwt>
<pdfrwt beam="1">  1       -4 0.92256617E-02 0.12697119E+03</pdfrwt>
<totfact> 0.20975049E+04</totfact>
</mgrwt>
</event>
<event>
 6    3  0.3813045E-003  0.1282417E+03  0.7818608E-02  0.1230088E+00
         21   -1    0    0  501  502  0.00000000000E+00  0.00000000000E+00  0.10623244013E+03  0.10623244013E+03  0.00000000000E+00 0.  1.
          4   -1    0    0  502    0 -0.00000000000E+00 -0.00000000000E+00 -0.59300687642E+02  0.59314285419E+02  0.12700000000E+01 0.  1.
         25    2    1    2    0    0 -0.71803016968E+00  0.28641111764E+02  0.28238204062E+02  0.13131383927E+03  0.12500039746E+03 0.  0.
    9000005    1    3    3    0    0 -0.11472287714E+02 -0.10651722085E+02 -0.44915441982E+02  0.47575934013E+02  0.10000000000E+01 0.  0.
    9000005    1    3    3    0    0  0.10754257544E+02  0.39292833849E+02  0.73153646044E+02  0.83737905256E+02  0.10000000000E+01 0.  0.
          4    1    1    2  501    0  0.71803016968E+00 -0.28641111764E+02  0.18693548430E+02  0.34232886284E+02  0.12700000000E+01 0. -1.
<mgrwt>
<rscale>  1 0.12824168E+03</rscale>
<asrwt>0</asrwt>
<pdfrwt beam="1">  1       21 0.16343452E-01 0.12824168E+03</pdfrwt>
<pdfrwt beam="2">  1        4 0.91248127E-02 0.12824168E+03</pdfrwt>
<totfact> 0.11875279E+05</totfact>
</mgrwt>
</event>
<event>
 6    3  0.3813045E-003  0.1297448E+03  0.7818608E-02  0.1227835E+00
          4   -1    0    0  502    0 -0.00000000000E+00  0.00000000000E+00  0.32080844780E+02  0.32105972993E+02  0.12700000000E+01 0. -1.
         21   -1    0    0  501  502  0.00000000000E+00 -0.00000000000E+00 -0.21472392099E+03  0.21472392099E+03  0.00000000000E+00 0. -1.
         25    2    1    2    0    0  0.17105043458E+02 -0.30260271933E+02 -0.12948624524E+03  0.18330408704E+03  0.12500173619E+03 0.  0.
    9000005    1    3    3    0    0 -0.50755607176E+02  0.82529289159E+01 -0.45621071692E+02  0.68749724929E+02  0.10000000000E+01 0.  0.
    9000005    1    3    3    0    0  0.67860650634E+02 -0.38513200848E+02 -0.83865173544E+02  0.11455436211E+03  0.10000000000E+01 0.  0.
          4    1    1    2  501    0 -0.17105043458E+02  0.30260271933E+02 -0.53156830976E+02  0.63525806949E+02  0.12700000000E+01 0.  1.
<mgrwt>
<rscale>  1 0.12974475E+03</rscale>
<asrwt>0</asrwt>
<pdfrwt beam="2">  1       21 0.33034449E-01 0.12974475E+03</pdfrwt>
<pdfrwt beam="1">  1        4 0.49377365E-02 0.12974475E+03</pdfrwt>
<totfact> 0.86618792E+04</totfact>
</mgrwt>
</event>
<event>
 6    3  0.3813045E-003  0.1270576E+03  0.7818608E-02  0.1231888E+00
         21   -1    0    0  501  502  0.00000000000E+00  0.00000000000E+00  0.19595931576E+02  0.19595931576E+02  0.00000000000E+00 0.  1.
         -4   -1    0    0    0  501 -0.00000000000E+00 -0.00000000000E+00 -0.39293059365E+03  0.39293264604E+03  0.12700000000E+01 0. -1.
         25    2    1    2    0    0 -0.18091164399E+02 -0.13867532756E+02 -0.36767184400E+03  0.38900669201E+03  0.12499609138E+03 0.  0.
    9000005    1    3    3    0    0 -0.49797241159E+01  0.32817283314E+02 -0.31747197040E+03  0.31920404716E+03  0.10000000000E+01 0.  0.
    9000005    1    3    3    0    0 -0.13111440283E+02 -0.46684816070E+02 -0.50199873607E+02  0.69802644849E+02  0.10000000000E+01 0.  0.
         -4    1    1    2    0  502  0.18091164399E+02  0.13867532756E+02 -0.56628180690E+01  0.23521885607E+02  0.12700000000E+01 0.  1.
<mgrwt>
<rscale>  1 0.12705755E+03</rscale>
<asrwt>0</asrwt>
<pdfrwt beam="1">  1       21 0.30147585E-02 0.12705755E+03</pdfrwt>
<pdfrwt beam="2">  1       -4 0.60454188E-01 0.12705755E+03</pdfrwt>
<totfact> 0.65437634E+04</totfact>
</mgrwt>
</event>
<event>
 6    3  0.3813045E-003  0.1285538E+03  0.7818608E-02  0.1229618E+00
         21   -1    0    0  501  502  0.00000000000E+00  0.00000000000E+00  0.30262047317E+03  0.30262047317E+03  0.00000000000E+00 0.  1.
          4   -1    0    0  502    0 -0.00000000000E+00 -0.00000000000E+00 -0.28306628481E+02  0.28335103952E+02  0.12700000000E+01 0. -1.
         25    2    1    2    0    0  0.28325705416E+02  0.10055606292E+02  0.12738330727E+03  0.18097672351E+03  0.12499042634E+03 0.  0.
    9000005    1    3    3    0    0  0.42174202719E+02 -0.30874734853E+02  0.65989183056E+01  0.52692108993E+02  0.10000000000E+01 0.  0.
    9000005    1    3    3    0    0 -0.13848497304E+02  0.40930341146E+02  0.12078438897E+03  0.12828461452E+03  0.10000000000E+01 0.  0.
          4    1    1    2  501    0 -0.28325705416E+02 -0.10055606292E+02  0.14693053742E+03  0.14997885362E+03  0.12700000000E+01 0.  1.
<mgrwt>
<rscale>  1 0.12855375E+03</rscale>
<asrwt>0</asrwt>
<pdfrwt beam="1">  1       21 0.46556994E-01 0.12855375E+03</pdfrwt>
<pdfrwt beam="2">  1        4 0.43572615E-02 0.12855375E+03</pdfrwt>
<totfact> 0.53305976E+04</totfact>
</mgrwt>
</event>
<event>
 6    3  0.3813045E-003  0.1273886E+03  0.7818608E-02  0.1231383E+00
         21   -1    0    0  501  502  0.00000000000E+00  0.00000000000E+00  0.43217528487E+02  0.43217528487E+02  0.00000000000E+00 0.  1.
         -4   -1    0    0    0  501 -0.00000000000E+00 -0.00000000000E+00 -0.19752646910E+03  0.19753055181E+03  0.12700000000E+01 0.  1.
         25    2    1    2    0    0  0.23478090191E+02 -0.72149020380E+01 -0.16935418771E+03  0.21191671039E+03  0.12499830285E+03 0.  0.
    9000005    1    3    3    0    0  0.67722443891E+02  0.24278944735E+02 -0.11018401864E+03  0.13159526788E+03  0.10000000000E+01 0.  0.
    9000005    1    3    3    0    0 -0.44244353700E+02 -0.31493846773E+02 -0.59170169075E+02  0.80321442512E+02  0.10000000000E+01 0.  0.
         -4    1    1    2    0  502 -0.23478090191E+02  0.72149020380E+01  0.15045247096E+02  0.28831369905E+02  0.12700000000E+01 0. -1.
<mgrwt>
<rscale>  1 0.12738858E+03</rscale>
<asrwt>0</asrwt>
<pdfrwt beam="1">  1       21 0.66488506E-02 0.12738858E+03</pdfrwt>
<pdfrwt beam="2">  1       -4 0.30390437E-01 0.12738858E+03</pdfrwt>
<totfact> 0.68576257E+04</totfact>
</mgrwt>
</event>
<event>
 6    3  0.3813045E-003  0.1333232E+03  0.7818608E-02  0.1222606E+00
         21   -1    0    0  501  502  0.00000000000E+00  0.00000000000E+00  0.48494347259E+02  0.48494347259E+02  0.00000000000E+00 0.  1.
         -4   -1    0    0    0  501 -0.00000000000E+00 -0.00000000000E+00 -0.18164613122E+03  0.18165057084E+03  0.12700000000E+01 0. -1.
         25    2    1    2    0    0 -0.46170972394E+02 -0.42001583138E+01 -0.12557589111E+03  0.18315122624E+03  0.12500266886E+03 0.  0.
    9000005    1    3    3    0    0 -0.79039181824E+02 -0.21668459243E+02 -0.12026634005E+03  0.14553936560E+03  0.10000000000E+01 0.  0.
    9000005    1    3    3    0    0  0.32868209430E+02  0.17468300929E+02 -0.53095510608E+01  0.37611860642E+02  0.10000000000E+01 0.  0.
         -4    1    1    2    0  502  0.46170972394E+02  0.42001583138E+01 -0.75758928411E+01  0.46993691853E+02  0.12700000000E+01 0.  1.
<mgrwt>
<rscale>  1 0.13332317E+03</rscale>
<asrwt>0</asrwt>
<pdfrwt beam="1">  1       21 0.74606690E-02 0.13332317E+03</pdfrwt>
<pdfrwt beam="2">  1       -4 0.27947179E-01 0.13332317E+03</pdfrwt>
<totfact> 0.66327718E+04</totfact>
</mgrwt>
</event>
<event>
 6    3  0.3813045E-003  0.1379048E+03  0.7818608E-02  0.1216176E+00
         -4   -1    0    0    0  501 -0.00000000000E+00  0.00000000000E+00  0.14003382607E+03  0.14003958492E+03  0.12700000000E+01 0.  1.
         21   -1    0    0  501  502  0.00000000000E+00 -0.00000000000E+00 -0.86290043424E+02  0.86290043424E+02  0.00000000000E+00 0. -1.
         25    2    1    2    0    0  0.43784397030E+02  0.38409439654E+02  0.83189108537E+02  0.16105330343E+03  0.12500152114E+03 0.  0.
    9000005    1    3    3    0    0 -0.41052421261E+01  0.16684813993E+01  0.98635720198E+02  0.98740276190E+02  0.10000000000E+01 0.  0.
    9000005    1    3    3    0    0  0.47889639156E+02  0.36740958255E+02 -0.15446611661E+02  0.62313027240E+02  0.10000000000E+01 0.  0.
         -4    1    1    2    0  502 -0.43784397030E+02 -0.38409439654E+02 -0.29445325888E+02  0.65276324916E+02  0.12700000000E+01 0. -1.
<mgrwt>
<rscale>  1 0.13790482E+03</rscale>
<asrwt>0</asrwt>
<pdfrwt beam="2">  1       21 0.13275391E-01 0.13790482E+03</pdfrwt>
<pdfrwt beam="1">  1       -4 0.21544827E-01 0.13790482E+03</pdfrwt>
<totfact> 0.39196484E+04</totfact>
</mgrwt>
</event>
<event>
 6    3  0.3813045E-003  0.1446264E+03  0.7818608E-02  0.1207236E+00
         -4   -1    0    0    0  501 -0.00000000000E+00  0.00000000000E+00  0.34503521427E+03  0.34503755156E+03  0.12700000000E+01 0.  1.
         21   -1    0    0  501  502  0.00000000000E+00 -0.00000000000E+00 -0.73194014096E+02  0.73194014096E+02  0.00000000000E+00 0. -1.
         25    2    1    2    0    0 -0.33033482443E+02  0.64813165800E+02  0.30554660008E+03  0.33804662751E+03  0.12499936049E+03 0.  0.
    9000005    1    3    3    0    0 -0.66479422420E+02  0.33682801859E+02  0.27014076028E+03  0.28023396495E+03  0.10000000000E+01 0.  0.
    9000005    1    3    3    0    0  0.33445939977E+02  0.31130363940E+02  0.35405839804E+02  0.57812662559E+02  0.10000000000E+01 0.  0.
         -4    1    1    2    0  502  0.33033482443E+02 -0.64813165800E+02 -0.33705399907E+02  0.80184938151E+02  0.12700000000E+01 0. -1.
<mgrwt>
<rscale>  1 0.14462641E+03</rscale>
<asrwt>0</asrwt>
<pdfrwt beam="2">  1       21 0.11260618E-01 0.14462641E+03</pdfrwt>
<pdfrwt beam="1">  1       -4 0.53083367E-01 0.14462641E+03</pdfrwt>
<totfact> 0.92813960E+03</totfact>
</mgrwt>
</event>
<event>
 6    3  0.3813045E-003  0.1271110E+03  0.7818608E-02  0.1231807E+00
         -4   -1    0    0    0  501 -0.00000000000E+00  0.00000000000E+00  0.78586628903E+02  0.78596890157E+02  0.12700000000E+01 0.  1.
         21   -1    0    0  501  502  0.00000000000E+00 -0.00000000000E+00 -0.20386239489E+03  0.20386239489E+03  0.00000000000E+00 0.  1.
         25    2    1    2    0    0 -0.17905214348E+02 -0.14551091383E+02  0.25735745325E+02  0.12969011142E+03  0.12499946181E+03 0.  0.
    9000005    1    3    3    0    0  0.46686222215E+02 -0.35779417216E+02  0.16269453981E+02  0.61036588813E+02  0.10000000000E+01 0.  0.
    9000005    1    3    3    0    0 -0.64591436563E+02  0.21228325834E+02  0.94662913439E+01  0.68653522610E+02  0.10000000000E+01 0.  0.
         -4    1    1    2    0  502  0.17905214348E+02  0.14551091383E+02 -0.15101151131E+03  0.15276917363E+03  0.12700000000E+01 0. -1.
<mgrwt>
<rscale>  1 0.12711096E+03</rscale>
<asrwt>0</asrwt>
<pdfrwt beam="2">  1       21 0.31363445E-01 0.12711096E+03</pdfrwt>
<pdfrwt beam="1">  1       -4 0.12091344E-01 0.12711096E+03</pdfrwt>
<totfact> 0.21754992E+04</totfact>
</mgrwt>
</event>
<event>
 6    3  0.3813045E-003  0.1271999E+03  0.7818608E-02  0.1231671E+00
         -4   -1    0    0    0  501 -0.00000000000E+00  0.00000000000E+00  0.80392144675E+02  0.80402175502E+02  0.12700000000E+01 0.  1.
         21   -1    0    0  501  502  0.00000000000E+00 -0.00000000000E+00 -0.87751938295E+02  0.87751938295E+02  0.00000000000E+00 0. -1.
         25    2    1    2    0    0 -0.13152051813E+02 -0.19534300452E+02  0.23461201636E+02  0.12934545484E+03  0.12500101338E+03 0.  0.
    9000005    1    3    3    0    0 -0.65482303102E+02 -0.27320533476E+02 -0.11883597065E+01  0.70970104747E+02  0.10000000000E+01 0.  0.
    9000005    1    3    3    0    0  0.52330251289E+02  0.77862330245E+01  0.24649561343E+02  0.58375350098E+02  0.10000000000E+01 0.  0.
         -4    1    1    2    0  502  0.13152051813E+02  0.19534300452E+02 -0.30820995257E+02  0.38808658952E+02  0.12700000000E+01 0. -1.
<mgrwt>
<rscale>  1 0.12719992E+03</rscale>
<asrwt>0</asrwt>
<pdfrwt beam="2">  1       21 0.13500298E-01 0.12719992E+03</pdfrwt>
<pdfrwt beam="1">  1       -4 0.12369501E-01 0.12719992E+03</pdfrwt>
<totfact> 0.10003804E+05</totfact>
</mgrwt>
</event>
<event>
 6    3  0.3813045E-003  0.1281223E+03  0.7818608E-02  0.1230269E+00
         21   -1    0    0  501  502  0.00000000000E+00  0.00000000000E+00  0.11890920519E+04  0.11890920519E+04  0.00000000000E+00 0.  1.
          4   -1    0    0  502    0 -0.00000000000E+00 -0.00000000000E+00 -0.62823204763E+01  0.64094032926E+01  0.12700000000E+01 0. -1.
         25    2    1    2    0    0 -0.58036353018E+01 -0.27513634944E+02  0.68386355326E+03  0.69576193915E+03  0.12499853680E+03 0.  0.
    9000005    1    3    3    0    0  0.41747304555E+02 -0.13229642043E+02  0.56822843465E+03  0.56991439253E+03  0.10000000000E+01 0.  0.
    9000005    1    3    3    0    0 -0.47550939857E+02 -0.14283992901E+02  0.11563511860E+03  0.12584754661E+03  0.10000000000E+01 0.  0.
          4    1    1    2  501    0  0.58036353018E+01  0.27513634944E+02  0.49894617819E+03  0.49973951607E+03  0.12700000000E+01 0.  1.
<mgrwt>
<rscale>  1 0.12812227E+03</rscale>
<asrwt>0</asrwt>
<pdfrwt beam="1">  1       21 0.18293706E+00 0.12812227E+03</pdfrwt>
<pdfrwt beam="2">  1        4 0.97633956E-03 0.12812227E+03</pdfrwt>
<totfact> 0.22017469E+04</totfact>
</mgrwt>
</event>
<event>
 6    3  0.3813045E-003  0.1375449E+03  0.7818608E-02  0.1216671E+00
         21   -1    0    0  501  502  0.00000000000E+00  0.00000000000E+00  0.41334303530E+02  0.41334303530E+02  0.00000000000E+00 0. -1.
          4   -1    0    0  502    0 -0.00000000000E+00 -0.00000000000E+00 -0.34867225635E+03  0.34867456926E+03  0.12700000000E+01 0.  1.
         25    2    1    2    0    0 -0.56845128626E+02  0.78695645503E+01 -0.30262290315E+03  0.33241422644E+03  0.12500119092E+03 0.  0.
    9000005    1    3    3    0    0  0.20260743146E+02 -0.16806835562E+02 -0.90079852760E+01  0.27840819549E+02  0.10000000000E+01 0.  0.
    9000005    1    3    3    0    0 -0.77105871772E+02  0.24676400112E+02 -0.29361491788E+03  0.30457340689E+03  0.10000000000E+01 0.  0.
          4    1    1    2  501    0  0.56845128626E+02 -0.78695645503E+01 -0.47150496663E+01  0.57594646349E+02  0.12700000000E+01 0. -1.
<mgrwt>
<rscale>  1 0.13754489E+03</rscale>
<asrwt>0</asrwt>
<pdfrwt beam="1">  1       21 0.63591238E-02 0.13754489E+03</pdfrwt>
<pdfrwt beam="2">  1        4 0.53643563E-01 0.13754489E+03</pdfrwt>
<totfact> 0.24361085E+04</totfact>
</mgrwt>
</event>
<event>
 6    3  0.3813045E-003  0.1923727E+03  0.7818608E-02  0.1156339E+00
         21   -1    0    0  501  502  0.00000000000E+00  0.00000000000E+00  0.88989878478E+02  0.88989878478E+02  0.00000000000E+00 0.  1.
          4   -1    0    0  502    0 -0.00000000000E+00 -0.00000000000E+00 -0.37676954864E+03  0.37677168906E+03  0.12700000000E+01 0. -1.
         25    2    1    2    0    0  0.12976927999E+03 -0.67400195394E+02 -0.24865698870E+03  0.31438439135E+03  0.12499758048E+03 0.  0.
    9000005    1    3    3    0    0  0.48533945663E+02 -0.92029390220E+02 -0.16590076198E+03  0.19582904629E+03  0.10000000000E+01 0.  0.
    9000005    1    3    3    0    0  0.81235334325E+02  0.24629194826E+02 -0.82756226723E+02  0.11855534506E+03  0.10000000000E+01 0.  0.
          4    1    1    2  501    0 -0.12976927999E+03  0.67400195394E+02 -0.39122681456E+02  0.15137717619E+03  0.12700000000E+01 0.  1.
<mgrwt>
<rscale>  1 0.19237268E+03</rscale>
<asrwt>0</asrwt>
<pdfrwt beam="1">  1       21 0.13690751E-01 0.19237268E+03</pdfrwt>
<pdfrwt beam="2">  1        4 0.57965407E-01 0.19237268E+03</pdfrwt>
<totfact> 0.55544131E+03</totfact>
</mgrwt>
</event>
<event>
 6    3  0.3813045E-003  0.1399090E+03  0.7818608E-02  0.1213451E+00
         21   -1    0    0  501  502  0.00000000000E+00  0.00000000000E+00  0.33289820092E+02  0.33289820092E+02  0.00000000000E+00 0. -1.
         -4   -1    0    0    0  501 -0.00000000000E+00 -0.00000000000E+00 -0.42736854899E+03  0.42737043600E+03  0.12700000000E+01 0.  1.
         25    2    1    2    0    0 -0.47482617520E+02  0.41169244536E+02 -0.36597390588E+03  0.39180533877E+03  0.12500007217E+03 0.  0.
    9000005    1    3    3    0    0 -0.42163373011E+02  0.47568215620E+02 -0.65726587699E+02  0.91441071142E+02  0.10000000000E+01 0.  0.
    9000005    1    3    3    0    0 -0.53192445082E+01 -0.63989710833E+01 -0.30024731819E+03  0.30036426763E+03  0.10000000000E+01 0.  0.
         -4    1    1    2    0  502  0.47482617520E+02 -0.41169244536E+02 -0.28104823015E+02  0.68854917318E+02  0.12700000000E+01 0. -1.
<mgrwt>
<rscale>  1 0.13990898E+03</rscale>
<asrwt>0</asrwt>
<pdfrwt beam="1">  1       21 0.51215111E-02 0.13990898E+03</pdfrwt>
<pdfrwt beam="2">  1       -4 0.65751013E-01 0.13990898E+03</pdfrwt>
<totfact> 0.22979790E+04</totfact>
</mgrwt>
</event>
<event>
 6    3  0.3813045E-003  0.1280687E+03  0.7818608E-02  0.1230350E+00
         21   -1    0    0  501  502  0.00000000000E+00  0.00000000000E+00  0.12606213702E+02  0.12606213702E+02  0.00000000000E+00 0. -1.
          4   -1    0    0  502    0 -0.00000000000E+00 -0.00000000000E+00 -0.57526084761E+03  0.57526224950E+03  0.12700000000E+01 0.  1.
         25    2    1    2    0    0 -0.15790530488E+02 -0.22976652432E+02 -0.52832601561E+03  0.54362669171E+03  0.12499733501E+03 0.  0.
    9000005    1    3    3    0    0  0.21107187230E+02  0.72677172466E+01 -0.45854642937E+03  0.45909058034E+03  0.10000000000E+01 0.  0.
    9000005    1    3    3    0    0 -0.36897717718E+02 -0.30244369678E+02 -0.69779586238E+02  0.84536111370E+02  0.10000000000E+01 0.  0.
          4    1    1    2  501    0  0.15790530488E+02  0.22976652432E+02 -0.34328618303E+02  0.44241771491E+02  0.12700000000E+01 0. -1.
<mgrwt>
<rscale>  1 0.12806874E+03</rscale>
<asrwt>0</asrwt>
<pdfrwt beam="1">  1       21 0.19394173E-02 0.12806874E+03</pdfrwt>
<pdfrwt beam="2">  1        4 0.88506707E-01 0.12806874E+03</pdfrwt>
<totfact> 0.58611839E+04</totfact>
</mgrwt>
</event>
<event>
 6    3  0.3813045E-003  0.1303913E+03  0.7818608E-02  0.1226876E+00
         -4   -1    0    0    0  501 -0.00000000000E+00  0.00000000000E+00  0.43992520969E+02  0.44010848676E+02  0.12700000000E+01 0.  1.
         21   -1    0    0  501  502  0.00000000000E+00 -0.00000000000E+00 -0.17639959936E+03  0.17639959936E+03  0.00000000000E+00 0.  1.
         25    2    1    2    0    0  0.38762174701E+01 -0.36930961394E+02 -0.12846883277E+03  0.18304678053E+03  0.12499184732E+03 0.  0.
    9000005    1    3    3    0    0  0.33406994955E+02 -0.72137032159E+02 -0.56054002943E+02  0.97277078320E+02  0.10000000000E+01 0.  0.
    9000005    1    3    3    0    0 -0.29530777485E+02  0.35206070765E+02 -0.72414829826E+02  0.85769702205E+02  0.10000000000E+01 0.  0.
         -4    1    1    2    0  502 -0.38762174701E+01  0.36930961394E+02 -0.39382456231E+01  0.37363667512E+02  0.12700000000E+01 0. -1.
<mgrwt>
<rscale>  1 0.13039127E+03</rscale>
<asrwt>0</asrwt>
<pdfrwt beam="2">  1       21 0.27138400E-01 0.13039127E+03</pdfrwt>
<pdfrwt beam="1">  1       -4 0.67698417E-02 0.13039127E+03</pdfrwt>
<totfact> 0.75952271E+04</totfact>
</mgrwt>
</event>
<event>
 6    3  0.3813045E-003  0.1266601E+03  0.7818608E-02  0.1232497E+00
         21   -1    0    0  501  502  0.00000000000E+00  0.00000000000E+00  0.69181554433E+02  0.69181554433E+02  0.00000000000E+00 0.  1.
         -4   -1    0    0    0  501 -0.00000000000E+00 -0.00000000000E+00 -0.14215448503E+03  0.14216015797E+03  0.12700000000E+01 0. -1.
         25    2    1    2    0    0  0.19730178369E+02  0.45944000293E+01 -0.11088384079E+03  0.16833893969E+03  0.12502953258E+03 0.  0.
    9000005    1    3    3    0    0  0.28756254414E+02  0.42147849672E+02 -0.12317330025E+00  0.51033112502E+02  0.10000000000E+01 0.  0.
    9000005    1    3    3    0    0 -0.90260760454E+01 -0.37553449643E+02 -0.11076066749E+03  0.11730582718E+03  0.10000000000E+01 0.  0.
         -4    1    1    2    0  502 -0.19730178369E+02 -0.45944000293E+01  0.37910910190E+02  0.43002772719E+02  0.12700000000E+01 0.  1.
<mgrwt>
<rscale>  1 0.12666007E+03</rscale>
<asrwt>0</asrwt>
<pdfrwt beam="1">  1       21 0.10643316E-01 0.12666007E+03</pdfrwt>
<pdfrwt beam="2">  1       -4 0.21871254E-01 0.12666007E+03</pdfrwt>
<totfact> 0.55839332E+04</totfact>
</mgrwt>
</event>
<event>
 6    3  0.3813045E-003  0.1417998E+03  0.7818608E-02  0.1210927E+00
         -4   -1    0    0    0  501 -0.00000000000E+00  0.00000000000E+00  0.30681257214E+02  0.30707530741E+02  0.12700000000E+01 0. -1.
         21   -1    0    0  501  502  0.00000000000E+00 -0.00000000000E+00 -0.50517293976E+03  0.50517293976E+03  0.00000000000E+00 0.  1.
         25    2    1    2    0    0 -0.57500349253E+02  0.34291657109E+02 -0.15764638149E+03  0.21203673409E+03  0.12499994838E+03 0.  0.
    9000005    1    3    3    0    0 -0.83931135342E+02 -0.15519705794E+02 -0.97437939167E+02  0.12953937138E+03  0.10000000000E+01 0.  0.
    9000005    1    3    3    0    0  0.26430786089E+02  0.49811362903E+02 -0.60208442323E+02  0.82497362712E+02  0.10000000000E+01 0.  0.
         -4    1    1    2    0  502  0.57500349253E+02 -0.34291657109E+02 -0.31684530105E+03  0.32384373641E+03  0.12700000000E+01 0.  1.
<mgrwt>
<rscale>  1 0.14179984E+03</rscale>
<asrwt>0</asrwt>
<pdfrwt beam="2">  1       21 0.77718914E-01 0.14179984E+03</pdfrwt>
<pdfrwt beam="1">  1       -4 0.47223372E-02 0.14179984E+03</pdfrwt>
<totfact> 0.15882811E+04</totfact>
</mgrwt>
</event>
<event>
 6    3  0.3813045E-003  0.1278131E+03  0.7818608E-02  0.1230737E+00
         -4   -1    0    0    0  501 -0.00000000000E+00  0.00000000000E+00  0.49984629420E+03  0.49984790760E+03  0.12700000000E+01 0.  1.
         21   -1    0    0  501  502  0.00000000000E+00 -0.00000000000E+00 -0.13348687115E+02  0.13348687115E+02  0.00000000000E+00 0.  1.
         25    2    1    2    0    0 -0.26087651781E+02  0.55628236337E+01  0.45108879567E+03  0.46884676486E+03  0.12499870701E+03 0.  0.
    9000005    1    3    3    0    0 -0.50037697024E+02  0.21755842098E+02  0.81233951691E+02  0.97862366087E+02  0.10000000000E+01 0.  0.
    9000005    1    3    3    0    0  0.23950045243E+02 -0.16193018464E+02  0.36985484398E+03  0.37098439877E+03  0.10000000000E+01 0.  0.
         -4    1    1    2    0  502  0.26087651781E+02 -0.55628236337E+01  0.35408811413E+02  0.44349829852E+02  0.12700000000E+01 0. -1.
<mgrwt>
<rscale>  1 0.12781310E+03</rscale>
<asrwt>0</asrwt>
<pdfrwt beam="2">  1       21 0.20536446E-02 0.12781310E+03</pdfrwt>
<pdfrwt beam="1">  1       -4 0.76904187E-01 0.12781310E+03</pdfrwt>
<totfact> 0.72990168E+04</totfact>
</mgrwt>
</event>
<event>
 6    3  0.3813045E-003  0.1276625E+03  0.7818608E-02  0.1230966E+00
         21   -1    0    0  501  502  0.00000000000E+00  0.00000000000E+00  0.16786930963E+02  0.16786930963E+02  0.00000000000E+00 0. -1.
         -4   -1    0    0    0  501 -0.00000000000E+00 -0.00000000000E+00 -0.65342764565E+03  0.65342887983E+03  0.12700000000E+01 0.  1.
         25    2    1    2    0    0  0.51864985638E+01 -0.25418033050E+02 -0.63080747075E+03  0.64359597221E+03  0.12499893644E+03 0.  0.
    9000005    1    3    3    0    0 -0.29342513459E+02  0.41980679009E+01 -0.55046615416E+03  0.55126454063E+03  0.10000000000E+01 0.  0.
    9000005    1    3    3    0    0  0.34529012022E+02 -0.29616100951E+02 -0.80341316589E+02  0.92331431582E+02  0.10000000000E+01 0.  0.
         -4    1    1    2    0  502 -0.51864985638E+01  0.25418033050E+02 -0.58332439295E+01  0.26619838584E+02  0.12700000000E+01 0. -1.
<mgrwt>
<rscale>  1 0.12766249E+03</rscale>
<asrwt>0</asrwt>
<pdfrwt beam="1">  1       21 0.25826048E-02 0.12766249E+03</pdfrwt>
<pdfrwt beam="2">  1       -4 0.10053112E+00 0.12766249E+03</pdfrwt>
<totfact> 0.27555197E+04</totfact>
</mgrwt>
</event>
<event>
 6    3  0.3813045E-003  0.1266562E+03  0.7818608E-02  0.1232503E+00
         21   -1    0    0  501  502  0.00000000000E+00  0.00000000000E+00  0.77854784532E+02  0.77854784532E+02  0.00000000000E+00 0.  1.
          4   -1    0    0  502    0 -0.00000000000E+00 -0.00000000000E+00 -0.76092937724E+02  0.76103535210E+02  0.12700000000E+01 0.  1.
         25    2    1    2    0    0  0.16151538064E+02  0.12485593309E+02 -0.14962776994E+02  0.12753696165E+03  0.12500011868E+03 0.  0.
    9000005    1    3    3    0    0  0.28088081245E+02 -0.43695339225E+02  0.24904075399E+02  0.57614546336E+02  0.10000000000E+01 0.  0.
    9000005    1    3    3    0    0 -0.11936543182E+02  0.56180932535E+02 -0.39866852393E+02  0.69922415314E+02  0.10000000000E+01 0.  0.
          4    1    1    2  501    0 -0.16151538064E+02 -0.12485593309E+02  0.16724623803E+02  0.26421358092E+02  0.12700000000E+01 0. -1.
<mgrwt>
<rscale>  1 0.12665620E+03</rscale>
<asrwt>0</asrwt>
<pdfrwt beam="1">  1       21 0.11977659E-01 0.12665620E+03</pdfrwt>
<pdfrwt beam="2">  1        4 0.11708218E-01 0.12665620E+03</pdfrwt>
<totfact> 0.13586211E+05</totfact>
</mgrwt>
</event>
<event>
 6    3  0.3813045E-003  0.1270077E+03  0.7818608E-02  0.1231965E+00
         21   -1    0    0  501  502  0.00000000000E+00  0.00000000000E+00  0.45257899905E+01  0.45257899905E+01  0.00000000000E+00 0. -1.
          4   -1    0    0  502    0 -0.00000000000E+00 -0.00000000000E+00 -0.17800565809E+04  0.17800570339E+04  0.12700000000E+01 0. -1.
         25    2    1    2    0    0  0.21923061155E+02 -0.50579467483E+01 -0.17195863690E+04  0.17242703486E+04  0.12499900506E+03 0.  0.
    9000005    1    3    3    0    0  0.22232857299E+02 -0.39616317710E+02 -0.15732130056E+04  0.15738690904E+04  0.10000000000E+01 0.  0.
    9000005    1    3    3    0    0 -0.30979614383E+00  0.34558370962E+02 -0.14637336332E+03  0.15040125819E+03  0.10000000000E+01 0.  0.
          4    1    1    2  501    0 -0.21923061155E+02  0.50579467483E+01 -0.55944421944E+02  0.60312475346E+02  0.12700000000E+01 0.  1.
<mgrwt>
<rscale>  1 0.12700770E+03</rscale>
<asrwt>0</asrwt>
<pdfrwt beam="1">  1       21 0.69627542E-03 0.12700770E+03</pdfrwt>
<pdfrwt beam="2">  1        4 0.27386859E+00 0.12700770E+03</pdfrwt>
<totfact> 0.14380817E+04</totfact>
</mgrwt>
</event>
<event>
 6    3  0.3813045E-003  0.1801424E+03  0.7818608E-02  0.1167665E+00
         21   -1    0    0  501  502  0.00000000000E+00  0.00000000000E+00  0.91019361285E+03  0.91019361285E+03  0.00000000000E+00 0.  1.
         -4   -1    0    0    0  501 -0.00000000000E+00 -0.00000000000E+00 -0.70756028674E+02  0.70767425371E+02  0.12700000000E+01 0. -1.
         25    2    1    2    0    0 -0.78923252064E+02 -0.10292806788E+03  0.58615814255E+02  0.18943888682E+03  0.12501284449E+03 0.  0.
    9000005    1    3    3    0    0  0.30694064337E+02 -0.45087799784E+02  0.29903366191E+02  0.62211305921E+02  0.10000000000E+01 0.  0.
    9000005    1    3    3    0    0 -0.10961731640E+03 -0.57840268093E+02  0.28712448065E+02  0.12722758090E+03  0.10000000000E+01 0.  0.
         -4    1    1    2    0  502  0.78923252064E+02  0.10292806788E+03  0.78082176992E+03  0.79152215140E+03  0.12700000000E+01 0.  1.
<mgrwt>
<rscale>  1 0.18014238E+03</rscale>
<asrwt>0</asrwt>
<pdfrwt beam="1">  1       21 0.14002978E+00 0.18014238E+03</pdfrwt>
<pdfrwt beam="2">  1       -4 0.10886488E-01 0.18014238E+03</pdfrwt>
<totfact> 0.98909517E+02</totfact>
</mgrwt>
</event>
<event>
 6    3  0.3813045E-003  0.1286436E+03  0.7818608E-02  0.1229482E+00
         21   -1    0    0  501  502  0.00000000000E+00  0.00000000000E+00  0.88337930518E+02  0.88337930518E+02  0.00000000000E+00 0.  1.
         -4   -1    0    0    0  501 -0.00000000000E+00 -0.00000000000E+00 -0.16722317517E+03  0.16722799769E+03  0.12700000000E+01 0. -1.
         25    2    1    2    0    0 -0.19271268831E+02  0.23513469674E+02 -0.13825785755E+03  0.18885022451E+03  0.12499962825E+03 0.  0.
    9000005    1    3    3    0    0 -0.65111894478E+02 -0.15549235826E+02 -0.58538464987E+02  0.88933061458E+02  0.10000000000E+01 0.  0.
    9000005    1    3    3    0    0  0.45840625647E+02  0.39062705500E+02 -0.79719392564E+02  0.99917163048E+02  0.10000000000E+01 0.  0.
         -4    1    1    2    0  502  0.19271268831E+02 -0.23513469674E+02  0.59372612901E+02  0.66715703707E+02  0.12700000000E+01 0.  1.
<mgrwt>
<rscale>  1 0.12864359E+03</rscale>
<asrwt>0</asrwt>
<pdfrwt beam="1">  1       21 0.13590451E-01 0.12864359E+03</pdfrwt>
<pdfrwt beam="2">  1       -4 0.25727715E-01 0.12864359E+03</pdfrwt>
<totfact> 0.26943961E+04</totfact>
</mgrwt>
</event>
<event>
 6    3  0.3813045E-003  0.1313983E+03  0.7818608E-02  0.1225396E+00
         -4   -1    0    0    0  501 -0.00000000000E+00  0.00000000000E+00  0.58099935548E+03  0.58100074352E+03  0.12700000000E+01 0. -1.
         21   -1    0    0  501  502  0.00000000000E+00 -0.00000000000E+00 -0.19074389600E+02  0.19074389600E+02  0.00000000000E+00 0.  1.
         25    2    1    2    0    0  0.29615903466E+02 -0.27660433747E+02  0.53618489253E+03  0.55205049768E+03  0.12499324652E+03 0.  0.
    9000005    1    3    3    0    0  0.74184140106E+02 -0.31572549176E+02  0.41738342958E+03  0.42510003505E+03  0.10000000000E+01 0.  0.
    9000005    1    3    3    0    0 -0.44568236641E+02  0.39121154290E+01  0.11880146294E+03  0.12695046263E+03  0.10000000000E+01 0.  0.
         -4    1    1    2    0  502 -0.29615903466E+02  0.27660433747E+02  0.25740073352E+02  0.48024635442E+02  0.12700000000E+01 0.  1.
<mgrwt>
<rscale>  1 0.13139830E+03</rscale>
<asrwt>0</asrwt>
<pdfrwt beam="2">  1       21 0.29345219E-02 0.13139830E+03</pdfrwt>
<pdfrwt beam="1">  1       -4 0.89387862E-01 0.13139830E+03</pdfrwt>
<totfact> 0.29341700E+04</totfact>
</mgrwt>
</event>
<event>
 6    3  0.3813045E-003  0.1273443E+03  0.7818608E-02  0.1231450E+00
         21   -1    0    0  501  502  0.00000000000E+00  0.00000000000E+00  0.33721920629E+02  0.33721920629E+02  0.00000000000E+00 0.  1.
          4   -1    0    0  502    0 -0.00000000000E+00 -0.00000000000E+00 -0.21649307501E+03  0.21649680003E+03  0.12700000000E+01 0.  1.
         25    2    1    2    0    0  0.14202828204E+02 -0.19803087334E+02 -0.94339692226E+02  0.15848203773E+03  0.12499078429E+03 0.  0.
    9000005    1    3    3    0    0 -0.43146664287E+02  0.24513569287E+02 -0.61156720340E+02  0.78763533192E+02  0.10000000000E+01 0.  0.
    9000005    1    3    3    0    0  0.57349492491E+02 -0.44316656621E+02 -0.33182971886E+02  0.79718504540E+02  0.10000000000E+01 0.  0.
          4    1    1    2  501    0 -0.14202828204E+02  0.19803087334E+02 -0.88431462151E+02  0.91736682930E+02  0.12700000000E+01 0. -1.
<mgrwt>
<rscale>  1 0.12734433E+03</rscale>
<asrwt>0</asrwt>
<pdfrwt beam="1">  1       21 0.51879878E-02 0.12734433E+03</pdfrwt>
<pdfrwt beam="2">  1        4 0.33308753E-01 0.12734433E+03</pdfrwt>
<totfact> 0.87669588E+04</totfact>
</mgrwt>
</event>
<event>
 6    3  0.3813045E-003  0.1269948E+03  0.7818608E-02  0.1231984E+00
         21   -1    0    0  501  502  0.00000000000E+00  0.00000000000E+00  0.36368397870E+03  0.36368397870E+03  0.00000000000E+00 0. -1.
         -4   -1    0    0    0  501 -0.00000000000E+00 -0.00000000000E+00 -0.11545061214E+03  0.11545759717E+03  0.12700000000E+01 0.  1.
         25    2    1    2    0    0  0.19298489532E+02 -0.11232623014E+02 -0.80035871017E+02  0.15011132080E+03  0.12501625680E+03 0.  0.
    9000005    1    3    3    0    0 -0.43297812744E+02  0.30542632244E+01  0.48350971693E+01  0.43685321069E+02  0.10000000000E+01 0.  0.
    9000005    1    3    3    0    0  0.62596302276E+02 -0.14286886238E+02 -0.84870968186E+02  0.10642599973E+03  0.10000000000E+01 0.  0.
         -4    1    1    2    0  502 -0.19298489532E+02  0.11232623014E+02  0.32826923758E+03  0.32903025508E+03  0.12700000000E+01 0. -1.
<mgrwt>
<rscale>  1 0.12699476E+03</rscale>
<asrwt>0</asrwt>
<pdfrwt beam="1">  1       21 0.55951381E-01 0.12699476E+03</pdfrwt>
<pdfrwt beam="2">  1       -4 0.17762341E-01 0.12699476E+03</pdfrwt>
<totfact> 0.34739466E+03</totfact>
</mgrwt>
</event>
<event>
 6    3  0.3813045E-003  0.1272820E+03  0.7818608E-02  0.1231545E+00
          4   -1    0    0  502    0 -0.00000000000E+00  0.00000000000E+00  0.20165726225E+03  0.20166126132E+03  0.12700000000E+01 0. -1.
         21   -1    0    0  501  502  0.00000000000E+00 -0.00000000000E+00 -0.29348204364E+02  0.29348204364E+02  0.00000000000E+00 0. -1.
         25    2    1    2    0    0 -0.97961142594E+01 -0.21874781812E+02  0.15863530406E+03  0.20338602677E+03  0.12500498493E+03 0.  0.
    9000005    1    3    3    0    0 -0.34899773282E+02  0.29448834853E+02  0.13324513709E+03  0.14085629062E+03  0.10000000000E+01 0.  0.
    9000005    1    3    3    0    0  0.25103659023E+02 -0.51323616664E+02  0.25390166967E+02  0.62529736146E+02  0.10000000000E+01 0.  0.
          4    1    1    2  501    0  0.97961142594E+01  0.21874781812E+02  0.13673753825E+02  0.27623438916E+02  0.12700000000E+01 0.  1.
<mgrwt>
<rscale>  1 0.12728203E+03</rscale>
<asrwt>0</asrwt>
<pdfrwt beam="2">  1       21 0.45151085E-02 0.12728203E+03</pdfrwt>
<pdfrwt beam="1">  1        4 0.31026615E-01 0.12728203E+03</pdfrwt>
<totfact> 0.12666853E+05</totfact>
</mgrwt>
</event>
<event>
 6    3  0.3813045E-003  0.1339897E+03  0.7818608E-02  0.1221653E+00
         21   -1    0    0  501  502  0.00000000000E+00  0.00000000000E+00  0.10356881407E+03  0.10356881407E+03  0.00000000000E+00 0.  1.
         -4   -1    0    0    0  501 -0.00000000000E+00 -0.00000000000E+00 -0.17747431722E+03  0.17747886120E+03  0.12700000000E+01 0. -1.
         25    2    1    2    0    0  0.46085703970E-01 -0.48231402568E+02 -0.14352203254E+03  0.19634617362E+03  0.12500790277E+03 0.  0.
    9000005    1    3    3    0    0 -0.11952939752E+02 -0.59407458621E+02 -0.95301630553E+01  0.61350981380E+02  0.10000000000E+01 0.  0.
    9000005    1    3    3    0    0  0.11999025456E+02  0.11176056053E+02 -0.13399186948E+03  0.13499519224E+03  0.10000000000E+01 0.  0.
         -4    1    1    2    0  502 -0.46085703970E-01  0.48231402568E+02  0.69616529390E+02  0.84701501650E+02  0.12700000000E+01 0.  1.
<mgrwt>
<rscale>  1 0.13398972E+03</rscale>
<asrwt>0</asrwt>
<pdfrwt beam="1">  1       21 0.15933664E-01 0.13398972E+03</pdfrwt>
<pdfrwt beam="2">  1       -4 0.27304689E-01 0.13398972E+03</pdfrwt>
<totfact> 0.18193071E+04</totfact>
</mgrwt>
</event>
<event>
 6    3  0.3813045E-003  0.1287849E+03  0.7818608E-02  0.1229270E+00
         21   -1    0    0  501  502  0.00000000000E+00  0.00000000000E+00  0.20547310107E+02  0.20547310107E+02  0.00000000000E+00 0.  1.
          4   -1    0    0  502    0 -0.00000000000E+00 -0.00000000000E+00 -0.87125153465E+03  0.87125246027E+03  0.12700000000E+01 0. -1.
         25    2    1    2    0    0 -0.16604730754E+02 -0.25995524437E+02 -0.85123599892E+03  0.86092291727E+03  0.12503623171E+03 0.  0.
    9000005    1    3    3    0    0  0.11252771141E+02  0.11231883001E+02 -0.10903752212E+02  0.19304710990E+02  0.10000000000E+01 0.  0.
    9000005    1    3    3    0    0 -0.27857501895E+02 -0.37227407438E+02 -0.84033224671E+03  0.84161820628E+03  0.10000000000E+01 0.  0.
          4    1    1    2  501    0  0.16604730754E+02  0.25995524437E+02  0.53177437884E+00  0.30876853113E+02  0.12700000000E+01 0.  1.
<mgrwt>
<rscale>  1 0.12878487E+03</rscale>
<asrwt>0</asrwt>
<pdfrwt beam="1">  1       21 0.31611250E-02 0.12878487E+03</pdfrwt>
<pdfrwt beam="2">  1        4 0.13404177E+00 0.12878487E+03</pdfrwt>
<totfact> 0.99803117E+03</totfact>
</mgrwt>
</event>
<event>
 6    3  0.3813045E-003  0.1276573E+03  0.7818608E-02  0.1230974E+00
          4   -1    0    0  502    0 -0.00000000000E+00  0.00000000000E+00  0.93701776434E+03  0.93701862499E+03  0.12700000000E+01 0.  1.
         21   -1    0    0  501  502  0.00000000000E+00 -0.00000000000E+00 -0.39697919882E+02  0.39697919882E+02  0.00000000000E+00 0. -1.
         25    2    1    2    0    0 -0.25171565640E+02  0.61235421803E+01  0.92788756548E+03  0.93662784379E+03  0.12500111238E+03 0.  0.
    9000005    1    3    3    0    0 -0.18502016806E+02  0.63030687853E+02  0.61836239148E+03  0.62184261629E+03  0.10000000000E+01 0.  0.
    9000005    1    3    3    0    0 -0.66695488343E+01 -0.56907145673E+02  0.30952517401E+03  0.31478522750E+03  0.10000000000E+01 0.  0.
          4    1    1    2  501    0  0.25171565640E+02 -0.61235421803E+01 -0.30567721030E+02  0.40088701083E+02  0.12700000000E+01 0. -1.
<mgrwt>
<rscale>  1 0.12765729E+03</rscale>
<asrwt>0</asrwt>
<pdfrwt beam="2">  1       21 0.61073730E-02 0.12765729E+03</pdfrwt>
<pdfrwt beam="1">  1        4 0.14415819E+00 0.12765729E+03</pdfrwt>
<totfact> 0.27720694E+03</totfact>
</mgrwt>
</event>
<event>
 6    3  0.3813045E-003  0.1270975E+03  0.7818608E-02  0.1231827E+00
          4   -1    0    0  502    0 -0.00000000000E+00  0.00000000000E+00  0.53562259175E+02  0.53577313370E+02  0.12700000000E+01 0. -1.
         21   -1    0    0  501  502  0.00000000000E+00 -0.00000000000E+00 -0.45808998355E+03  0.45808998355E+03  0.00000000000E+00 0.  1.
         25    2    1    2    0    0 -0.15785098334E+01  0.22998513267E+02 -0.22659315767E+02  0.12910159315E+03  0.12498941338E+03 0.  0.
    9000005    1    3    3    0    0 -0.43949205588E+02 -0.33875729650E+02 -0.16530041003E+02  0.57908030416E+02  0.10000000000E+01 0.  0.
    9000005    1    3    3    0    0  0.42370695754E+02  0.56874242916E+02 -0.61292747639E+01  0.71193562737E+02  0.10000000000E+01 0.  0.
          4    1    1    2  501    0  0.15785098334E+01 -0.22998513267E+02 -0.38186840861E+03  0.38256570377E+03  0.12700000000E+01 0.  1.
<mgrwt>
<rscale>  1 0.12709751E+03</rscale>
<asrwt>0</asrwt>
<pdfrwt beam="2">  1       21 0.70475382E-01 0.12709751E+03</pdfrwt>
<pdfrwt beam="1">  1        4 0.82416410E-02 0.12709751E+03</pdfrwt>
<totfact> 0.78918921E+03</totfact>
</mgrwt>
</event>
<event>
 6    3  0.3813045E-003  0.1273516E+03  0.7818608E-02  0.1231439E+00
         21   -1    0    0  501  502  0.00000000000E+00  0.00000000000E+00  0.34015408668E+02  0.34015408668E+02  0.00000000000E+00 0.  1.
         -4   -1    0    0    0  501 -0.00000000000E+00 -0.00000000000E+00 -0.28914405467E+03  0.28914684375E+03  0.12700000000E+01 0.  1.
         25    2    1    2    0    0  0.16071932708E+02  0.18345935554E+02 -0.26714173495E+03  0.29594447185E+03  0.12499417385E+03 0.  0.
    9000005    1    3    3    0    0  0.74507131235E+01  0.48485582890E+02 -0.25890976297E+03  0.26351779871E+03  0.10000000000E+01 0.  0.
    9000005    1    3    3    0    0  0.86212195845E+01 -0.30139647336E+02 -0.82319719822E+01  0.32426673147E+02  0.10000000000E+01 0.  0.
         -4    1    1    2    0  502 -0.16071932708E+02 -0.18345935554E+02  0.12013088955E+02  0.27217780559E+02  0.12700000000E+01 0. -1.
<mgrwt>
<rscale>  1 0.12735158E+03</rscale>
<asrwt>0</asrwt>
<pdfrwt beam="1">  1       21 0.52331398E-02 0.12735158E+03</pdfrwt>
<pdfrwt beam="2">  1       -4 0.44485739E-01 0.12735158E+03</pdfrwt>
<totfact> 0.49080902E+04</totfact>
</mgrwt>
</event>
<event>
 6    3  0.3813045E-003  0.1300416E+03  0.7818608E-02  0.1227394E+00
         -4   -1    0    0    0  501 -0.00000000000E+00  0.00000000000E+00  0.82036006516E+03  0.82036104821E+03  0.12700000000E+01 0.  1.
         21   -1    0    0  501  502  0.00000000000E+00 -0.00000000000E+00 -0.84505523514E+01  0.84505523514E+01  0.00000000000E+00 0.  1.
         25    2    1    2    0    0  0.11293543931E+02 -0.34038799025E+02  0.60564992928E+03  0.61945350381E+03  0.12499849030E+03 0.  0.
    9000005    1    3    3    0    0  0.13519878425E+02  0.35089567450E+02  0.71019394792E+02  0.80366779785E+02  0.10000000000E+01 0.  0.
    9000005    1    3    3    0    0 -0.22263344946E+01 -0.69128366475E+02  0.53463053449E+03  0.53908672403E+03  0.10000000000E+01 0.  0.
         -4    1    1    2    0  502 -0.11293543931E+02  0.34038799025E+02  0.20625958353E+03  0.20935809675E+03  0.12700000000E+01 0. -1.
<mgrwt>
<rscale>  1 0.13004156E+03</rscale>
<asrwt>0</asrwt>
<pdfrwt beam="2">  1       21 0.13000856E-02 0.13004156E+03</pdfrwt>
<pdfrwt beam="1">  1       -4 0.12621659E+00 0.13004156E+03</pdfrwt>
<totfact> 0.48609649E+04</totfact>
</mgrwt>
</event>
<event>
 6    3  0.3813045E-003  0.1368734E+03  0.7818608E-02  0.1217599E+00
         21   -1    0    0  501  502  0.00000000000E+00  0.00000000000E+00  0.32990866003E+03  0.32990866003E+03  0.00000000000E+00 0.  1.
          4   -1    0    0  502    0 -0.00000000000E+00 -0.00000000000E+00 -0.84375323998E+02  0.84384881346E+02  0.12700000000E+01 0. -1.
         25    2    1    2    0    0  0.55434258638E+02  0.60430960211E+01 -0.24076271923E+02  0.13897476315E+03  0.12499936753E+03 0.  0.
    9000005    1    3    3    0    0  0.77227449917E+02  0.45454887847E+02 -0.41381571856E+01  0.89712597748E+02  0.10000000000E+01 0.  0.
    9000005    1    3    3    0    0 -0.21793191279E+02 -0.39411791826E+02 -0.19938114738E+02  0.49262165405E+02  0.10000000000E+01 0.  0.
          4    1    1    2  501    0 -0.55434258638E+02 -0.60430960211E+01  0.26960960796E+03  0.27531877823E+03  0.12700000000E+01 0.  1.
<mgrwt>
<rscale>  1 0.13687336E+03</rscale>
<asrwt>0</asrwt>
<pdfrwt beam="1">  1       21 0.50755178E-01 0.13687336E+03</pdfrwt>
<pdfrwt beam="2">  1        4 0.12981742E-01 0.13687336E+03</pdfrwt>
<totfact> 0.73944205E+03</totfact>
</mgrwt>
</event>
<event>
 6    3  0.3813045E-003  0.1605462E+03  0.7818608E-02  0.1188081E+00
         21   -1    0    0  501  502  0.00000000000E+00  0.00000000000E+00  0.13340010636E+03  0.13340010636E+03  0.00000000000E+00 0.  1.
          4   -1    0    0  502    0 -0.00000000000E+00 -0.00000000000E+00 -0.15703306876E+03  0.15703820422E+03  0.12700000000E+01 0. -1.
         25    2    1    2    0    0 -0.51608565527E+02  0.86527280214E+02 -0.75161787160E+02  0.17726920288E+03  0.12499864712E+03 0.  0.
    9000005    1    3    3    0    0 -0.51881516637E+02 -0.18877956204E+01  0.11801162413E+02  0.53249628874E+02  0.10000000000E+01 0.  0.
    9000005    1    3    3    0    0  0.27295111060E+00  0.88415075834E+02 -0.86962949573E+02  0.12401957400E+03  0.10000000000E+01 0.  0.
          4    1    1    2  501    0  0.51608565527E+02 -0.86527280214E+02  0.51528824759E+02  0.11316910770E+03  0.12700000000E+01 0.  1.
<mgrwt>
<rscale>  1 0.16054618E+03</rscale>
<asrwt>0</asrwt>
<pdfrwt beam="1">  1       21 0.20523093E-01 0.16054618E+03</pdfrwt>
<pdfrwt beam="2">  1        4 0.24159793E-01 0.16054618E+03</pdfrwt>
<totfact> 0.14572269E+04</totfact>
</mgrwt>
</event>
<event>
 6    3  0.3813045E-003  0.1293745E+03  0.7818608E-02  0.1228387E+00
          4   -1    0    0  502    0 -0.00000000000E+00  0.00000000000E+00  0.75584863730E+02  0.75595532442E+02  0.12700000000E+01 0. -1.
         21   -1    0    0  501  502  0.00000000000E+00 -0.00000000000E+00 -0.16787982946E+03  0.16787982946E+03  0.00000000000E+00 0.  1.
         25    2    1    2    0    0  0.25562364459E+02 -0.21452792950E+02  0.15803248678E+02  0.13033609524E+03  0.12499639296E+03 0.  0.
    9000005    1    3    3    0    0 -0.27410822358E+02 -0.37592514738E+02 -0.32568827965E+02  0.56800342443E+02  0.10000000000E+01 0.  0.
    9000005    1    3    3    0    0  0.52973186817E+02  0.16139721788E+02  0.48372076644E+02  0.73535752799E+02  0.10000000000E+01 0.  0.
          4    1    1    2  501    0 -0.25562364459E+02  0.21452792950E+02 -0.10809821441E+03  0.11313926666E+03  0.12700000000E+01 0.  1.
<mgrwt>
<rscale>  1 0.12937448E+03</rscale>
<asrwt>0</asrwt>
<pdfrwt beam="2">  1       21 0.25827666E-01 0.12937448E+03</pdfrwt>
<pdfrwt beam="1">  1        4 0.11629631E-01 0.12937448E+03</pdfrwt>
<totfact> 0.33799074E+04</totfact>
</mgrwt>
</event>
<event>
 6    3  0.3813045E-003  0.1266489E+03  0.7818608E-02  0.1232515E+00
         21   -1    0    0  501  502  0.00000000000E+00  0.00000000000E+00  0.11520598718E+02  0.11520598718E+02  0.00000000000E+00 0. -1.
         -4   -1    0    0    0  501 -0.00000000000E+00 -0.00000000000E+00 -0.47007306214E+03  0.47007477772E+03  0.12700000000E+01 0. -1.
         25    2    1    2    0    0 -0.18705112746E+02  0.80584740345E+01 -0.38760896851E+03  0.40777523950E+03  0.12500045295E+03 0.  0.
    9000005    1    3    3    0    0 -0.69354821085E+02 -0.11414150493E+02 -0.18140786266E+03  0.19455124434E+03  0.10000000000E+01 0.  0.
    9000005    1    3    3    0    0  0.50649708339E+02  0.19472624528E+02 -0.20620110585E+03  0.21322399516E+03  0.10000000000E+01 0.  0.
         -4    1    1    2    0  502  0.18705112746E+02 -0.80584740345E+01 -0.70943494913E+02  0.73820136935E+02  0.12700000000E+01 0.  1.
<mgrwt>
<rscale>  1 0.12664886E+03</rscale>
<asrwt>0</asrwt>
<pdfrwt beam="1">  1       21 0.17723998E-02 0.12664886E+03</pdfrwt>
<pdfrwt beam="2">  1       -4 0.72324448E-01 0.12664886E+03</pdfrwt>
<totfact> 0.10562729E+05</totfact>
</mgrwt>
</event>
<event>
 6    3  0.3813045E-003  0.1353501E+03  0.7818608E-02  0.1219726E+00
         -4   -1    0    0    0  501 -0.00000000000E+00  0.00000000000E+00  0.11457184857E+03  0.11457888717E+03  0.12700000000E+01 0. -1.
         21   -1    0    0  501  502  0.00000000000E+00 -0.00000000000E+00 -0.14005878125E+03  0.14005878125E+03  0.00000000000E+00 0.  1.
         25    2    1    2    0    0 -0.46264894124E+02  0.23508335003E+02  0.65130134594E+02  0.15020516379E+03  0.12500629806E+03 0.  0.
    9000005    1    3    3    0    0  0.22102879963E+02 -0.41839480234E+01  0.72643609811E+02  0.76053512542E+02  0.10000000000E+01 0.  0.
    9000005    1    3    3    0    0 -0.68367774087E+02  0.27692283027E+02 -0.75134752161E+01  0.74151651247E+02  0.10000000000E+01 0.  0.
         -4    1    1    2    0  502  0.46264894124E+02 -0.23508335003E+02 -0.90617067270E+02  0.10443250463E+03  0.12700000000E+01 0.  1.
<mgrwt>
<rscale>  1 0.13535013E+03</rscale>
<asrwt>0</asrwt>
<pdfrwt beam="2">  1       21 0.21547505E-01 0.13535013E+03</pdfrwt>
<pdfrwt beam="1">  1       -4 0.17627423E-01 0.13535013E+03</pdfrwt>
<totfact> 0.23172669E+04</totfact>
</mgrwt>
</event>
<event>
 6    3  0.3813045E-003  0.1266630E+03  0.7818608E-02  0.1232493E+00
         -4   -1    0    0    0  501 -0.00000000000E+00  0.00000000000E+00  0.43534831984E+02  0.43553352292E+02  0.12700000000E+01 0. -1.
         21   -1    0    0  501  502  0.00000000000E+00 -0.00000000000E+00 -0.14876263152E+03  0.14876263152E+03  0.00000000000E+00 0. -1.
         25    2    1    2    0    0 -0.16696442395E+02 -0.11888045719E+02 -0.55069212296E+02  0.13811641192E+03  0.12499371296E+03 0.  0.
    9000005    1    3    3    0    0  0.38989227305E+02 -0.43964426870E+02 -0.99946537902E+01  0.59614794978E+02  0.10000000000E+01 0.  0.
    9000005    1    3    3    0    0 -0.55685669700E+02  0.32076381151E+02 -0.45074558505E+02  0.78501616940E+02  0.10000000000E+01 0.  0.
         -4    1    1    2    0  502  0.16696442395E+02  0.11888045719E+02 -0.50158587241E+02  0.54199571896E+02  0.12700000000E+01 0.  1.
<mgrwt>
<rscale>  1 0.12666304E+03</rscale>
<asrwt>0</asrwt>
<pdfrwt beam="2">  1       21 0.22886559E-01 0.12666304E+03</pdfrwt>
<pdfrwt beam="1">  1       -4 0.66995081E-02 0.12666304E+03</pdfrwt>
<totfact> 0.10619136E+05</totfact>
</mgrwt>
</event>
<event>
 6    3  0.3813045E-003  0.1282773E+03  0.7818608E-02  0.1230035E+00
         21   -1    0    0  501  502  0.00000000000E+00  0.00000000000E+00  0.21143579214E+02  0.21143579214E+02  0.00000000000E+00 0.  1.
          4   -1    0    0  502    0 -0.00000000000E+00 -0.00000000000E+00 -0.96695444566E+03  0.96695527967E+03  0.12700000000E+01 0. -1.
         25    2    1    2    0    0 -0.26166663096E+02  0.12013476440E+02 -0.95031042239E+03  0.95892906668E+03  0.12500415254E+03 0.  0.
    9000005    1    3    3    0    0 -0.46885401157E+02 -0.32040785578E+02 -0.77209422472E+03  0.77418043416E+03  0.10000000000E+01 0.  0.
    9000005    1    3    3    0    0  0.20718738061E+02  0.44054262018E+02 -0.17821619767E+03  0.18474863252E+03  0.10000000000E+01 0.  0.
          4    1    1    2  501    0  0.26166663096E+02 -0.12013476440E+02  0.44995559396E+01  0.29169792207E+02  0.12700000000E+01 0.  1.
<mgrwt>
<rscale>  1 0.12827726E+03</rscale>
<asrwt>0</asrwt>
<pdfrwt beam="1">  1       21 0.32528589E-02 0.12827726E+03</pdfrwt>
<pdfrwt beam="2">  1        4 0.14876519E+00 0.12827726E+03</pdfrwt>
<totfact> 0.73345661E+03</totfact>
</mgrwt>
</event>
<event>
 6    3  0.3813045E-003  0.1300730E+03  0.7818608E-02  0.1227347E+00
          4   -1    0    0  502    0 -0.00000000000E+00  0.00000000000E+00  0.48803246243E+02  0.48819767962E+02  0.12700000000E+01 0. -1.
         21   -1    0    0  501  502  0.00000000000E+00 -0.00000000000E+00 -0.26728248463E+03  0.26728248463E+03  0.00000000000E+00 0. -1.
         25    2    1    2    0    0  0.15593473747E+02  0.32422201813E+02 -0.43041871858E+02  0.13700943289E+03  0.12499850549E+03 0.  0.
    9000005    1    3    3    0    0  0.25748250209E+02  0.27205474612E+02 -0.85330484168E+02  0.93195502929E+02  0.10000000000E+01 0.  0.
    9000005    1    3    3    0    0 -0.10154776462E+02  0.52167272009E+01  0.42288612310E+02  0.43813929963E+02  0.10000000000E+01 0.  0.
          4    1    1    2  501    0 -0.15593473747E+02 -0.32422201813E+02 -0.17543736653E+03  0.17909281970E+03  0.12700000000E+01 0.  1.
<mgrwt>
<rscale>  1 0.13007299E+03</rscale>
<asrwt>0</asrwt>
<pdfrwt beam="2">  1       21 0.41120382E-01 0.13007299E+03</pdfrwt>
<pdfrwt beam="1">  1        4 0.75096949E-02 0.13007299E+03</pdfrwt>
<totfact> 0.28420154E+04</totfact>
</mgrwt>
</event>
<event>
 6    3  0.3813045E-003  0.1302809E+03  0.7818608E-02  0.1227040E+00
         -4   -1    0    0    0  501 -0.00000000000E+00  0.00000000000E+00  0.55978038913E+03  0.55978182978E+03  0.12700000000E+01 0. -1.
         21   -1    0    0  501  502  0.00000000000E+00 -0.00000000000E+00 -0.14733088007E+02  0.14733088007E+02  0.00000000000E+00 0.  1.
         25    2    1    2    0    0 -0.84128773114E+01  0.35760973498E+02  0.49828087882E+03  0.51503101337E+03  0.12499394707E+03 0.  0.
    9000005    1    3    3    0    0  0.82756155832E+01  0.41850971710E+02  0.47320895258E+02  0.63720144180E+02  0.10000000000E+01 0.  0.
    9000005    1    3    3    0    0 -0.16688492895E+02 -0.60899982120E+01  0.45095998356E+03  0.45131086919E+03  0.10000000000E+01 0.  0.
         -4    1    1    2    0  502  0.84128773114E+01 -0.35760973498E+02  0.46766422303E+02  0.59483904421E+02  0.12700000000E+01 0.  1.
<mgrwt>
<rscale>  1 0.13028089E+03</rscale>
<asrwt>0</asrwt>
<pdfrwt beam="2">  1       21 0.22666294E-02 0.13028089E+03</pdfrwt>
<pdfrwt beam="1">  1       -4 0.86124365E-01 0.13028089E+03</pdfrwt>
<totfact> 0.48543946E+04</totfact>
</mgrwt>
</event>
<event>
 6    3  0.3813045E-003  0.1291438E+03  0.7818608E-02  0.1228732E+00
         21   -1    0    0  501  502  0.00000000000E+00  0.00000000000E+00  0.21871403811E+02  0.21871403811E+02  0.00000000000E+00 0.  1.
         -4   -1    0    0    0  501 -0.00000000000E+00 -0.00000000000E+00 -0.31782932671E+03  0.31783186407E+03  0.12700000000E+01 0.  1.
         25    2    1    2    0    0 -0.24376584488E+01  0.32367848515E+02 -0.26517361372E+03  0.29494942572E+03  0.12499799408E+03 0.  0.
    9000005    1    3    3    0    0 -0.36120311247E+02  0.35514379114E+02 -0.25445292122E+03  0.25944794685E+03  0.10000000000E+01 0.  0.
    9000005    1    3    3    0    0  0.33682652798E+02 -0.31465305996E+01 -0.10720692503E+02  0.35501478872E+02  0.10000000000E+01 0.  0.
         -4    1    1    2    0  502  0.24376584488E+01 -0.32367848515E+02 -0.30784309179E+02  0.44753842157E+02  0.12700000000E+01 0. -1.
<mgrwt>
<rscale>  1 0.12914379E+03</rscale>
<asrwt>0</asrwt>
<pdfrwt beam="1">  1       21 0.33648315E-02 0.12914379E+03</pdfrwt>
<pdfrwt beam="2">  1       -4 0.48899849E-01 0.12914379E+03</pdfrwt>
<totfact> 0.84808333E+04</totfact>
</mgrwt>
</event>
<event>
 6    3  0.3813045E-003  0.1268505E+03  0.7818608E-02  0.1232205E+00
         -4   -1    0    0    0  501 -0.00000000000E+00  0.00000000000E+00  0.62007577341E+03  0.62007707398E+03  0.12700000000E+01 0.  1.
         21   -1    0    0  501  502  0.00000000000E+00 -0.00000000000E+00 -0.12645606886E+02  0.12645606886E+02  0.00000000000E+00 0.  1.
         25    2    1    2    0    0 -0.10973273239E+02  0.18590978287E+02  0.59371503577E+03  0.60711496892E+03  0.12500001837E+03 0.  0.
    9000005    1    3    3    0    0  0.13947936555E+02 -0.37594100403E+02  0.43603539504E+03  0.43787638329E+03  0.10000000000E+01 0.  0.
    9000005    1    3    3    0    0 -0.24921209794E+02  0.56185078690E+02  0.15767964073E+03  0.16923858563E+03  0.10000000000E+01 0.  0.
         -4    1    1    2    0  502  0.10973273239E+02 -0.18590978287E+02  0.13715130759E+02  0.25607711944E+02  0.12700000000E+01 0. -1.
<mgrwt>
<rscale>  1 0.12685047E+03</rscale>
<asrwt>0</asrwt>
<pdfrwt beam="2">  1       21 0.19454785E-02 0.12685047E+03</pdfrwt>
<pdfrwt beam="1">  1       -4 0.95401255E-01 0.12685047E+03</pdfrwt>
<totfact> 0.49137809E+04</totfact>
</mgrwt>
</event>
<event>
 6    3  0.3813045E-003  0.1629267E+03  0.7818608E-02  0.1185432E+00
         -4   -1    0    0    0  501 -0.00000000000E+00  0.00000000000E+00  0.39509298051E+03  0.39509502167E+03  0.12700000000E+01 0. -1.
         21   -1    0    0  501  502  0.00000000000E+00 -0.00000000000E+00 -0.45614296736E+02  0.45614296736E+02  0.00000000000E+00 0. -1.
         25    2    1    2    0    0  0.10422451118E+03  0.74536871555E+01  0.19343630927E+03  0.25290851510E+03  0.12500722011E+03 0.  0.
    9000005    1    3    3    0    0 -0.15004721804E+01 -0.40998304834E+02  0.82685544107E+02  0.92309325749E+02  0.10000000000E+01 0.  0.
    9000005    1    3    3    0    0  0.10572498336E+03  0.48451991990E+02  0.11075076517E+03  0.16059918935E+03  0.10000000000E+01 0.  0.
         -4    1    1    2    0  502 -0.10422451118E+03 -0.74536871555E+01  0.15604237450E+03  0.18780080331E+03  0.12700000000E+01 0.  1.
<mgrwt>
<rscale>  1 0.16292671E+03</rscale>
<asrwt>0</asrwt>
<pdfrwt beam="2">  1       21 0.70175844E-02 0.16292671E+03</pdfrwt>
<pdfrwt beam="1">  1       -4 0.60785050E-01 0.16292671E+03</pdfrwt>
<totfact> 0.16124943E+04</totfact>
</mgrwt>
</event>
<event>
 6    3  0.3813045E-003  0.1269498E+03  0.7818608E-02  0.1232053E+00
         -4   -1    0    0    0  501 -0.00000000000E+00  0.00000000000E+00  0.28923764565E+02  0.28951633056E+02  0.12700000000E+01 0. -1.
         21   -1    0    0  501  502  0.00000000000E+00 -0.00000000000E+00 -0.21778162942E+03  0.21778162942E+03  0.00000000000E+00 0. -1.
         25    2    1    2    0    0  0.62427794650E+01 -0.21247987665E+02 -0.12113728901E+03  0.17547220321E+03  0.12500320810E+03 0.  0.
    9000005    1    3    3    0    0 -0.53058629871E+02 -0.30893222445E+02 -0.86611891359E+02  0.10617075455E+03  0.10000000000E+01 0.  0.
    9000005    1    3    3    0    0  0.59301409336E+02  0.96452347802E+01 -0.34525397649E+02  0.69301448657E+02  0.10000000000E+01 0.  0.
         -4    1    1    2    0  502 -0.62427794650E+01  0.21247987665E+02 -0.67720575848E+02  0.71261059271E+02  0.12700000000E+01 0.  1.
<mgrwt>
<rscale>  1 0.12694980E+03</rscale>
<asrwt>0</asrwt>
<pdfrwt beam="2">  1       21 0.33504866E-01 0.12694980E+03</pdfrwt>
<pdfrwt beam="1">  1       -4 0.44522386E-02 0.12694980E+03</pdfrwt>
<totfact> 0.99156765E+04</totfact>
</mgrwt>
</event>
<event>
 6    3  0.3813045E-003  0.1278520E+03  0.7818608E-02  0.1230678E+00
          4   -1    0    0  502    0 -0.00000000000E+00  0.00000000000E+00  0.59653201541E+03  0.59653336731E+03  0.12700000000E+01 0.  1.
         21   -1    0    0  501  502  0.00000000000E+00 -0.00000000000E+00 -0.30904417354E+02  0.30904417354E+02  0.00000000000E+00 0. -1.
         25    2    1    2    0    0  0.25392594921E+02  0.87766744434E+01  0.58204833000E+03  0.59592481545E+03  0.12499725324E+03 0.  0.
    9000005    1    3    3    0    0  0.21809420105E+02  0.31239402389E+02  0.56777372824E+03  0.56905145421E+03  0.10000000000E+01 0.  0.
    9000005    1    3    3    0    0  0.35831748157E+01 -0.22462727946E+02  0.14274601766E+02  0.26873361236E+02  0.10000000000E+01 0.  0.
          4    1    1    2  501    0 -0.25392594921E+02 -0.87766744434E+01 -0.16420731944E+02  0.31512969214E+02  0.12700000000E+01 0. -1.
<mgrwt>
<rscale>  1 0.12785197E+03</rscale>
<asrwt>0</asrwt>
<pdfrwt beam="2">  1       21 0.47545262E-02 0.12785197E+03</pdfrwt>
<pdfrwt beam="1">  1        4 0.91776259E-01 0.12785197E+03</pdfrwt>
<totfact> 0.12391283E+04</totfact>
</mgrwt>
</event>
<event>
 6    3  0.3813045E-003  0.1267581E+03  0.7818608E-02  0.1232347E+00
          4   -1    0    0  502    0 -0.00000000000E+00  0.00000000000E+00  0.90552219353E+02  0.90561124827E+02  0.12700000000E+01 0.  1.
         21   -1    0    0  501  502  0.00000000000E+00 -0.00000000000E+00 -0.18886949005E+03  0.18886949005E+03  0.00000000000E+00 0. -1.
         25    2    1    2    0    0  0.12478155919E+02 -0.16934630996E+02  0.45047921182E+02  0.13452486190E+03  0.12500054866E+03 0.  0.
    9000005    1    3    3    0    0  0.30025985942E+02 -0.53197291106E+02 -0.14340857652E+02  0.62754854880E+02  0.10000000000E+01 0.  0.
    9000005    1    3    3    0    0 -0.17547830023E+02  0.36262660110E+02  0.59388778835E+02  0.71770007024E+02  0.10000000000E+01 0.  0.
          4    1    1    2  501    0 -0.12478155919E+02  0.16934630996E+02 -0.14336519187E+03  0.14490575297E+03  0.12700000000E+01 0. -1.
<mgrwt>
<rscale>  1 0.12675813E+03</rscale>
<asrwt>0</asrwt>
<pdfrwt beam="2">  1       21 0.29056844E-01 0.12675813E+03</pdfrwt>
<pdfrwt beam="1">  1        4 0.13932124E-01 0.12675813E+03</pdfrwt>
<totfact> 0.19750966E+04</totfact>
</mgrwt>
</event>
<event>
 6    3  0.3813045E-003  0.1290969E+03  0.7818608E-02  0.1228802E+00
          4   -1    0    0  502    0 -0.00000000000E+00  0.00000000000E+00  0.23989018831E+02  0.24022612774E+02  0.12700000000E+01 0.  1.
         21   -1    0    0  501  502  0.00000000000E+00 -0.00000000000E+00 -0.29825934956E+03  0.29825934956E+03  0.00000000000E+00 0. -1.
         25    2    1    2    0    0 -0.25847150027E+02 -0.19304851383E+02 -0.17214077797E+03  0.21517075425E+03  0.12500101436E+03 0.  0.
    9000005    1    3    3    0    0  0.26004732539E+02  0.39365177395E+02 -0.90394566070E+02  0.10197078445E+03  0.10000000000E+01 0.  0.
    9000005    1    3    3    0    0 -0.51851882566E+02 -0.58670028778E+02 -0.81746211901E+02  0.11319996980E+03  0.10000000000E+01 0.  0.
          4    1    1    2  501    0  0.25847150027E+02  0.19304851383E+02 -0.10212955276E+03  0.10711120809E+03  0.12700000000E+01 0. -1.
<mgrwt>
<rscale>  1 0.12909689E+03</rscale>
<asrwt>0</asrwt>
<pdfrwt beam="2">  1       21 0.45886051E-01 0.12909689E+03</pdfrwt>
<pdfrwt beam="1">  1        4 0.36934106E-02 0.12909689E+03</pdfrwt>
<totfact> 0.71409833E+04</totfact>
</mgrwt>
</event>
<event>
 6    3  0.3813045E-003  0.1388059E+03  0.7818608E-02  0.1214945E+00
         21   -1    0    0  501  502  0.00000000000E+00  0.00000000000E+00  0.27987075579E+02  0.27987075579E+02  0.00000000000E+00 0.  1.
          4   -1    0    0  502    0 -0.00000000000E+00 -0.00000000000E+00 -0.52437981930E+03  0.52438135721E+03  0.12700000000E+01 0. -1.
         25    2    1    2    0    0  0.54918128947E+02  0.25002272799E+02 -0.46306840880E+03  0.48342469682E+03  0.12500388687E+03 0.  0.
    9000005    1    3    3    0    0 -0.23304557606E+02 -0.27594917593E+02 -0.65213413765E+02  0.74554484889E+02  0.10000000000E+01 0.  0.
    9000005    1    3    3    0    0  0.78222686553E+02  0.52597190392E+02 -0.39785499503E+03  0.40887021193E+03  0.10000000000E+01 0.  0.
          4    1    1    2  501    0 -0.54918128947E+02 -0.25002272799E+02 -0.33324334928E+02  0.68943735978E+02  0.12700000000E+01 0.  1.
<mgrwt>
<rscale>  1 0.13880593E+03</rscale>
<asrwt>0</asrwt>
<pdfrwt beam="1">  1       21 0.43057042E-02 0.13880593E+03</pdfrwt>
<pdfrwt beam="2">  1        4 0.80676149E-01 0.13880593E+03</pdfrwt>
<totfact> 0.19687344E+04</totfact>
</mgrwt>
</event>
<event>
 6    3  0.3813045E-003  0.1268558E+03  0.7818608E-02  0.1232197E+00
         21   -1    0    0  501  502  0.00000000000E+00  0.00000000000E+00  0.10257175973E+02  0.10257175973E+02  0.00000000000E+00 0.  1.
         -4   -1    0    0    0  501 -0.00000000000E+00 -0.00000000000E+00 -0.11764862170E+04  0.11764869025E+04  0.12700000000E+01 0. -1.
         25    2    1    2    0    0  0.20299092384E+02  0.74657796939E+01 -0.11557252112E+04  0.11626664050E+04  0.12499845781E+03 0.  0.
    9000005    1    3    3    0    0 -0.11456394148E+02  0.52248105857E+02 -0.27048357758E+03  0.27572355589E+03  0.10000000000E+01 0.  0.
    9000005    1    3    3    0    0  0.31755486532E+02 -0.44782326163E+02 -0.88524163361E+03  0.88694284909E+03  0.10000000000E+01 0.  0.
         -4    1    1    2    0  502 -0.20299092384E+02 -0.74657796939E+01 -0.10503829815E+02  0.24077673451E+02  0.12700000000E+01 0.  1.
<mgrwt>
<rscale>  1 0.12685585E+03</rscale>
<asrwt>0</asrwt>
<pdfrwt beam="1">  1       21 0.15780272E-02 0.12685585E+03</pdfrwt>
<pdfrwt beam="2">  1       -4 0.18100396E+00 0.12685585E+03</pdfrwt>
<totfact> 0.14150557E+04</totfact>
</mgrwt>
</event>
<event>
 6    3  0.3813045E-003  0.1507861E+03  0.7818608E-02  0.1199510E+00
          4   -1    0    0  502    0 -0.00000000000E+00  0.00000000000E+00  0.10673468292E+03  0.10674223831E+03  0.12700000000E+01 0. -1.
         21   -1    0    0  501  502  0.00000000000E+00 -0.00000000000E+00 -0.15258158900E+03  0.15258158900E+03  0.00000000000E+00 0.  1.
         25    2    1    2    0    0 -0.60438071392E+02  0.58831206017E+02  0.20275750878E+02  0.15214318569E+03  0.12499028604E+03 0.  0.
    9000005    1    3    3    0    0  0.21749109360E+01  0.63504436036E+02  0.51700783374E+02  0.81923834354E+02  0.10000000000E+01 0.  0.
    9000005    1    3    3    0    0 -0.62612982328E+02 -0.46732300191E+01 -0.31425032496E+02  0.70219351337E+02  0.10000000000E+01 0.  0.
          4    1    1    2  501    0  0.60438071392E+02 -0.58831206017E+02 -0.66122656959E+02  0.10718064162E+03  0.12700000000E+01 0.  1.
<mgrwt>
<rscale>  1 0.15078608E+03</rscale>
<asrwt>0</asrwt>
<pdfrwt beam="2">  1       21 0.23474091E-01 0.15078608E+03</pdfrwt>
<pdfrwt beam="1">  1        4 0.16421708E-01 0.15078608E+03</pdfrwt>
<totfact> 0.22604151E+04</totfact>
</mgrwt>
</event>
<event>
 6    3  0.3813045E-003  0.1345132E+03  0.7818608E-02  0.1220908E+00
         21   -1    0    0  501  502  0.00000000000E+00  0.00000000000E+00  0.83591149639E+02  0.83591149639E+02  0.00000000000E+00 0. -1.
         -4   -1    0    0    0  501 -0.00000000000E+00 -0.00000000000E+00 -0.11374315235E+03  0.11375024223E+03  0.12700000000E+01 0.  1.
         25    2    1    2    0    0 -0.38264319734E+02  0.31693021540E+02 -0.50439254151E+02  0.14365907401E+03  0.12500082163E+03 0.  0.
    9000005    1    3    3    0    0 -0.30873087132E+02 -0.32079649813E+02  0.19588425345E+02  0.48651391025E+02  0.10000000000E+01 0.  0.
    9000005    1    3    3    0    0 -0.73912326023E+01  0.63772671354E+02 -0.70027679496E+02  0.95007682987E+02  0.10000000000E+01 0.  0.
         -4    1    1    2    0  502  0.38264319734E+02 -0.31693021540E+02  0.20287251440E+02  0.53682317853E+02  0.12700000000E+01 0. -1.
<mgrwt>
<rscale>  1 0.13451324E+03</rscale>
<asrwt>0</asrwt>
<pdfrwt beam="1">  1       21 0.12860177E-01 0.13451324E+03</pdfrwt>
<pdfrwt beam="2">  1       -4 0.17500234E-01 0.13451324E+03</pdfrwt>
<totfact> 0.60058433E+04</totfact>
</mgrwt>
</event>
<event>
 6    3  0.3813045E-003  0.1308648E+03  0.7818608E-02  0.1226178E+00
          4   -1    0    0  502    0 -0.00000000000E+00  0.00000000000E+00  0.24608785208E+03  0.24609112914E+03  0.12700000000E+01 0.  1.
         21   -1    0    0  501  502  0.00000000000E+00 -0.00000000000E+00 -0.31161782742E+02  0.31161782742E+02  0.00000000000E+00 0.  1.
         25    2    1    2    0    0  0.19167072907E+02 -0.33649757762E+02  0.19160190510E+03  0.23202778149E+03  0.12500367381E+03 0.  0.
    9000005    1    3    3    0    0 -0.53295310354E+02 -0.13224893299E+02  0.92382762757E+02  0.10747494016E+03  0.10000000000E+01 0.  0.
    9000005    1    3    3    0    0  0.72462383261E+02 -0.20424864463E+02  0.99219142342E+02  0.12455284133E+03  0.10000000000E+01 0.  0.
          4    1    1    2  501    0 -0.19167072907E+02  0.33649757762E+02  0.23324164238E+02  0.45225130388E+02  0.12700000000E+01 0. -1.
<mgrwt>
<rscale>  1 0.13086482E+03</rscale>
<asrwt>0</asrwt>
<pdfrwt beam="2">  1       21 0.47941206E-02 0.13086482E+03</pdfrwt>
<pdfrwt beam="1">  1        4 0.37861911E-01 0.13086482E+03</pdfrwt>
<totfact> 0.78457038E+04</totfact>
</mgrwt>
</event>
<event>
 6    3  0.3813045E-003  0.1285387E+03  0.7818608E-02  0.1229640E+00
          4   -1    0    0  502    0 -0.00000000000E+00  0.00000000000E+00  0.56268914963E+03  0.56269058283E+03  0.12700000000E+01 0.  1.
         21   -1    0    0  501  502  0.00000000000E+00 -0.00000000000E+00 -0.85858605373E+02  0.85858605373E+02  0.00000000000E+00 0. -1.
         25    2    1    2    0    0  0.29755661413E+02 -0.36202449621E+01  0.55244423264E+03  0.56720087335E+03  0.12499477986E+03 0.  0.
    9000005    1    3    3    0    0  0.51566154919E+02  0.38713399700E+02  0.44530665328E+03  0.44995200978E+03  0.10000000000E+01 0.  0.
    9000005    1    3    3    0    0 -0.21810493506E+02 -0.42333644663E+02  0.10713757936E+03  0.11724886357E+03  0.10000000000E+01 0.  0.
          4    1    1    2  501    0 -0.29755661413E+02  0.36202449621E+01 -0.75613688382E+02  0.81348314859E+02  0.12700000000E+01 0. -1.
<mgrwt>
<rscale>  1 0.12853871E+03</rscale>
<asrwt>0</asrwt>
<pdfrwt beam="2">  1       21 0.13209017E-01 0.12853871E+03</pdfrwt>
<pdfrwt beam="1">  1        4 0.86568392E-01 0.12853871E+03</pdfrwt>
<totfact> 0.24260334E+03</totfact>
</mgrwt>
</event>
<event>
 6    3  0.3813045E-003  0.1343849E+03  0.7818608E-02  0.1221091E+00
          4   -1    0    0  502    0 -0.00000000000E+00  0.00000000000E+00  0.82535756351E+02  0.82545526689E+02  0.12700000000E+01 0.  1.
         21   -1    0    0  501  502  0.00000000000E+00 -0.00000000000E+00 -0.20392055874E+03  0.20392055874E+03  0.00000000000E+00 0. -1.
         25    2    1    2    0    0 -0.22626021159E+02 -0.43841127419E+02  0.20777067402E+02  0.13598156327E+03  0.12500127093E+03 0.  0.
    9000005    1    3    3    0    0 -0.14347043607E+02 -0.73522618383E+02 -0.26564111544E+02  0.79486257279E+02  0.10000000000E+01 0.  0.
    9000005    1    3    3    0    0 -0.82789775516E+01  0.29681490963E+02  0.47341178946E+02  0.56495305992E+02  0.10000000000E+01 0.  0.
          4    1    1    2  501    0  0.22626021159E+02  0.43841127419E+02 -0.14216186979E+03  0.15048452216E+03  0.12700000000E+01 0. -1.
<mgrwt>
<rscale>  1 0.13438489E+03</rscale>
<asrwt>0</asrwt>
<pdfrwt beam="2">  1       21 0.31372393E-01 0.13438489E+03</pdfrwt>
<pdfrwt beam="1">  1        4 0.12698865E-01 0.13438489E+03</pdfrwt>
<totfact> 0.20098835E+04</totfact>
</mgrwt>
</event>
<event>
 6    3  0.3813045E-003  0.1431687E+03  0.7818608E-02  0.1209128E+00
         -4   -1    0    0    0  501 -0.00000000000E+00  0.00000000000E+00  0.24305119612E+03  0.24305451412E+03  0.12700000000E+01 0. -1.
         21   -1    0    0  501  502  0.00000000000E+00 -0.00000000000E+00 -0.69535994704E+02  0.69535994704E+02  0.00000000000E+00 0.  1.
         25    2    1    2    0    0 -0.68026076807E+02  0.15651250303E+02  0.19281598394E+03  0.24015680212E+03  0.12499910871E+03 0.  0.
    9000005    1    3    3    0    0 -0.60085975607E+02 -0.25417343396E+02  0.29573979614E+02  0.71637881601E+02  0.10000000000E+01 0.  0.
    9000005    1    3    3    0    0 -0.79401011994E+01  0.41068593698E+02  0.16324200433E+03  0.16851892052E+03  0.10000000000E+01 0.  0.
         -4    1    1    2    0  502  0.68026076807E+02 -0.15651250303E+02 -0.19300782525E+02  0.72433706710E+02  0.12700000000E+01 0.  1.
<mgrwt>
<rscale>  1 0.14316873E+03</rscale>
<asrwt>0</asrwt>
<pdfrwt beam="2">  1       21 0.10697845E-01 0.14316873E+03</pdfrwt>
<pdfrwt beam="1">  1       -4 0.37393639E-01 0.14316873E+03</pdfrwt>
<totfact> 0.20482026E+04</totfact>
</mgrwt>
</event>
<event>
 6    3  0.3813045E-003  0.1310457E+03  0.7818608E-02  0.1225912E+00
         21   -1    0    0  501  502  0.00000000000E+00  0.00000000000E+00  0.28597246171E+02  0.28597246171E+02  0.00000000000E+00 0.  1.
          4   -1    0    0  502    0 -0.00000000000E+00 -0.00000000000E+00 -0.28433829039E+03  0.28434112661E+03  0.12700000000E+01 0. -1.
         25    2    1    2    0    0 -0.38339718302E+02  0.88330873824E+01 -0.23340915149E+03  0.26768040370E+03  0.12500003638E+03 0.  0.
    9000005    1    3    3    0    0  0.30412585033E+02  0.42392421637E+02 -0.12022454611E+03  0.13106099430E+03  0.10000000000E+01 0.  0.
    9000005    1    3    3    0    0 -0.68752303335E+02 -0.33559334254E+02 -0.11318460538E+03  0.13661940940E+03  0.10000000000E+01 0.  0.
          4    1    1    2  501    0  0.38339718302E+02 -0.88330873824E+01 -0.22331892729E+02  0.45257969078E+02  0.12700000000E+01 0.  1.
<mgrwt>
<rscale>  1 0.13104567E+03</rscale>
<asrwt>0</asrwt>
<pdfrwt beam="1">  1       21 0.43995764E-02 0.13104567E+03</pdfrwt>
<pdfrwt beam="2">  1        4 0.43746739E-01 0.13104567E+03</pdfrwt>
<totfact> 0.68143665E+04</totfact>
</mgrwt>
</event>
<event>
 6    3  0.3813045E-003  0.1297081E+03  0.7818608E-02  0.1227889E+00
          4   -1    0    0  502    0 -0.00000000000E+00  0.00000000000E+00  0.22041761439E+03  0.22042127310E+03  0.12700000000E+01 0.  1.
         21   -1    0    0  501  502  0.00000000000E+00 -0.00000000000E+00 -0.55543830525E+02  0.55543830525E+02  0.00000000000E+00 0. -1.
         25    2    1    2    0    0 -0.27314949908E+02 -0.21289037457E+02  0.19217228356E+03  0.23184990681E+03  0.12499945245E+03 0.  0.
    9000005    1    3    3    0    0  0.12943318484E+02 -0.62034422671E+02  0.14276031753E+03  0.15619637432E+03  0.10000000000E+01 0.  0.
    9000005    1    3    3    0    0 -0.40258268393E+02  0.40745385215E+02  0.49411966034E+02  0.75653532486E+02  0.10000000000E+01 0.  0.
          4    1    1    2  501    0  0.27314949908E+02  0.21289037457E+02 -0.27298499698E+02  0.44115196816E+02  0.12700000000E+01 0. -1.
<mgrwt>
<rscale>  1 0.12970811E+03</rscale>
<asrwt>0</asrwt>
<pdfrwt beam="2">  1       21 0.85452048E-02 0.12970811E+03</pdfrwt>
<pdfrwt beam="1">  1        4 0.33911800E-01 0.12970811E+03</pdfrwt>
<totfact> 0.36247275E+04</totfact>
</mgrwt>
</event>
<event>
 6    3  0.3813045E-003  0.3470709E+03  0.7818608E-02  0.1063824E+00
          4   -1    0    0  502    0 -0.00000000000E+00  0.00000000000E+00  0.56000665191E+03  0.56000809198E+03  0.12700000000E+01 0. -1.
         21   -1    0    0  501  502  0.00000000000E+00 -0.00000000000E+00 -0.20311661521E+03  0.20311661521E+03  0.00000000000E+00 0.  1.
         25    2    1    2    0    0 -0.14935379404E+03 -0.28726480706E+03  0.22437636329E+03  0.41328315490E+03  0.12502235222E+03 0.  0.
    9000005    1    3    3    0    0 -0.40348904399E+02 -0.15741338921E+01  0.36195978573E+02  0.54237080015E+02  0.10000000000E+01 0.  0.
    9000005    1    3    3    0    0 -0.10900488964E+03 -0.28569067316E+03  0.18818038471E+03  0.35904607488E+03  0.10000000000E+01 0.  0.
          4    1    1    2  501    0  0.14935379404E+03  0.28726480706E+03  0.13251367341E+03  0.34984155229E+03  0.12700000000E+01 0.  1.
<mgrwt>
<rscale>  1 0.34707091E+03</rscale>
<asrwt>0</asrwt>
<pdfrwt beam="2">  1       21 0.31248710E-01 0.34707091E+03</pdfrwt>
<pdfrwt beam="1">  1        4 0.86155285E-01 0.34707091E+03</pdfrwt>
<totfact> 0.49316126E+02</totfact>
</mgrwt>
</event>
<event>
 6    3  0.3813045E-003  0.1271116E+03  0.7818608E-02  0.1231806E+00
         -4   -1    0    0    0  501 -0.00000000000E+00  0.00000000000E+00  0.14706741642E+03  0.14707289986E+03  0.12700000000E+01 0. -1.
         21   -1    0    0  501  502  0.00000000000E+00 -0.00000000000E+00 -0.39472944153E+02  0.39472944153E+02  0.00000000000E+00 0. -1.
         25    2    1    2    0    0  0.62637670139E+00  0.23103921771E+02  0.78619864228E+02  0.14946047816E+03  0.12499267152E+03 0.  0.
    9000005    1    3    3    0    0 -0.56263744490E+02  0.35744837240E+02  0.55544851613E+02  0.86772880983E+02  0.10000000000E+01 0.  0.
    9000005    1    3    3    0    0  0.56890121191E+02 -0.12640915469E+02  0.23075012615E+02  0.62687597180E+02  0.10000000000E+01 0.  0.
         -4    1    1    2    0  502 -0.62637670139E+00 -0.23103921771E+02  0.28974608037E+02  0.37085365845E+02  0.12700000000E+01 0.  1.
<mgrwt>
<rscale>  1 0.12711157E+03</rscale>
<asrwt>0</asrwt>
<pdfrwt beam="2">  1       21 0.60727607E-02 0.12711157E+03</pdfrwt>
<pdfrwt beam="1">  1       -4 0.22627749E-01 0.12711157E+03</pdfrwt>
<totfact> 0.13823497E+05</totfact>
</mgrwt>
</event>
<event>
 6    3  0.3813045E-003  0.1275605E+03  0.7818608E-02  0.1231121E+00
         -4   -1    0    0    0  501 -0.00000000000E+00  0.00000000000E+00  0.32308736527E+02  0.32333687633E+02  0.12700000000E+01 0. -1.
         21   -1    0    0  501  502  0.00000000000E+00 -0.00000000000E+00 -0.26330207236E+03  0.26330207236E+03  0.00000000000E+00 0. -1.
         25    2    1    2    0    0  0.25247392638E+02  0.29213397224E+01 -0.99704159260E+02  0.16190309440E+03  0.12500291014E+03 0.  0.
    9000005    1    3    3    0    0 -0.24930870166E+02  0.42547611391E+02 -0.81762051659E+02  0.95487594031E+02  0.10000000000E+01 0.  0.
    9000005    1    3    3    0    0  0.50178262804E+02 -0.39626271669E+02 -0.17942107601E+02  0.66415500371E+02  0.10000000000E+01 0.  0.
         -4    1    1    2    0  502 -0.25247392638E+02 -0.29213397224E+01 -0.13128917657E+03  0.13373266559E+03  0.12700000000E+01 0.  1.
<mgrwt>
<rscale>  1 0.12756054E+03</rscale>
<asrwt>0</asrwt>
<pdfrwt beam="2">  1       21 0.40508010E-01 0.12756054E+03</pdfrwt>
<pdfrwt beam="1">  1       -4 0.49727299E-02 0.12756054E+03</pdfrwt>
<totfact> 0.57122699E+04</totfact>
</mgrwt>
</event>
<event>
 6    3  0.3813045E-003  0.1524617E+03  0.7818608E-02  0.1197480E+00
         21   -1    0    0  501  502  0.00000000000E+00  0.00000000000E+00  0.27062558504E+03  0.27062558504E+03  0.00000000000E+00 0.  1.
          4   -1    0    0  502    0 -0.00000000000E+00 -0.00000000000E+00 -0.71732858215E+02  0.71744099741E+02  0.12700000000E+01 0.  1.
         25    2    1    2    0    0  0.52503946060E+02  0.69769354166E+02  0.34642875893E+02  0.15634803667E+03  0.12498060885E+03 0.  0.
    9000005    1    3    3    0    0  0.93418127793E+02  0.39992013668E+02  0.19102801333E+02  0.10340321454E+03  0.10000000000E+01 0.  0.
    9000005    1    3    3    0    0 -0.40914181733E+02  0.29777340498E+02  0.15540074560E+02  0.52944822139E+02  0.10000000000E+01 0.  0.
          4    1    1    2  501    0 -0.52503946060E+02 -0.69769354166E+02  0.16424985093E+03  0.18602164810E+03  0.12700000000E+01 0. -1.
<mgrwt>
<rscale>  1 0.15246173E+03</rscale>
<asrwt>0</asrwt>
<pdfrwt beam="1">  1       21 0.41634705E-01 0.15246173E+03</pdfrwt>
<pdfrwt beam="2">  1        4 0.11036918E-01 0.15246173E+03</pdfrwt>
<totfact> 0.14751655E+04</totfact>
</mgrwt>
</event>
<event>
 6    3  0.3813045E-003  0.1320846E+03  0.7818608E-02  0.1224395E+00
         21   -1    0    0  501  502  0.00000000000E+00  0.00000000000E+00  0.50843064340E+02  0.50843064340E+02  0.00000000000E+00 0. -1.
          4   -1    0    0  502    0 -0.00000000000E+00 -0.00000000000E+00 -0.45012877034E+03  0.45013056194E+03  0.12700000000E+01 0.  1.
         25    2    1    2    0    0 -0.42666396019E+02  0.11453248512E+01 -0.42905123832E+03  0.44892237334E+03  0.12499839626E+03 0.  0.
    9000005    1    3    3    0    0 -0.48107320299E+02  0.26373813547E+02 -0.41669263921E+03  0.42028995691E+03  0.10000000000E+01 0.  0.
    9000005    1    3    3    0    0  0.54409242800E+01 -0.25228488696E+02 -0.12358599109E+02  0.28632416434E+02  0.10000000000E+01 0.  0.
          4    1    1    2  501    0  0.42666396019E+02 -0.11453248512E+01  0.29765532314E+02  0.52051252936E+02  0.12700000000E+01 0. -1.
<mgrwt>
<rscale>  1 0.13208456E+03</rscale>
<asrwt>0</asrwt>
<pdfrwt beam="1">  1       21 0.78220102E-02 0.13208456E+03</pdfrwt>
<pdfrwt beam="2">  1        4 0.69251936E-01 0.13208456E+03</pdfrwt>
<totfact> 0.99394463E+03</totfact>
</mgrwt>
</event>
<event>
 6    3  0.3813045E-003  0.1276217E+03  0.7818608E-02  0.1231028E+00
         -4   -1    0    0    0  501 -0.00000000000E+00  0.00000000000E+00  0.65366722011E+02  0.65379058164E+02  0.12700000000E+01 0. -1.
         21   -1    0    0  501  502  0.00000000000E+00 -0.00000000000E+00 -0.36449441127E+03  0.36449441127E+03  0.00000000000E+00 0.  1.
         25    2    1    2    0    0 -0.12349164589E+02  0.22551947842E+02  0.20098937944E+01  0.12763755323E+03  0.12500485232E+03 0.  0.
    9000005    1    3    3    0    0 -0.57315575120E+02 -0.41506729992E+01  0.33557217125E+02  0.66553663002E+02  0.10000000000E+01 0.  0.
    9000005    1    3    3    0    0  0.44966410531E+02  0.26702620841E+02 -0.31547323331E+02  0.61083890227E+02  0.10000000000E+01 0.  0.
         -4    1    1    2    0  502  0.12349164589E+02 -0.22551947842E+02 -0.30113758306E+03  0.30223591621E+03  0.12700000000E+01 0.  1.
<mgrwt>
<rscale>  1 0.12762173E+03</rscale>
<asrwt>0</asrwt>
<pdfrwt beam="2">  1       21 0.56076063E-01 0.12762173E+03</pdfrwt>
<pdfrwt beam="1">  1       -4 0.10057538E-01 0.12762173E+03</pdfrwt>
<totfact> 0.92312246E+03</totfact>
</mgrwt>
</event>
<event>
 6    3  0.3813045E-003  0.1391083E+03  0.7818608E-02  0.1214534E+00
         21   -1    0    0  501  502  0.00000000000E+00  0.00000000000E+00  0.92795367472E+02  0.92795367472E+02  0.00000000000E+00 0.  1.
          4   -1    0    0  502    0 -0.00000000000E+00 -0.00000000000E+00 -0.16695188621E+03  0.16695671657E+03  0.12700000000E+01 0. -1.
         25    2    1    2    0    0 -0.57377423778E+02 -0.20835168186E+02 -0.11974931782E+03  0.18355110491E+03  0.12499934400E+03 0.  0.
    9000005    1    3    3    0    0 -0.23705134168E+02 -0.71551736102E+02 -0.47636995099E+02  0.89173245019E+02  0.10000000000E+01 0.  0.
    9000005    1    3    3    0    0 -0.33672289610E+02  0.50716567916E+02 -0.72112322722E+02  0.94377859889E+02  0.10000000000E+01 0.  0.
          4    1    1    2  501    0  0.57377423778E+02  0.20835168186E+02  0.45592799086E+02  0.76200979136E+02  0.12700000000E+01 0.  1.
<mgrwt>
<rscale>  1 0.13910826E+03</rscale>
<asrwt>0</asrwt>
<pdfrwt beam="1">  1       21 0.14276210E-01 0.13910826E+03</pdfrwt>
<pdfrwt beam="2">  1        4 0.25685946E-01 0.13910826E+03</pdfrwt>
<totfact> 0.24947060E+04</totfact>
</mgrwt>
</event>
<event>
 6    3  0.3813045E-003  0.1324377E+03  0.7818608E-02  0.1223883E+00
         21   -1    0    0  501  502  0.00000000000E+00  0.00000000000E+00  0.41039532555E+02  0.41039532555E+02  0.00000000000E+00 0.  1.
          4   -1    0    0  502    0 -0.00000000000E+00 -0.00000000000E+00 -0.32515896691E+03  0.32516144708E+03  0.12700000000E+01 0. -1.
         25    2    1    2    0    0  0.21783566329E+02  0.37947483576E+02 -0.29299477181E+03  0.32153645471E+03  0.12500088049E+03 0.  0.
    9000005    1    3    3    0    0  0.46687172741E+02  0.73014945405E+01 -0.30872630413E+02  0.56454612120E+02  0.10000000000E+01 0.  0.
    9000005    1    3    3    0    0 -0.24903606412E+02  0.30645989035E+02 -0.26212214140E+03  0.26508184259E+03  0.10000000000E+01 0.  0.
          4    1    1    2  501    0 -0.21783566329E+02 -0.37947483576E+02  0.88753374563E+01  0.44664524924E+02  0.12700000000E+01 0.  1.
<mgrwt>
<rscale>  1 0.13243774E+03</rscale>
<asrwt>0</asrwt>
<pdfrwt beam="1">  1       21 0.63137739E-02 0.13243774E+03</pdfrwt>
<pdfrwt beam="2">  1        4 0.50026161E-01 0.13243774E+03</pdfrwt>
<totfact> 0.28334701E+04</totfact>
</mgrwt>
</event>
<event>
 6    3  0.3813045E-003  0.1286463E+03  0.7818608E-02  0.1229478E+00
          4   -1    0    0  502    0 -0.00000000000E+00  0.00000000000E+00  0.37131180367E+03  0.37131397556E+03  0.12700000000E+01 0. -1.
         21   -1    0    0  501  502  0.00000000000E+00 -0.00000000000E+00 -0.37607114379E+02  0.37607114379E+02  0.00000000000E+00 0.  1.
         25    2    1    2    0    0  0.28521730254E+02 -0.10522478963E+02  0.35106215161E+03  0.37389101631E+03  0.12500258448E+03 0.  0.
    9000005    1    3    3    0    0  0.23792005204E+02  0.23921684428E+02  0.33298638013E+03  0.33469274843E+03  0.10000000000E+01 0.  0.
    9000005    1    3    3    0    0  0.47297250499E+01 -0.34444163391E+02  0.18075771481E+02  0.39198267887E+02  0.10000000000E+01 0.  0.
          4    1    1    2  501    0 -0.28521730254E+02  0.10522478963E+02 -0.17357462316E+02  0.35030073626E+02  0.12700000000E+01 0.  1.
<mgrwt>
<rscale>  1 0.12864625E+03</rscale>
<asrwt>0</asrwt>
<pdfrwt beam="2">  1       21 0.57857102E-02 0.12864625E+03</pdfrwt>
<pdfrwt beam="1">  1        4 0.57126707E-01 0.12864625E+03</pdfrwt>
<totfact> 0.24921662E+04</totfact>
</mgrwt>
</event>
<event>
 6    3  0.3813045E-003  0.1273160E+03  0.7818608E-02  0.1231493E+00
         21   -1    0    0  501  502  0.00000000000E+00  0.00000000000E+00  0.31789282048E+03  0.31789282048E+03  0.00000000000E+00 0.  1.
          4   -1    0    0  502    0 -0.00000000000E+00 -0.00000000000E+00 -0.55066509131E+02  0.55081152202E+02  0.12700000000E+01 0. -1.
         25    2    1    2    0    0  0.22470425029E+02 -0.90427965370E+01  0.19926285969E+02  0.12886594864E+03  0.12499073437E+03 0.  0.
    9000005    1    3    3    0    0 -0.34815205742E+02  0.10418058671E+02 -0.32530751930E+02  0.48784058036E+02  0.10000000000E+01 0.  0.
    9000005    1    3    3    0    0  0.57285630771E+02 -0.19460855208E+02  0.52457037899E+02  0.80081890608E+02  0.10000000000E+01 0.  0.
          4    1    1    2  501    0 -0.22470425029E+02  0.90427965370E+01  0.24290002538E+03  0.24410802404E+03  0.12700000000E+01 0.  1.
<mgrwt>
<rscale>  1 0.12731605E+03</rscale>
<asrwt>0</asrwt>
<pdfrwt beam="1">  1       21 0.48906587E-01 0.12731605E+03</pdfrwt>
<pdfrwt beam="2">  1        4 0.84730923E-02 0.12731605E+03</pdfrwt>
<totfact> 0.16332719E+04</totfact>
</mgrwt>
</event>
<event>
 6    3  0.3813045E-003  0.1283761E+03  0.7818608E-02  0.1229885E+00
          4   -1    0    0  502    0 -0.00000000000E+00  0.00000000000E+00  0.74812025566E+03  0.74812133363E+03  0.12700000000E+01 0.  1.
         21   -1    0    0  501  502  0.00000000000E+00 -0.00000000000E+00 -0.83055956761E+01  0.83055956761E+01  0.00000000000E+00 0.  1.
         25    2    1    2    0    0  0.13284717016E+02  0.26020264993E+02  0.59593181919E+03  0.60960246721E+03  0.12500758777E+03 0.  0.
    9000005    1    3    3    0    0  0.34941245037E+02 -0.39244081538E+02  0.16357024230E+03  0.17180574120E+03  0.10000000000E+01 0.  0.
    9000005    1    3    3    0    0 -0.21656528021E+02  0.65264346532E+02  0.43236157689E+03  0.43779672601E+03  0.10000000000E+01 0.  0.
          4    1    1    2  501    0 -0.13284717016E+02 -0.26020264993E+02  0.14388284079E+03  0.14682446210E+03  0.12700000000E+01 0. -1.
<mgrwt>
<rscale>  1 0.12837615E+03</rscale>
<asrwt>0</asrwt>
<pdfrwt beam="2">  1       21 0.12777845E-02 0.12837615E+03</pdfrwt>
<pdfrwt beam="1">  1        4 0.11510292E+00 0.12837615E+03</pdfrwt>
<totfact> 0.62243691E+04</totfact>
</mgrwt>
</event>
<event>
 6    3  0.3813045E-003  0.1266383E+03  0.7818608E-02  0.1232531E+00
         -4   -1    0    0    0  501 -0.00000000000E+00  0.00000000000E+00  0.43989837206E+02  0.44008166031E+02  0.12700000000E+01 0. -1.
         21   -1    0    0  501  502  0.00000000000E+00 -0.00000000000E+00 -0.12278084787E+03  0.12278084787E+03  0.00000000000E+00 0. -1.
         25    2    1    2    0    0  0.65526668687E+01  0.19214331474E+02 -0.66784972356E+02  0.14316940694E+03  0.12500047430E+03 0.  0.
    9000005    1    3    3    0    0  0.13900655254E+02  0.65106979997E+02 -0.62941408173E+01  0.66878720602E+02  0.10000000000E+01 0.  0.
    9000005    1    3    3    0    0 -0.73479883857E+01 -0.45892648522E+02 -0.60490831539E+02  0.76290686338E+02  0.10000000000E+01 0.  0.
         -4    1    1    2    0  502 -0.65526668687E+01 -0.19214331474E+02 -0.12006038306E+02  0.23619606959E+02  0.12700000000E+01 0.  1.
<mgrwt>
<rscale>  1 0.12663825E+03</rscale>
<asrwt>0</asrwt>
<pdfrwt beam="2">  1       21 0.18889361E-01 0.12663825E+03</pdfrwt>
<pdfrwt beam="1">  1       -4 0.67695824E-02 0.12663825E+03</pdfrwt>
<totfact> 0.14904738E+05</totfact>
</mgrwt>
</event>
<event>
 6    3  0.3813045E-003  0.1465743E+03  0.7818608E-02  0.1204747E+00
         21   -1    0    0  501  502  0.00000000000E+00  0.00000000000E+00  0.16351232899E+03  0.16351232899E+03  0.00000000000E+00 0.  1.
         -4   -1    0    0    0  501 -0.00000000000E+00 -0.00000000000E+00 -0.86038473494E+02  0.86047846115E+02  0.12700000000E+01 0. -1.
         25    2    1    2    0    0 -0.74902640453E+02  0.15784707476E+02  0.90043805373E+01  0.14685066027E+03  0.12499790004E+03 0.  0.
    9000005    1    3    3    0    0 -0.58023899738E+02 -0.29094916090E+02 -0.41622001894E+02  0.77114707577E+02  0.10000000000E+01 0.  0.
    9000005    1    3    3    0    0 -0.16878740716E+02  0.44879623566E+02  0.50626382431E+02  0.69735952691E+02  0.10000000000E+01 0.  0.
         -4    1    1    2    0  502  0.74902640453E+02 -0.15784707476E+02  0.68469474959E+02  0.10270951484E+03  0.12700000000E+01 0.  1.
<mgrwt>
<rscale>  1 0.14657434E+03</rscale>
<asrwt>0</asrwt>
<pdfrwt beam="1">  1       21 0.25155743E-01 0.14657434E+03</pdfrwt>
<pdfrwt beam="2">  1       -4 0.13237789E-01 0.14657434E+03</pdfrwt>
<totfact> 0.28818206E+04</totfact>
</mgrwt>
</event>
<event>
 6    3  0.3813045E-003  0.1449724E+03  0.7818608E-02  0.1206791E+00
         -4   -1    0    0    0  501 -0.00000000000E+00  0.00000000000E+00  0.15264906730E+04  0.15264912013E+04  0.12700000000E+01 0. -1.
         21   -1    0    0  501  502  0.00000000000E+00 -0.00000000000E+00 -0.15058068989E+02  0.15058068989E+02  0.00000000000E+00 0.  1.
         25    2    1    2    0    0  0.73261659805E+02 -0.50790260976E+01  0.14036702243E+04  0.14111368066E+04  0.12499568420E+03 0.  0.
    9000005    1    3    3    0    0 -0.14096940384E+02  0.41153383190E+02  0.56215826548E+03  0.56383972911E+03  0.10000000000E+01 0.  0.
    9000005    1    3    3    0    0  0.87358600189E+02 -0.46232409287E+02  0.84151195878E+03  0.84729707746E+03  0.10000000000E+01 0.  0.
         -4    1    1    2    0  502 -0.73261659805E+02  0.50790260976E+01  0.10776237971E+03  0.13041246368E+03  0.12700000000E+01 0.  1.
<mgrwt>
<rscale>  1 0.14497237E+03</rscale>
<asrwt>0</asrwt>
<pdfrwt beam="2">  1       21 0.23166272E-02 0.14497237E+03</pdfrwt>
<pdfrwt beam="1">  1       -4 0.23484876E+00 0.14497237E+03</pdfrwt>
<totfact> 0.35947672E+03</totfact>
</mgrwt>
</event>
<event>
 6    3  0.3813045E-003  0.1267579E+03  0.7818608E-02  0.1232347E+00
         21   -1    0    0  501  502  0.00000000000E+00  0.00000000000E+00  0.32521750673E+02  0.32521750673E+02  0.00000000000E+00 0. -1.
          4   -1    0    0  502    0 -0.00000000000E+00 -0.00000000000E+00 -0.17213095651E+03  0.17213564154E+03  0.12700000000E+01 0. -1.
         25    2    1    2    0    0  0.10136343315E+02  0.18398435881E+02 -0.12984325202E+03  0.18145750746E+03  0.12500523597E+03 0.  0.
    9000005    1    3    3    0    0  0.37442957047E+02 -0.31385218885E+02 -0.11156633663E+03  0.12179923837E+03  0.10000000000E+01 0.  0.
    9000005    1    3    3    0    0 -0.27306613732E+02  0.49783654767E+02 -0.18276915385E+02  0.59658269095E+02  0.10000000000E+01 0.  0.
          4    1    1    2  501    0 -0.10136343315E+02 -0.18398435881E+02 -0.97659538229E+01  0.23199884757E+02  0.12700000000E+01 0.  1.
<mgrwt>
<rscale>  1 0.12675787E+03</rscale>
<asrwt>0</asrwt>
<pdfrwt beam="1">  1       21 0.50033463E-02 0.12675787E+03</pdfrwt>
<pdfrwt beam="2">  1        4 0.26483953E-01 0.12675787E+03</pdfrwt>
<totfact> 0.14344860E+05</totfact>
</mgrwt>
</event>
<event>
 6    3  0.3813045E-003  0.2217251E+03  0.7818608E-02  0.1132603E+00
         21   -1    0    0  501  502  0.00000000000E+00  0.00000000000E+00  0.49916916047E+03  0.49916916047E+03  0.00000000000E+00 0.  1.
         -4   -1    0    0    0  501 -0.00000000000E+00 -0.00000000000E+00 -0.17039770322E+03  0.17040243591E+03  0.12700000000E+01 0. -1.
         25    2    1    2    0    0 -0.30297311453E+02 -0.18060996188E+03 -0.68545304482E+02  0.23207861647E+03  0.12499656013E+03 0.  0.
    9000005    1    3    3    0    0 -0.10972207357E+02 -0.17433706030E+02 -0.64491710628E+02  0.67708966762E+02  0.10000000000E+01 0.  0.
    9000005    1    3    3    0    0 -0.19325104096E+02 -0.16317625585E+03 -0.40535938541E+01  0.16436964971E+03  0.10000000000E+01 0.  0.
         -4    1    1    2    0  502  0.30297311453E+02  0.18060996188E+03  0.39731676173E+03  0.43749297991E+03  0.12700000000E+01 0.  1.
<mgrwt>
<rscale>  1 0.22172511E+03</rscale>
<asrwt>0</asrwt>
<pdfrwt beam="1">  1       21 0.76795255E-01 0.22172511E+03</pdfrwt>
<pdfrwt beam="2">  1       -4 0.26215520E-01 0.22172511E+03</pdfrwt>
<totfact> 0.86822694E+02</totfact>
</mgrwt>
</event>
<event>
 6    3  0.3813045E-003  0.1291532E+03  0.7818608E-02  0.1228718E+00
         21   -1    0    0  501  502  0.00000000000E+00  0.00000000000E+00  0.35599377805E+02  0.35599377805E+02  0.00000000000E+00 0. -1.
         -4   -1    0    0    0  501 -0.00000000000E+00 -0.00000000000E+00 -0.61808682983E+03  0.61808813458E+03  0.12700000000E+01 0.  1.
         25    2    1    2    0    0 -0.14136922486E+02  0.29260286604E+02 -0.60204237848E+03  0.61573985109E+03  0.12499808711E+03 0.  0.
    9000005    1    3    3    0    0  0.25223420144E+02  0.23374850751E+02 -0.42033743645E+02  0.54317954456E+02  0.10000000000E+01 0.  0.
    9000005    1    3    3    0    0 -0.39360342630E+02  0.58854358526E+01 -0.56000863484E+03  0.56142189663E+03  0.10000000000E+01 0.  0.
         -4    1    1    2    0  502  0.14136922486E+02 -0.29260286604E+02  0.19554926454E+02  0.37947661300E+02  0.12700000000E+01 0. -1.
<mgrwt>
<rscale>  1 0.12915316E+03</rscale>
<asrwt>0</asrwt>
<pdfrwt beam="1">  1       21 0.54768272E-02 0.12915316E+03</pdfrwt>
<pdfrwt beam="2">  1       -4 0.95092127E-01 0.12915316E+03</pdfrwt>
<totfact> 0.90207353E+03</totfact>
</mgrwt>
</event>
<event>
 6    3  0.3813045E-003  0.1274189E+03  0.7818608E-02  0.1231337E+00
         21   -1    0    0  501  502  0.00000000000E+00  0.00000000000E+00  0.23728242993E+03  0.23728242993E+03  0.00000000000E+00 0. -1.
         -4   -1    0    0    0  501 -0.00000000000E+00 -0.00000000000E+00 -0.37793855600E+02  0.37815187704E+02  0.12700000000E+01 0. -1.
         25    2    1    2    0    0  0.23198009934E+02 -0.84599495456E+01  0.74318107852E+02  0.14750852331E+03  0.12500345949E+03 0.  0.
    9000005    1    3    3    0    0  0.17595603245E+02  0.44430074384E+02  0.80841439851E+02  0.93914722810E+02  0.10000000000E+01 0.  0.
    9000005    1    3    3    0    0  0.56024066896E+01 -0.52890023930E+02 -0.65233319994E+01  0.53593800503E+02  0.10000000000E+01 0.  0.
         -4    1    1    2    0  502 -0.23198009934E+02  0.84599495456E+01  0.12517046648E+03  0.12758909432E+03  0.12700000000E+01 0.  1.
<mgrwt>
<rscale>  1 0.12741893E+03</rscale>
<asrwt>0</asrwt>
<pdfrwt beam="1">  1       21 0.36504988E-01 0.12741893E+03</pdfrwt>
<pdfrwt beam="2">  1       -4 0.58163418E-02 0.12741893E+03</pdfrwt>
<totfact> 0.54555628E+04</totfact>
</mgrwt>
</event>
<event>
 6    3  0.3813045E-003  0.1274454E+03  0.7818608E-02  0.1231296E+00
         21   -1    0    0  501  502  0.00000000000E+00  0.00000000000E+00  0.16189102876E+04  0.16189102876E+04  0.00000000000E+00 0.  1.
          4   -1    0    0  502    0 -0.00000000000E+00 -0.00000000000E+00 -0.39245516477E+01  0.41249249249E+01  0.12700000000E+01 0.  1.
         25    2    1    2    0    0 -0.16104360789E+00 -0.24857698199E+02  0.10839542561E+04  0.10914207126E+04  0.12499764542E+03 0.  0.
    9000005    1    3    3    0    0  0.20251527760E+02 -0.72465815465E+02  0.68312935542E+03  0.68726132950E+03  0.10000000000E+01 0.  0.
    9000005    1    3    3    0    0 -0.20412571368E+02  0.47608117266E+02  0.40082490070E+03  0.40415938307E+03  0.10000000000E+01 0.  0.
          4    1    1    2  501    0  0.16104360789E+00  0.24857698199E+02  0.53103147981E+03  0.53161449994E+03  0.12700000000E+01 0. -1.
<mgrwt>
<rscale>  1 0.12744545E+03</rscale>
<asrwt>0</asrwt>
<pdfrwt beam="1">  1       21 0.24906260E+00 0.12744545E+03</pdfrwt>
<pdfrwt beam="2">  1        4 0.61923012E-03 0.12744545E+03</pdfrwt>
<totfact> 0.17195247E+04</totfact>
</mgrwt>
</event>
<event>
 6    3  0.3813045E-003  0.1271828E+03  0.7818608E-02  0.1231697E+00
         21   -1    0    0  501  502  0.00000000000E+00  0.00000000000E+00  0.48689239846E+03  0.48689239846E+03  0.00000000000E+00 0.  1.
          4   -1    0    0  502    0 -0.00000000000E+00 -0.00000000000E+00 -0.12106629270E+02  0.12173059282E+02  0.12700000000E+01 0.  1.
         25    2    1    2    0    0 -0.16983664803E+02  0.16170529889E+02  0.35744010114E+03  0.37939278076E+03  0.12500210110E+03 0.  0.
    9000005    1    3    3    0    0 -0.69695946816E+02  0.23740227766E+02  0.19474940064E+03  0.20820531325E+03  0.10000000000E+01 0.  0.
    9000005    1    3    3    0    0  0.52712282013E+02 -0.75696978775E+01  0.16269070050E+03  0.17118746750E+03  0.10000000000E+01 0.  0.
          4    1    1    2  501    0  0.16983664803E+02 -0.16170529889E+02  0.11734566804E+03  0.11967267698E+03  0.12700000000E+01 0. -1.
<mgrwt>
<rscale>  1 0.12718277E+03</rscale>
<asrwt>0</asrwt>
<pdfrwt beam="1">  1       21 0.74906508E-01 0.12718277E+03</pdfrwt>
<pdfrwt beam="2">  1        4 0.18677961E-02 0.12718277E+03</pdfrwt>
<totfact> 0.72970671E+04</totfact>
</mgrwt>
</event>
<event>
 6    3  0.3813045E-003  0.1271296E+03  0.7818608E-02  0.1231778E+00
         21   -1    0    0  501  502  0.00000000000E+00  0.00000000000E+00  0.86780913929E+01  0.86780913929E+01  0.00000000000E+00 0. -1.
         -4   -1    0    0    0  501 -0.00000000000E+00 -0.00000000000E+00 -0.96133737390E+03  0.96133821278E+03  0.12700000000E+01 0.  1.
         25    2    1    2    0    0 -0.14936900907E+02  0.17783755292E+02 -0.92579175872E+03  0.93447970761E+03  0.12499028146E+03 0.  0.
    9000005    1    3    3    0    0 -0.46636515059E+02 -0.11376215855E+01 -0.83718979974E+03  0.83848912903E+03  0.10000000000E+01 0.  0.
    9000005    1    3    3    0    0  0.31699614152E+02  0.18921376877E+02 -0.88601958987E+02  0.95990578582E+02  0.10000000000E+01 0.  0.
         -4    1    1    2    0  502  0.14936900907E+02 -0.17783755292E+02 -0.26867523782E+02  0.35536596561E+02  0.12700000000E+01 0. -1.
<mgrwt>
<rscale>  1 0.12712963E+03</rscale>
<asrwt>0</asrwt>
<pdfrwt beam="1">  1       21 0.13350906E-02 0.12712963E+03</pdfrwt>
<pdfrwt beam="2">  1       -4 0.14790531E+00 0.12712963E+03</pdfrwt>
<totfact> 0.31368742E+04</totfact>
</mgrwt>
</event>
<event>
 6    3  0.3813045E-003  0.1371794E+03  0.7818608E-02  0.1217175E+00
         21   -1    0    0  501  502  0.00000000000E+00  0.00000000000E+00  0.60582270121E+03  0.60582270121E+03  0.00000000000E+00 0.  1.
          4   -1    0    0  502    0 -0.00000000000E+00 -0.00000000000E+00 -0.20093792169E+02  0.20133886454E+02  0.12700000000E+01 0. -1.
         25    2    1    2    0    0 -0.51065776877E+02  0.24201950748E+02  0.24693998002E+03  0.28248461018E+03  0.12499901307E+03 0.  0.
    9000005    1    3    3    0    0 -0.21154323031E+02 -0.29795188608E+02  0.20408241099E+03  0.20733038640E+03  0.10000000000E+01 0.  0.
    9000005    1    3    3    0    0 -0.29911453846E+02  0.53997139356E+02  0.42857569029E+02  0.75154223787E+02  0.10000000000E+01 0.  0.
          4    1    1    2  501    0  0.51065776877E+02 -0.24201950748E+02  0.33878892902E+03  0.34347197748E+03  0.12700000000E+01 0.  1.
<mgrwt>
<rscale>  1 0.13717945E+03</rscale>
<asrwt>0</asrwt>
<pdfrwt beam="1">  1       21 0.93203479E-01 0.13717945E+03</pdfrwt>
<pdfrwt beam="2">  1        4 0.30945397E-02 0.13717945E+03</pdfrwt>
<totfact> 0.20515848E+04</totfact>
</mgrwt>
</event>
<event>
 6    3  0.3813045E-003  0.1273617E+03  0.7818608E-02  0.1231424E+00
         21   -1    0    0  501  502  0.00000000000E+00  0.00000000000E+00  0.10610241019E+02  0.10610241019E+02  0.00000000000E+00 0.  1.
         -4   -1    0    0    0  501 -0.00000000000E+00 -0.00000000000E+00 -0.85181523839E+03  0.85181618513E+03  0.12700000000E+01 0.  1.
         25    2    1    2    0    0 -0.24300627192E+02  0.23444126796E+01 -0.82068657590E+03  0.83051036009E+03  0.12499994246E+03 0.  0.
    9000005    1    3    3    0    0 -0.15092723183E+01 -0.45055404673E+02 -0.12583052156E+03  0.13366595509E+03  0.10000000000E+01 0.  0.
    9000005    1    3    3    0    0 -0.22791354874E+02  0.47399817352E+02 -0.69485605434E+03  0.69684440501E+03  0.10000000000E+01 0.  0.
         -4    1    1    2    0  502  0.24300627192E+02 -0.23444126796E+01 -0.20518421476E+02  0.31916066058E+02  0.12700000000E+01 0. -1.
<mgrwt>
<rscale>  1 0.12736170E+03</rscale>
<asrwt>0</asrwt>
<pdfrwt beam="1">  1       21 0.16323454E-02 0.12736170E+03</pdfrwt>
<pdfrwt beam="2">  1       -4 0.13105437E+00 0.12736170E+03</pdfrwt>
<totfact> 0.30765392E+04</totfact>
</mgrwt>
</event>
<event>
 6    3  0.3813045E-003  0.1414338E+03  0.7818608E-02  0.1211413E+00
         21   -1    0    0  501  502  0.00000000000E+00  0.00000000000E+00  0.11508672638E+03  0.11508672638E+03  0.00000000000E+00 0.  1.
         -4   -1    0    0    0  501 -0.00000000000E+00 -0.00000000000E+00 -0.41837349766E+03  0.41837542524E+03  0.12700000000E+01 0. -1.
         25    2    1    2    0    0 -0.46543231548E+02 -0.47042823345E+02 -0.39545741881E+03  0.41998818633E+03  0.12499682769E+03 0.  0.
    9000005    1    3    3    0    0 -0.47345611147E+02 -0.82941253603E+02 -0.34549379888E+03  0.35845198215E+03  0.10000000000E+01 0.  0.
    9000005    1    3    3    0    0  0.80237959964E+00  0.35898430258E+02 -0.49963619933E+02  0.61536204179E+02  0.10000000000E+01 0.  0.
         -4    1    1    2    0  502  0.46543231548E+02  0.47042823345E+02  0.92170647531E+02  0.11347396529E+03  0.12700000000E+01 0.  1.
<mgrwt>
<rscale>  1 0.14143375E+03</rscale>
<asrwt>0</asrwt>
<pdfrwt beam="1">  1       21 0.17705650E-01 0.14143375E+03</pdfrwt>
<pdfrwt beam="2">  1       -4 0.64365841E-01 0.14143375E+03</pdfrwt>
<totfact> 0.27423653E+03</totfact>
</mgrwt>
</event>
<event>
 6    3  0.3813045E-003  0.1393820E+03  0.7818608E-02  0.1214163E+00
         21   -1    0    0  501  502  0.00000000000E+00  0.00000000000E+00  0.40155828951E+02  0.40155828951E+02  0.00000000000E+00 0. -1.
          4   -1    0    0  502    0 -0.00000000000E+00 -0.00000000000E+00 -0.41800368584E+03  0.41800561512E+03  0.12700000000E+01 0.  1.
         25    2    1    2    0    0 -0.54777535843E+02  0.28291327700E+02 -0.37075570460E+03  0.39608979853E+03  0.12500543329E+03 0.  0.
    9000005    1    3    3    0    0  0.40731483536E+02  0.12036372912E+02 -0.11084401294E+03  0.11870687945E+03  0.10000000000E+01 0.  0.
    9000005    1    3    3    0    0 -0.95509019379E+02  0.16254954788E+02 -0.25991169166E+03  0.27738291909E+03  0.10000000000E+01 0.  0.
          4    1    1    2  501    0  0.54777535843E+02 -0.28291327700E+02 -0.70921522874E+01  0.62071645540E+02  0.12700000000E+01 0. -1.
<mgrwt>
<rscale>  1 0.13938198E+03</rscale>
<asrwt>0</asrwt>
<pdfrwt beam="1">  1       21 0.61778197E-02 0.13938198E+03</pdfrwt>
<pdfrwt beam="2">  1        4 0.64309954E-01 0.13938198E+03</pdfrwt>
<totfact> 0.17531180E+04</totfact>
</mgrwt>
</event>
<event>
 6    3  0.3813045E-003  0.1538074E+03  0.7818608E-02  0.1195871E+00
         21   -1    0    0  501  502  0.00000000000E+00  0.00000000000E+00  0.33270385414E+02  0.33270385414E+02  0.00000000000E+00 0. -1.
         -4   -1    0    0    0  501 -0.00000000000E+00 -0.00000000000E+00 -0.53669800336E+03  0.53669950597E+03  0.12700000000E+01 0. -1.
         25    2    1    2    0    0  0.86634447974E+02 -0.22934108766E+02 -0.42094589045E+03  0.44816533814E+03  0.12500090680E+03 0.  0.
    9000005    1    3    3    0    0  0.40371543646E+02  0.30357097998E+02 -0.32583504224E+03  0.32972850906E+03  0.10000000000E+01 0.  0.
    9000005    1    3    3    0    0  0.46262904329E+02 -0.53291206763E+02 -0.95110848210E+02  0.11843682908E+03  0.10000000000E+01 0.  0.
         -4    1    1    2    0  502 -0.86634447974E+02  0.22934108766E+02 -0.82481727494E+02  0.12180455324E+03  0.12700000000E+01 0.  1.
<mgrwt>
<rscale>  1 0.15380744E+03</rscale>
<asrwt>0</asrwt>
<pdfrwt beam="1">  1       21 0.51185209E-02 0.15380744E+03</pdfrwt>
<pdfrwt beam="2">  1       -4 0.82570902E-01 0.15380744E+03</pdfrwt>
<totfact> 0.14127740E+04</totfact>
</mgrwt>
</event>
<event>
 6    3  0.3813045E-003  0.1358083E+03  0.7818608E-02  0.1219083E+00
         -4   -1    0    0    0  501 -0.00000000000E+00  0.00000000000E+00  0.22545104543E+03  0.22545462246E+03  0.12700000000E+01 0.  1.
         21   -1    0    0  501  502  0.00000000000E+00 -0.00000000000E+00 -0.56475126916E+02  0.56475126916E+02  0.00000000000E+00 0. -1.
         25    2    1    2    0    0 -0.14296495997E+02  0.51126130229E+02  0.18216105846E+03  0.22721474407E+03  0.12500247083E+03 0.  0.
    9000005    1    3    3    0    0 -0.41055921086E+02  0.36428942033E+02  0.18822959140E+03  0.19607150622E+03  0.10000000000E+01 0.  0.
    9000005    1    3    3    0    0  0.26759425089E+02  0.14697188195E+02 -0.60685329336E+01  0.31143237852E+02  0.10000000000E+01 0.  0.
         -4    1    1    2    0  502  0.14296495997E+02 -0.51126130229E+02 -0.13185139945E+02  0.54715005303E+02  0.12700000000E+01 0. -1.
<mgrwt>
<rscale>  1 0.13580828E+03</rscale>
<asrwt>0</asrwt>
<pdfrwt beam="2">  1       21 0.86884812E-02 0.13580828E+03</pdfrwt>
<pdfrwt beam="1">  1       -4 0.34686149E-01 0.13580828E+03</pdfrwt>
<totfact> 0.33902582E+04</totfact>
</mgrwt>
</event>
<event>
 6    3  0.3813045E-003  0.1272551E+03  0.7818608E-02  0.1231587E+00
          4   -1    0    0  502    0 -0.00000000000E+00  0.00000000000E+00  0.12880072339E+02  0.12942533116E+02  0.12700000000E+01 0.  1.
         21   -1    0    0  501  502  0.00000000000E+00 -0.00000000000E+00 -0.51683013876E+03  0.51683013876E+03  0.00000000000E+00 0.  1.
         25    2    1    2    0    0 -0.22565478297E+02  0.77638630070E+01 -0.32157543246E+03  0.34583899255E+03  0.12499748647E+03 0.  0.
    9000005    1    3    3    0    0  0.91076080816E+01  0.50470791578E+02 -0.25754954567E+03  0.26260810688E+03  0.10000000000E+01 0.  0.
    9000005    1    3    3    0    0 -0.31673086378E+02 -0.42706928571E+02 -0.64025886795E+02  0.83230885665E+02  0.10000000000E+01 0.  0.
          4    1    1    2  501    0  0.22565478297E+02 -0.77638630070E+01 -0.18237463395E+03  0.18393367932E+03  0.12700000000E+01 0. -1.
<mgrwt>
<rscale>  1 0.12725506E+03</rscale>
<asrwt>0</asrwt>
<pdfrwt beam="2">  1       21 0.79512331E-01 0.12725506E+03</pdfrwt>
<pdfrwt beam="1">  1        4 0.19864743E-02 0.12725506E+03</pdfrwt>
<totfact> 0.58155816E+04</totfact>
</mgrwt>
</event>
<event>
 6    3  0.3813045E-003  0.1278421E+03  0.7818608E-02  0.1230693E+00
         21   -1    0    0  501  502  0.00000000000E+00  0.00000000000E+00  0.43548413759E+02  0.43548413759E+02  0.00000000000E+00 0. -1.
         -4   -1    0    0    0  501 -0.00000000000E+00 -0.00000000000E+00 -0.14786845459E+03  0.14787390832E+03  0.12700000000E+01 0. -1.
         25    2    1    2    0    0 -0.15262627967E+02  0.22040519551E+02 -0.10363944841E+03  0.16457444655E+03  0.12499952351E+03 0.  0.
    9000005    1    3    3    0    0  0.46605110455E+02 -0.22328074806E+02 -0.40650048908E+02  0.65757172395E+02  0.10000000000E+01 0.  0.
    9000005    1    3    3    0    0 -0.61867738422E+02  0.44368594357E+02 -0.62989399498E+02  0.98817274157E+02  0.10000000000E+01 0.  0.
         -4    1    1    2    0  502  0.15262627967E+02 -0.22040519551E+02 -0.68059242609E+00  0.26847875532E+02  0.12700000000E+01 0.  1.
<mgrwt>
<rscale>  1 0.12784214E+03</rscale>
<asrwt>0</asrwt>
<pdfrwt beam="1">  1       21 0.66997559E-02 0.12784214E+03</pdfrwt>
<pdfrwt beam="2">  1       -4 0.22750837E-01 0.12784214E+03</pdfrwt>
<totfact> 0.11590596E+05</totfact>
</mgrwt>
</event>
<event>
 6    3  0.3813045E-003  0.1289333E+03  0.7818608E-02  0.1229047E+00
          4   -1    0    0  502    0 -0.00000000000E+00  0.00000000000E+00  0.25569136963E+03  0.25569452361E+03  0.12700000000E+01 0. -1.
         21   -1    0    0  501  502  0.00000000000E+00 -0.00000000000E+00 -0.26194189408E+02  0.26194189408E+02  0.00000000000E+00 0. -1.
         25    2    1    2    0    0  0.18789530978E+02 -0.25410045153E+02  0.20369291143E+03  0.24106972164E+03  0.12500036662E+03 0.  0.
    9000005    1    3    3    0    0 -0.23543765682E+02  0.32980128720E+02  0.23212335094E+02  0.46709852209E+02  0.10000000000E+01 0.  0.
    9000005    1    3    3    0    0  0.42333296660E+02 -0.58390173873E+02  0.18048057634E+03  0.19435986943E+03  0.10000000000E+01 0.  0.
          4    1    1    2  501    0 -0.18789530978E+02  0.25410045153E+02  0.25804268791E+02  0.40818991375E+02  0.12700000000E+01 0.  1.
<mgrwt>
<rscale>  1 0.12893335E+03</rscale>
<asrwt>0</asrwt>
<pdfrwt beam="2">  1       21 0.40298755E-02 0.12893335E+03</pdfrwt>
<pdfrwt beam="1">  1        4 0.39339743E-01 0.12893335E+03</pdfrwt>
<totfact> 0.97064214E+04</totfact>
</mgrwt>
</event>
<event>
 6    3  0.3813045E-003  0.1412518E+03  0.7818608E-02  0.1211654E+00
         21   -1    0    0  501  502  0.00000000000E+00  0.00000000000E+00  0.16045245498E+03  0.16045245498E+03  0.00000000000E+00 0. -1.
         -4   -1    0    0    0  501 -0.00000000000E+00 -0.00000000000E+00 -0.90468295451E+02  0.90477209184E+02  0.12700000000E+01 0.  1.
         25    2    1    2    0    0 -0.65472230413E+02 -0.62073086614E+01 -0.16566665005E+02  0.14221995087E+03  0.12500766537E+03 0.  0.
    9000005    1    3    3    0    0 -0.81825265660E+02 -0.17415480084E+00 -0.55956705220E+02  0.99134036987E+02  0.10000000000E+01 0.  0.
    9000005    1    3    3    0    0  0.16353035247E+02 -0.60331538606E+01  0.39390040215E+02  0.43085913886E+02  0.10000000000E+01 0.  0.
         -4    1    1    2    0  502  0.65472230413E+02  0.62073086614E+01  0.86550824533E+02  0.10870971329E+03  0.12700000000E+01 0. -1.
<mgrwt>
<rscale>  1 0.14125176E+03</rscale>
<asrwt>0</asrwt>
<pdfrwt beam="1">  1       21 0.24684993E-01 0.14125176E+03</pdfrwt>
<pdfrwt beam="2">  1       -4 0.13919272E-01 0.14125176E+03</pdfrwt>
<totfact> 0.27281347E+04</totfact>
</mgrwt>
</event>
<event>
 6    3  0.3813045E-003  0.1305860E+03  0.7818608E-02  0.1226589E+00
         -4   -1    0    0    0  501 -0.00000000000E+00  0.00000000000E+00  0.41323116027E+03  0.41323311184E+03  0.12700000000E+01 0. -1.
         21   -1    0    0  501  502  0.00000000000E+00 -0.00000000000E+00 -0.49129255235E+02  0.49129255235E+02  0.00000000000E+00 0.  1.
         25    2    1    2    0    0  0.37681758111E+02  0.27650725217E+01  0.39341713760E+03  0.41452350964E+03  0.12500054148E+03 0.  0.
    9000005    1    3    3    0    0  0.11848358800E+02 -0.40735902029E+01  0.38676161414E+03  0.38696579166E+03  0.10000000000E+01 0.  0.
    9000005    1    3    3    0    0  0.25833399311E+02  0.68386627246E+01  0.66555234545E+01  0.27557717980E+02  0.10000000000E+01 0.  0.
         -4    1    1    2    0  502 -0.37681758111E+02 -0.27650725217E+01 -0.29315232559E+02  0.47838857432E+02  0.12700000000E+01 0.  1.
<mgrwt>
<rscale>  1 0.13058597E+03</rscale>
<asrwt>0</asrwt>
<pdfrwt beam="2">  1       21 0.75583472E-02 0.13058597E+03</pdfrwt>
<pdfrwt beam="1">  1       -4 0.63575435E-01 0.13058597E+03</pdfrwt>
<totfact> 0.12642234E+04</totfact>
</mgrwt>
</event>
<event>
 6    3  0.3813045E-003  0.1343865E+03  0.7818608E-02  0.1221088E+00
          4   -1    0    0  502    0 -0.00000000000E+00  0.00000000000E+00  0.16486249224E+04  0.16486254116E+04  0.12700000000E+01 0. -1.
         21   -1    0    0  501  502  0.00000000000E+00 -0.00000000000E+00 -0.55843494244E+01  0.55843494244E+01  0.00000000000E+00 0.  1.
         25    2    1    2    0    0 -0.11750257345E+02 -0.47915717909E+02  0.13840568560E+04  0.13905657527E+04  0.12500298898E+03 0.  0.
    9000005    1    3    3    0    0  0.21381872242E+02 -0.19609354667E+02  0.69927847275E+02  0.75714034865E+02  0.10000000000E+01 0.  0.
    9000005    1    3    3    0    0 -0.33132129587E+02 -0.28306363242E+02  0.13141290087E+04  0.13148517178E+04  0.10000000000E+01 0.  0.
          4    1    1    2  501    0  0.11750257345E+02  0.47915717909E+02  0.25898371696E+03  0.26364400832E+03  0.12700000000E+01 0.  1.
<mgrwt>
<rscale>  1 0.13438650E+03</rscale>
<asrwt>0</asrwt>
<pdfrwt beam="2">  1       21 0.85913200E-03 0.13438650E+03</pdfrwt>
<pdfrwt beam="1">  1        4 0.25364536E+00 0.13438650E+03</pdfrwt>
<totfact> 0.13574877E+04</totfact>
</mgrwt>
</event>
<event>
 6    3  0.3813045E-003  0.1282555E+03  0.7818608E-02  0.1230068E+00
         21   -1    0    0  501  502  0.00000000000E+00  0.00000000000E+00  0.43051149320E+02  0.43051149320E+02  0.00000000000E+00 0.  1.
          4   -1    0    0  502    0 -0.00000000000E+00 -0.00000000000E+00 -0.26866802042E+03  0.26867102206E+03  0.12700000000E+01 0. -1.
         25    2    1    2    0    0 -0.24374189093E+02  0.14878184172E+02 -0.24544454360E+03  0.27693408498E+03  0.12503600275E+03 0.  0.
    9000005    1    3    3    0    0 -0.62201689031E+02 -0.25189247858E+02 -0.17543468707E+03  0.18783470860E+03  0.10000000000E+01 0.  0.
    9000005    1    3    3    0    0  0.37827499938E+02  0.40067432030E+02 -0.70009856530E+02  0.89099376386E+02  0.10000000000E+01 0.  0.
          4    1    1    2  501    0  0.24374189093E+02 -0.14878184172E+02  0.19827672504E+02  0.34788086396E+02  0.12700000000E+01 0.  1.
<mgrwt>
<rscale>  1 0.12825546E+03</rscale>
<asrwt>0</asrwt>
<pdfrwt beam="1">  1       21 0.66232537E-02 0.12825546E+03</pdfrwt>
<pdfrwt beam="2">  1        4 0.41335214E-01 0.12825546E+03</pdfrwt>
<totfact> 0.38140746E+04</totfact>
</mgrwt>
</event>
<event>
 6    3  0.3813045E-003  0.1304372E+03  0.7818608E-02  0.1226808E+00
         -4   -1    0    0    0  501 -0.00000000000E+00  0.00000000000E+00  0.44749398800E+03  0.44749579014E+03  0.12700000000E+01 0.  1.
         21   -1    0    0  501  502  0.00000000000E+00 -0.00000000000E+00 -0.38879376446E+03  0.38879376446E+03  0.00000000000E+00 0. -1.
         25    2    1    2    0    0 -0.34848479276E+02 -0.13204130530E+02  0.43705383383E+03  0.45610297818E+03  0.12500042987E+03 0.  0.
    9000005    1    3    3    0    0 -0.81234126107E+02  0.28400315999E+01  0.26602124576E+03  0.27816425403E+03  0.10000000000E+01 0.  0.
    9000005    1    3    3    0    0  0.46385646831E+02 -0.16044162129E+02  0.17103258806E+03  0.17793872414E+03  0.10000000000E+01 0.  0.
         -4    1    1    2    0  502  0.34848479276E+02  0.13204130530E+02 -0.37835361030E+03  0.38018657643E+03  0.12700000000E+01 0. -1.
<mgrwt>
<rscale>  1 0.13043724E+03</rscale>
<asrwt>0</asrwt>
<pdfrwt beam="2">  1       21 0.59814425E-01 0.13043724E+03</pdfrwt>
<pdfrwt beam="1">  1       -4 0.68845527E-01 0.13043724E+03</pdfrwt>
<totfact> 0.21832493E+02</totfact>
</mgrwt>
</event>
<event>
 6    3  0.3813045E-003  0.1267894E+03  0.7818608E-02  0.1232299E+00
         21   -1    0    0  501  502  0.00000000000E+00  0.00000000000E+00  0.12195245653E+03  0.12195245653E+03  0.00000000000E+00 0.  1.
         -4   -1    0    0    0  501 -0.00000000000E+00 -0.00000000000E+00 -0.44935773897E+02  0.44953717040E+02  0.12700000000E+01 0.  1.
         25    2    1    2    0    0  0.12583497614E+01  0.21181779333E+02  0.64806326988E+02  0.14239175119E+03  0.12500119827E+03 0.  0.
    9000005    1    3    3    0    0  0.17694219097E+02  0.23259147172E+02 -0.32477730327E+02  0.43702131342E+02  0.10000000000E+01 0.  0.
    9000005    1    3    3    0    0 -0.16435869336E+02 -0.20773678394E+01  0.97284057315E+02  0.98689619847E+02  0.10000000000E+01 0.  0.
         -4    1    1    2    0  502 -0.12583497614E+01 -0.21181779333E+02  0.12210355648E+02  0.24514422385E+02  0.12700000000E+01 0. -1.
<mgrwt>
<rscale>  1 0.12678940E+03</rscale>
<asrwt>0</asrwt>
<pdfrwt beam="1">  1       21 0.18761916E-01 0.12678940E+03</pdfrwt>
<pdfrwt beam="2">  1       -4 0.69150850E-02 0.12678940E+03</pdfrwt>
<totfact> 0.14577647E+05</totfact>
</mgrwt>
</event>
<event>
 6    3  0.3813045E-003  0.1287262E+03  0.7818608E-02  0.1229358E+00
          4   -1    0    0  502    0 -0.00000000000E+00  0.00000000000E+00  0.17925340933E+03  0.17925790821E+03  0.12700000000E+01 0.  1.
         21   -1    0    0  501  502  0.00000000000E+00 -0.00000000000E+00 -0.10672935893E+03  0.10672935893E+03  0.00000000000E+00 0. -1.
         25    2    1    2    0    0 -0.34946643757E+01 -0.30536720892E+02  0.15293151798E+03  0.19989616572E+03  0.12500289547E+03 0.  0.
    9000005    1    3    3    0    0  0.33996018297E+02  0.37614384320E+02  0.54614639054E+02  0.74527377298E+02  0.10000000000E+01 0.  0.
    9000005    1    3    3    0    0 -0.37490682673E+02 -0.68151105211E+02  0.98316878927E+02  0.12536878842E+03  0.10000000000E+01 0.  0.
          4    1    1    2  501    0  0.34946643757E+01  0.30536720892E+02 -0.80407467574E+02  0.86091101419E+02  0.12700000000E+01 0. -1.
<mgrwt>
<rscale>  1 0.12872617E+03</rscale>
<asrwt>0</asrwt>
<pdfrwt beam="2">  1       21 0.16419901E-01 0.12872617E+03</pdfrwt>
<pdfrwt beam="1">  1        4 0.27578375E-01 0.12872617E+03</pdfrwt>
<totfact> 0.16842136E+04</totfact>
</mgrwt>
</event>
<event>
 6    3  0.3813045E-003  0.1269289E+03  0.7818608E-02  0.1232085E+00
         -4   -1    0    0    0  501 -0.00000000000E+00  0.00000000000E+00  0.17865048470E+03  0.17865499877E+03  0.12700000000E+01 0.  1.
         21   -1    0    0  501  502  0.00000000000E+00 -0.00000000000E+00 -0.33870187117E+02  0.33870187117E+02  0.00000000000E+00 0.  1.
         25    2    1    2    0    0  0.13935675649E+02 -0.17084259586E+02  0.96541348806E+02  0.15947158977E+03  0.12499952373E+03 0.  0.
    9000005    1    3    3    0    0  0.30128251959E+02 -0.62800078015E+02  0.27058962930E+02  0.74731177159E+02  0.10000000000E+01 0.  0.
    9000005    1    3    3    0    0 -0.16192576309E+02  0.45715818429E+02  0.69482385876E+02  0.84740412609E+02  0.10000000000E+01 0.  0.
         -4    1    1    2    0  502 -0.13935675649E+02  0.17084259586E+02  0.48238948779E+02  0.53053596115E+02  0.12700000000E+01 0. -1.
<mgrwt>
<rscale>  1 0.12692894E+03</rscale>
<asrwt>0</asrwt>
<pdfrwt beam="2">  1       21 0.52107981E-02 0.12692894E+03</pdfrwt>
<pdfrwt beam="1">  1       -4 0.27486868E-01 0.12692894E+03</pdfrwt>
<totfact> 0.12505211E+05</totfact>
</mgrwt>
</event>
<event>
 6    3  0.3813045E-003  0.1380218E+03  0.7818608E-02  0.1216016E+00
          4   -1    0    0  502    0 -0.00000000000E+00  0.00000000000E+00  0.47117655657E+03  0.47117826813E+03  0.12700000000E+01 0.  1.
         21   -1    0    0  501  502  0.00000000000E+00 -0.00000000000E+00 -0.45489015726E+02  0.45489015726E+02  0.00000000000E+00 0. -1.
         25    2    1    2    0    0 -0.51843418279E+02 -0.27171824792E+02  0.43590666681E+03  0.45723588208E+03  0.12499592637E+03 0.  0.
    9000005    1    3    3    0    0 -0.39194947142E+02  0.42437398497E+02  0.28180060694E+03  0.28766257793E+03  0.10000000000E+01 0.  0.
    9000005    1    3    3    0    0 -0.12648471137E+02 -0.69609223289E+02  0.15410605988E+03  0.16957330415E+03  0.10000000000E+01 0.  0.
          4    1    1    2  501    0  0.51843418279E+02  0.27171824792E+02 -0.10219125974E+02  0.59431401776E+02  0.12700000000E+01 0. -1.
<mgrwt>
<rscale>  1 0.13802184E+03</rscale>
<asrwt>0</asrwt>
<pdfrwt beam="2">  1       21 0.69983104E-02 0.13802184E+03</pdfrwt>
<pdfrwt beam="1">  1        4 0.72490193E-01 0.13802184E+03</pdfrwt>
<totfact> 0.10943770E+04</totfact>
</mgrwt>
</event>
<event>
 6    3  0.3813045E-003  0.1268206E+03  0.7818608E-02  0.1232251E+00
         -4   -1    0    0    0  501 -0.00000000000E+00  0.00000000000E+00  0.30675668842E+03  0.30675931737E+03  0.12700000000E+01 0. -1.
         21   -1    0    0  501  502  0.00000000000E+00 -0.00000000000E+00 -0.70243407346E+02  0.70243407346E+02  0.00000000000E+00 0.  1.
         25    2    1    2    0    0  0.16918750113E+02 -0.13390060138E+02  0.29151518009E+03  0.31790653524E+03  0.12497170523E+03 0.  0.
    9000005    1    3    3    0    0 -0.12672904745E+02 -0.26977439403E+02  0.58513932418E+01  0.30391175599E+02  0.10000000000E+01 0.  0.
    9000005    1    3    3    0    0  0.29591654858E+02  0.13587379265E+02  0.28566378685E+03  0.28751535964E+03  0.10000000000E+01 0.  0.
         -4    1    1    2    0  502 -0.16918750113E+02  0.13390060138E+02 -0.55001899011E+02  0.59096189477E+02  0.12700000000E+01 0.  1.
<mgrwt>
<rscale>  1 0.12682060E+03</rscale>
<asrwt>0</asrwt>
<pdfrwt beam="2">  1       21 0.10806678E-01 0.12682060E+03</pdfrwt>
<pdfrwt beam="1">  1       -4 0.47194421E-01 0.12682060E+03</pdfrwt>
<totfact> 0.12534010E+04</totfact>
</mgrwt>
</event>
<event>
 6    3  0.3813045E-003  0.1330869E+03  0.7818608E-02  0.1222946E+00
         -4   -1    0    0    0  501 -0.00000000000E+00  0.00000000000E+00  0.25336725359E+03  0.25337043650E+03  0.12700000000E+01 0. -1.
         21   -1    0    0  501  502  0.00000000000E+00 -0.00000000000E+00 -0.12474176980E+03  0.12474176980E+03  0.00000000000E+00 0.  1.
         25    2    1    2    0    0  0.25764743495E+02 -0.37745342962E+02  0.23066146014E+03  0.26630216072E+03  0.12499439461E+03 0.  0.
    9000005    1    3    3    0    0  0.48702281213E+02 -0.73558551067E+02  0.17748185792E+03  0.19820086408E+03  0.10000000000E+01 0.  0.
    9000005    1    3    3    0    0 -0.22937537719E+02  0.35813208105E+02  0.53179602227E+02  0.68101296642E+02  0.10000000000E+01 0.  0.
         -4    1    1    2    0  502 -0.25764743495E+02  0.37745342962E+02 -0.10203597635E+03  0.11181004558E+03  0.12700000000E+01 0.  1.
<mgrwt>
<rscale>  1 0.13308693E+03</rscale>
<asrwt>0</asrwt>
<pdfrwt beam="2">  1       21 0.19191041E-01 0.13308693E+03</pdfrwt>
<pdfrwt beam="1">  1       -4 0.38980320E-01 0.13308693E+03</pdfrwt>
<totfact> 0.65538223E+03</totfact>
</mgrwt>
</event>
<event>
 6    3  0.3813045E-003  0.1304266E+03  0.7818608E-02  0.1226824E+00
         -4   -1    0    0    0  501 -0.00000000000E+00  0.00000000000E+00  0.77912108156E+01  0.78940399019E+01  0.12700000000E+01 0. -1.
         21   -1    0    0  501  502  0.00000000000E+00 -0.00000000000E+00 -0.10260985476E+04  0.10260985476E+04  0.00000000000E+00 0.  1.
         25    2    1    2    0    0  0.19988784503E+02 -0.31411469225E+02 -0.59908270313E+03  0.61311595680E+03  0.12499943757E+03 0.  0.
    9000005    1    3    3    0    0  0.28333096889E+02 -0.25133369642E+02 -0.60121811823E+03  0.60241072064E+03  0.10000000000E+01 0.  0.
    9000005    1    3    3    0    0 -0.83443123859E+01 -0.62780995833E+01  0.21354151080E+01  0.10705236161E+02  0.10000000000E+01 0.  0.
         -4    1    1    2    0  502 -0.19988784503E+02  0.31411469225E+02 -0.41922463368E+03  0.42087663072E+03  0.12700000000E+01 0.  1.
<mgrwt>
<rscale>  1 0.13042657E+03</rscale>
<asrwt>0</asrwt>
<pdfrwt beam="2">  1       21 0.15786121E+00 0.13042657E+03</pdfrwt>
<pdfrwt beam="1">  1       -4 0.12066190E-02 0.13042657E+03</pdfrwt>
<totfact> 0.23870361E+04</totfact>
</mgrwt>
</event>
<event>
 6    3  0.3813045E-003  0.1748016E+03  0.7818608E-02  0.1172931E+00
          4   -1    0    0  502    0 -0.00000000000E+00  0.00000000000E+00  0.22286695070E+02  0.22322851009E+02  0.12700000000E+01 0.  1.
         21   -1    0    0  501  502  0.00000000000E+00 -0.00000000000E+00 -0.13776597887E+04  0.13776597887E+04  0.00000000000E+00 0. -1.
         25    2    1    2    0    0  0.78480268076E+02  0.93659340263E+02 -0.39607982156E+03  0.43293743950E+03  0.12499750791E+03 0.  0.
    9000005    1    3    3    0    0  0.38925566470E+02 -0.40546259256E+01 -0.24854127702E+03  0.25160565594E+03  0.10000000000E+01 0.  0.
    9000005    1    3    3    0    0  0.39554701606E+02  0.97713966188E+02 -0.14753854453E+03  0.18133178356E+03  0.10000000000E+01 0.  0.
          4    1    1    2  501    0 -0.78480268076E+02 -0.93659340263E+02 -0.95929327210E+03  0.96704520023E+03  0.12700000000E+01 0. -1.
<mgrwt>
<rscale>  1 0.17480161E+03</rscale>
<asrwt>0</asrwt>
<pdfrwt beam="2">  1       21 0.21194765E+00 0.17480161E+03</pdfrwt>
<pdfrwt beam="1">  1        4 0.34315487E-02 0.17480161E+03</pdfrwt>
<totfact> 0.20809820E+03</totfact>
</mgrwt>
</event>
<event>
 6    3  0.3813045E-003  0.1277183E+03  0.7818608E-02  0.1230881E+00
         -4   -1    0    0    0  501 -0.00000000000E+00  0.00000000000E+00  0.77418876542E+02  0.77429292552E+02  0.12700000000E+01 0.  1.
         21   -1    0    0  501  502  0.00000000000E+00 -0.00000000000E+00 -0.11219484133E+03  0.11219484133E+03  0.00000000000E+00 0.  1.
         25    2    1    2    0    0 -0.17401694494E+02 -0.19651628913E+02  0.19616373207E+02  0.12921598192E+03  0.12499184932E+03 0.  0.
    9000005    1    3    3    0    0 -0.39268756809E+02 -0.63795437823E+02 -0.30458131115E+01  0.74981131800E+02  0.10000000000E+01 0.  0.
    9000005    1    3    3    0    0  0.21867062315E+02  0.44143808910E+02  0.22662186319E+02  0.54234850125E+02  0.10000000000E+01 0.  0.
         -4    1    1    2    0  502  0.17401694494E+02  0.19651628913E+02 -0.54392337993E+02  0.60408151955E+02  0.12700000000E+01 0. -1.
<mgrwt>
<rscale>  1 0.12771831E+03</rscale>
<asrwt>0</asrwt>
<pdfrwt beam="2">  1       21 0.17260745E-01 0.12771831E+03</pdfrwt>
<pdfrwt beam="1">  1       -4 0.11911950E-01 0.12771831E+03</pdfrwt>
<totfact> 0.68514336E+04</totfact>
</mgrwt>
</event>
<event>
 6    3  0.3813045E-003  0.1273950E+03  0.7818608E-02  0.1231373E+00
         21   -1    0    0  501  502  0.00000000000E+00  0.00000000000E+00  0.46145699205E+02  0.46145699205E+02  0.00000000000E+00 0.  1.
          4   -1    0    0  502    0 -0.00000000000E+00 -0.00000000000E+00 -0.12532791750E+03  0.12533435205E+03  0.12700000000E+01 0.  1.
         25    2    1    2    0    0  0.16709090794E+02  0.18047993627E+02 -0.64264867884E+02  0.14268657921E+03  0.12499825140E+03 0.  0.
    9000005    1    3    3    0    0  0.37624021752E+02 -0.58612273438E+01 -0.92587002233E+02  0.10011630228E+03  0.10000000000E+01 0.  0.
    9000005    1    3    3    0    0 -0.20914930958E+02  0.23909220971E+02  0.28322134349E+02  0.42570276938E+02  0.10000000000E+01 0.  0.
          4    1    1    2  501    0 -0.16709090794E+02 -0.18047993627E+02 -0.14917350411E+02  0.28793472045E+02  0.12700000000E+01 0. -1.
<mgrwt>
<rscale>  1 0.12739500E+03</rscale>
<asrwt>0</asrwt>
<pdfrwt beam="1">  1       21 0.70993383E-02 0.12739500E+03</pdfrwt>
<pdfrwt beam="2">  1        4 0.19283057E-01 0.12739500E+03</pdfrwt>
<totfact> 0.14144930E+05</totfact>
</mgrwt>
</event>
<event>
 6    3  0.3813045E-003  0.1295476E+03  0.7818608E-02  0.1228129E+00
         -4   -1    0    0    0  501 -0.00000000000E+00  0.00000000000E+00  0.12239502942E+03  0.12240161816E+03  0.12700000000E+01 0. -1.
         21   -1    0    0  501  502  0.00000000000E+00 -0.00000000000E+00 -0.71434548692E+02  0.71434548692E+02  0.00000000000E+00 0. -1.
         25    2    1    2    0    0 -0.32030072910E+02 -0.11466316613E+02 -0.35176898070E+01  0.12959532351E+03  0.12500068699E+03 0.  0.
    9000005    1    3    3    0    0 -0.33520189725E+02 -0.58805230641E+02  0.27395301830E+02  0.73028493291E+02  0.10000000000E+01 0.  0.
    9000005    1    3    3    0    0  0.14901168145E+01  0.47338914028E+02 -0.30912991637E+02  0.56566830223E+02  0.10000000000E+01 0.  0.
         -4    1    1    2    0  502  0.32030072910E+02  0.11466316613E+02  0.54478170538E+02  0.64240843336E+02  0.12700000000E+01 0.  1.
<mgrwt>
<rscale>  1 0.12954757E+03</rscale>
<asrwt>0</asrwt>
<pdfrwt beam="2">  1       21 0.10989931E-01 0.12954757E+03</pdfrwt>
<pdfrwt beam="1">  1       -4 0.18831380E-01 0.12954757E+03</pdfrwt>
<totfact> 0.69301027E+04</totfact>
</mgrwt>
</event>
<event>
 6    3  0.3813045E-003  0.1290079E+03  0.7818608E-02  0.1228935E+00
         21   -1    0    0  501  502  0.00000000000E+00  0.00000000000E+00  0.10063755124E+03  0.10063755124E+03  0.00000000000E+00 0. -1.
         -4   -1    0    0    0  501 -0.00000000000E+00 -0.00000000000E+00 -0.14236296645E+03  0.14236863108E+03  0.12700000000E+01 0. -1.
         25    2    1    2    0    0  0.91772969347E+01  0.30615430358E+02 -0.10875699911E+03  0.16873388940E+03  0.12498605211E+03 0.  0.
    9000005    1    3    3    0    0  0.57091585823E+01  0.15642640968E+02  0.27199562976E+02  0.31907725307E+02  0.10000000000E+01 0.  0.
    9000005    1    3    3    0    0  0.34681383524E+01  0.14972789390E+02 -0.13595656209E+03  0.13682616410E+03  0.10000000000E+01 0.  0.
         -4    1    1    2    0  502 -0.91772969347E+01 -0.30615430358E+02  0.67031583907E+02  0.74272292924E+02  0.12700000000E+01 0.  1.
<mgrwt>
<rscale>  1 0.12900791E+03</rscale>
<asrwt>0</asrwt>
<pdfrwt beam="1">  1       21 0.15482700E-01 0.12900791E+03</pdfrwt>
<pdfrwt beam="2">  1       -4 0.21903047E-01 0.12900791E+03</pdfrwt>
<totfact> 0.28636368E+04</totfact>
</mgrwt>
</event>
<event>
 6    3  0.3813045E-003  0.1573776E+03  0.7818608E-02  0.1191690E+00
          4   -1    0    0  502    0 -0.00000000000E+00  0.00000000000E+00  0.72460268162E+02  0.72471396855E+02  0.12700000000E+01 0. -1.
         21   -1    0    0  501  502  0.00000000000E+00 -0.00000000000E+00 -0.24020779918E+03  0.24020779918E+03  0.00000000000E+00 0.  1.
         25    2    1    2    0    0  0.12710778063E+02 -0.94759688214E+02 -0.59501886064E+02  0.16825033832E+03  0.12500695785E+03 0.  0.
    9000005    1    3    3    0    0  0.33752091927E+02 -0.11961024281E+03 -0.41504744127E+02  0.13103227724E+03  0.10000000000E+01 0.  0.
    9000005    1    3    3    0    0 -0.21041313864E+02  0.24850554592E+02 -0.17997141937E+02  0.37218061080E+02  0.10000000000E+01 0.  0.
          4    1    1    2  501    0 -0.12710778063E+02  0.94759688214E+02 -0.10824564496E+03  0.14442885772E+03  0.12700000000E+01 0.  1.
<mgrwt>
<rscale>  1 0.15737758E+03</rscale>
<asrwt>0</asrwt>
<pdfrwt beam="2">  1       21 0.36955046E-01 0.15737758E+03</pdfrwt>
<pdfrwt beam="1">  1        4 0.11148848E-01 0.15737758E+03</pdfrwt>
<totfact> 0.18460420E+04</totfact>
</mgrwt>
</event>
<event>
 6    3  0.3813045E-003  0.1274486E+03  0.7818608E-02  0.1231291E+00
         -4   -1    0    0    0  501 -0.00000000000E+00  0.00000000000E+00  0.43734057135E+01  0.45540726317E+01  0.12700000000E+01 0. -1.
         21   -1    0    0  501  502  0.00000000000E+00 -0.00000000000E+00 -0.13157638272E+04  0.13157638272E+04  0.00000000000E+00 0. -1.
         25    2    1    2    0    0  0.18544112082E+02 -0.16532318813E+02 -0.10370804375E+04  0.10448822779E+04  0.12500375594E+03 0.  0.
    9000005    1    3    3    0    0 -0.65452378350E-01 -0.69225246003E+02 -0.67061097130E+03  0.67417521001E+03  0.10000000000E+01 0.  0.
    9000005    1    3    3    0    0  0.18609564460E+02  0.52692927190E+02 -0.36646946623E+03  0.37070706784E+03  0.10000000000E+01 0.  0.
         -4    1    1    2    0  502 -0.18544112082E+02  0.16532318813E+02 -0.27430998391E+03  0.27543562194E+03  0.12700000000E+01 0.  1.
<mgrwt>
<rscale>  1 0.12744858E+03</rscale>
<asrwt>0</asrwt>
<pdfrwt beam="2">  1       21 0.20242524E+00 0.12744858E+03</pdfrwt>
<pdfrwt beam="1">  1       -4 0.68677613E-03 0.12744858E+03</pdfrwt>
<totfact> 0.27933817E+04</totfact>
</mgrwt>
</event>
<event>
 6    3  0.3813045E-003  0.1373380E+03  0.7818608E-02  0.1216956E+00
         21   -1    0    0  501  502  0.00000000000E+00  0.00000000000E+00  0.98217994646E+03  0.98217994646E+03  0.00000000000E+00 0.  1.
         -4   -1    0    0    0  501 -0.00000000000E+00 -0.00000000000E+00 -0.10925426115E+02  0.10998992490E+02  0.12700000000E+01 0. -1.
         25    2    1    2    0    0  0.75407617505E+01  0.56394443789E+02  0.50064271575E+03  0.51913856103E+03  0.12499808132E+03 0.  0.
    9000005    1    3    3    0    0 -0.38329553539E+02 -0.20261022992E+02  0.10635712179E+03  0.11485861345E+03  0.10000000000E+01 0.  0.
    9000005    1    3    3    0    0  0.45870315289E+02  0.76655466781E+02  0.39428559396E+03  0.40427994758E+03  0.10000000000E+01 0.  0.
         -4    1    1    2    0  502 -0.75407617505E+01 -0.56394443789E+02  0.47061180460E+03  0.47404037793E+03  0.12700000000E+01 0.  1.
<mgrwt>
<rscale>  1 0.13733797E+03</rscale>
<asrwt>0</asrwt>
<pdfrwt beam="1">  1       21 0.15110454E+00 0.13733797E+03</pdfrwt>
<pdfrwt beam="2">  1       -4 0.16865577E-02 0.13733797E+03</pdfrwt>
<totfact> 0.16128106E+04</totfact>
</mgrwt>
</event>
<event>
 6    3  0.3813045E-003  0.1279325E+03  0.7818608E-02  0.1230556E+00
         21   -1    0    0  501  502  0.00000000000E+00  0.00000000000E+00  0.32072751097E+02  0.32072751097E+02  0.00000000000E+00 0. -1.
         -4   -1    0    0    0  501 -0.00000000000E+00 -0.00000000000E+00 -0.11393012200E+04  0.11393019279E+04  0.12700000000E+01 0.  1.
         25    2    1    2    0    0  0.11975501378E+02  0.24462590308E+02 -0.11291591008E+04  0.11363833018E+04  0.12499961070E+03 0.  0.
    9000005    1    3    3    0    0  0.32395420619E+02  0.18658854610E+02 -0.96318844275E+02  0.10332442061E+03  0.10000000000E+01 0.  0.
    9000005    1    3    3    0    0 -0.20419919240E+02  0.58037356981E+01 -0.10328402566E+04  0.10330588812E+04  0.10000000000E+01 0.  0.
         -4    1    1    2    0  502 -0.11975501378E+02 -0.24462590308E+02  0.21930631923E+02  0.34991377143E+02  0.12700000000E+01 0. -1.
<mgrwt>
<rscale>  1 0.12793254E+03</rscale>
<asrwt>0</asrwt>
<pdfrwt beam="1">  1       21 0.49342703E-02 0.12793254E+03</pdfrwt>
<pdfrwt beam="2">  1       -4 0.17527907E+00 0.12793254E+03</pdfrwt>
<totfact> 0.23928622E+03</totfact>
</mgrwt>
</event>
<event>
 6    3  0.3813045E-003  0.1282853E+03  0.7818608E-02  0.1230022E+00
          4   -1    0    0  502    0 -0.00000000000E+00  0.00000000000E+00  0.22777023631E+03  0.22777377691E+03  0.12700000000E+01 0.  1.
         21   -1    0    0  501  502  0.00000000000E+00 -0.00000000000E+00 -0.60670813600E+02  0.60670813600E+02  0.00000000000E+00 0. -1.
         25    2    1    2    0    0 -0.21682294259E+02  0.19009841861E+02  0.20437449947E+03  0.24130076568E+03  0.12500251003E+03 0.  0.
    9000005    1    3    3    0    0 -0.66458000248E+02 -0.87392007328E+00  0.16678073446E+03  0.17953897326E+03  0.10000000000E+01 0.  0.
    9000005    1    3    3    0    0  0.44775705989E+02  0.19883761934E+02  0.37593765009E+02  0.61761792420E+02  0.10000000000E+01 0.  0.
          4    1    1    2  501    0  0.21682294259E+02 -0.19009841861E+02 -0.37275076760E+02  0.47143824827E+02  0.12700000000E+01 0. -1.
<mgrwt>
<rscale>  1 0.12828532E+03</rscale>
<asrwt>0</asrwt>
<pdfrwt beam="2">  1       21 0.93339714E-02 0.12828532E+03</pdfrwt>
<pdfrwt beam="1">  1        4 0.35042869E-01 0.12828532E+03</pdfrwt>
<totfact> 0.29155077E+04</totfact>
</mgrwt>
</event>
<event>
 6    3  0.3813045E-003  0.1267365E+03  0.7818608E-02  0.1232380E+00
          4   -1    0    0  502    0 -0.00000000000E+00  0.00000000000E+00  0.12084443111E+02  0.12150994416E+02  0.12700000000E+01 0.  1.
         21   -1    0    0  501  502  0.00000000000E+00 -0.00000000000E+00 -0.55164284917E+03  0.55164284917E+03  0.00000000000E+00 0. -1.
         25    2    1    2    0    0  0.14416972477E+01  0.20784806279E+02 -0.33497838016E+03  0.35815171132E+03  0.12501218536E+03 0.  0.
    9000005    1    3    3    0    0  0.43070153676E+00 -0.52672940648E+02 -0.15703557523E+03  0.16563754426E+03  0.10000000000E+01 0.  0.
    9000005    1    3    3    0    0  0.10109957109E+01  0.73457746926E+02 -0.17794280493E+03  0.19251416707E+03  0.10000000000E+01 0.  0.
          4    1    1    2  501    0 -0.14416972477E+01 -0.20784806279E+02 -0.20458002591E+03  0.20564213226E+03  0.12700000000E+01 0. -1.
<mgrwt>
<rscale>  1 0.12673647E+03</rscale>
<asrwt>0</asrwt>
<pdfrwt beam="2">  1       21 0.84868132E-01 0.12673647E+03</pdfrwt>
<pdfrwt beam="1">  1        4 0.18643768E-02 0.12673647E+03</pdfrwt>
<totfact> 0.55357984E+04</totfact>
</mgrwt>
</event>
<event>
 6    3  0.3813045E-003  0.1287618E+03  0.7818608E-02  0.1229305E+00
         -4   -1    0    0    0  501 -0.00000000000E+00  0.00000000000E+00  0.14291830880E+03  0.14292395142E+03  0.12700000000E+01 0. -1.
         21   -1    0    0  501  502  0.00000000000E+00 -0.00000000000E+00 -0.50217598568E+02  0.50217598568E+02  0.00000000000E+00 0.  1.
         25    2    1    2    0    0  0.12246784185E+02 -0.28359978859E+02  0.97948099281E+02  0.16178202009E+03  0.12500127899E+03 0.  0.
    9000005    1    3    3    0    0 -0.68724338695E+00 -0.14730362726E+02 -0.29477085966E+02  0.32975058553E+02  0.10000000000E+01 0.  0.
    9000005    1    3    3    0    0  0.12934027572E+02 -0.13629616133E+02  0.12742518525E+03  0.12880696154E+03  0.10000000000E+01 0.  0.
         -4    1    1    2    0  502 -0.12246784185E+02  0.28359978859E+02 -0.52473890488E+01  0.31359529901E+02  0.12700000000E+01 0.  1.
<mgrwt>
<rscale>  1 0.12876176E+03</rscale>
<asrwt>0</asrwt>
<pdfrwt beam="2">  1       21 0.77257845E-02 0.12876176E+03</pdfrwt>
<pdfrwt beam="1">  1       -4 0.21989101E-01 0.12876176E+03</pdfrwt>
<totfact> 0.96707543E+04</totfact>
</mgrwt>
</event>
<event>
 6    3  0.3813045E-003  0.1307301E+03  0.7818608E-02  0.1226376E+00
         -4   -1    0    0    0  501 -0.00000000000E+00  0.00000000000E+00  0.38919504068E+02  0.38940219529E+02  0.12700000000E+01 0.  1.
         21   -1    0    0  501  502  0.00000000000E+00 -0.00000000000E+00 -0.19205809847E+03  0.19205809847E+03  0.00000000000E+00 0.  1.
         25    2    1    2    0    0  0.18667834243E+02  0.33423746608E+02 -0.95933253837E+02  0.16215284784E+03  0.12499888798E+03 0.  0.
    9000005    1    3    3    0    0 -0.11958232667E+02  0.76603779982E+02 -0.52106434176E+02  0.93419585305E+02  0.10000000000E+01 0.  0.
    9000005    1    3    3    0    0  0.30626066910E+02 -0.43180033374E+02 -0.43826819661E+02  0.68733262531E+02  0.10000000000E+01 0.  0.
         -4    1    1    2    0  502 -0.18667834243E+02 -0.33423746608E+02 -0.57205340560E+02  0.68845470158E+02  0.12700000000E+01 0. -1.
<mgrwt>
<rscale>  1 0.13073009E+03</rscale>
<asrwt>0</asrwt>
<pdfrwt beam="2">  1       21 0.29547400E-01 0.13073009E+03</pdfrwt>
<pdfrwt beam="1">  1       -4 0.59895325E-02 0.13073009E+03</pdfrwt>
<totfact> 0.78809280E+04</totfact>
</mgrwt>
</event>
<event>
 6    3  0.3813045E-003  0.1268909E+03  0.7818608E-02  0.1232143E+00
         -4   -1    0    0    0  501 -0.00000000000E+00  0.00000000000E+00  0.12378260761E+02  0.12443240714E+02  0.12700000000E+01 0.  1.
         21   -1    0    0  501  502  0.00000000000E+00 -0.00000000000E+00 -0.47084190450E+03  0.47084190450E+03  0.00000000000E+00 0.  1.
         25    2    1    2    0    0 -0.13918560959E+02  0.16808887468E+02 -0.42302710092E+03  0.44164830451E+03  0.12500012690E+03 0.  0.
    9000005    1    3    3    0    0  0.37387962575E+02  0.17234217654E+02 -0.48513873332E+02  0.63635476814E+02  0.10000000000E+01 0.  0.
    9000005    1    3    3    0    0 -0.51306523534E+02 -0.42533018639E+00 -0.37451322759E+03  0.37801282770E+03  0.10000000000E+01 0.  0.
         -4    1    1    2    0  502  0.13918560959E+02 -0.16808887468E+02 -0.35436542819E+02  0.41636840707E+02  0.12700000000E+01 0. -1.
<mgrwt>
<rscale>  1 0.12689089E+03</rscale>
<asrwt>0</asrwt>
<pdfrwt beam="2">  1       21 0.72437220E-01 0.12689089E+03</pdfrwt>
<pdfrwt beam="1">  1       -4 0.19094779E-02 0.12689089E+03</pdfrwt>
<totfact> 0.75916997E+04</totfact>
</mgrwt>
</event>
<event>
 6    3  0.3813045E-003  0.1284370E+03  0.7818608E-02  0.1229794E+00
          4   -1    0    0  502    0 -0.00000000000E+00  0.00000000000E+00  0.11464234505E+03  0.11464937932E+03  0.12700000000E+01 0.  1.
         21   -1    0    0  501  502  0.00000000000E+00 -0.00000000000E+00 -0.12154558763E+03  0.12154558763E+03  0.00000000000E+00 0. -1.
         25    2    1    2    0    0 -0.27482959318E+02 -0.10815791416E+02  0.75268721139E+02  0.14886719979E+03  0.12499507348E+03 0.  0.
    9000005    1    3    3    0    0  0.24176561792E+02  0.24152511001E+01  0.90248437077E+02  0.93467213357E+02  0.10000000000E+01 0.  0.
    9000005    1    3    3    0    0 -0.51659521109E+02 -0.13231042516E+02 -0.14979715938E+02  0.55399986434E+02  0.10000000000E+01 0.  0.
          4    1    1    2  501    0  0.27482959318E+02  0.10815791416E+02 -0.82171963719E+02  0.87327767166E+02  0.12700000000E+01 0. -1.
<mgrwt>
<rscale>  1 0.12843700E+03</rscale>
<asrwt>0</asrwt>
<pdfrwt beam="2">  1       21 0.18699321E-01 0.12843700E+03</pdfrwt>
<pdfrwt beam="1">  1        4 0.17638335E-01 0.12843700E+03</pdfrwt>
<totfact> 0.29926714E+04</totfact>
</mgrwt>
</event>
<event>
 6    3  0.3813045E-003  0.1283325E+03  0.7818608E-02  0.1229951E+00
         -4   -1    0    0    0  501 -0.00000000000E+00  0.00000000000E+00  0.68032206203E+03  0.68032324742E+03  0.12700000000E+01 0. -1.
         21   -1    0    0  501  502  0.00000000000E+00 -0.00000000000E+00 -0.34386301247E+02  0.34386301247E+02  0.00000000000E+00 0.  1.
         25    2    1    2    0    0  0.41114330665E+01 -0.28875255922E+02  0.66666496853E+03  0.67890455962E+03  0.12497414344E+03 0.  0.
    9000005    1    3    3    0    0 -0.28278241485E+02  0.11643411232E+02  0.41344242998E+02  0.51435147474E+02  0.10000000000E+01 0.  0.
    9000005    1    3    3    0    0  0.32389674551E+02 -0.40518667153E+02  0.62532072553E+03  0.62746941215E+03  0.10000000000E+01 0.  0.
         -4    1    1    2    0  502 -0.41114330665E+01  0.28875255922E+02 -0.20729207750E+02  0.35804989043E+02  0.12700000000E+01 0.  1.
<mgrwt>
<rscale>  1 0.12833246E+03</rscale>
<asrwt>0</asrwt>
<pdfrwt beam="2">  1       21 0.52902007E-02 0.12833246E+03</pdfrwt>
<pdfrwt beam="1">  1       -4 0.10466682E+00 0.12833246E+03</pdfrwt>
<totfact> 0.76589933E+03</totfact>
</mgrwt>
</event>
<event>
 6    3  0.3813045E-003  0.1284781E+03  0.7818608E-02  0.1229732E+00
         -4   -1    0    0    0  501 -0.00000000000E+00  0.00000000000E+00  0.83656002214E+03  0.83656098615E+03  0.12700000000E+01 0.  1.
         21   -1    0    0  501  502  0.00000000000E+00 -0.00000000000E+00 -0.10379308280E+02  0.10379308280E+02  0.00000000000E+00 0. -1.
         25    2    1    2    0    0  0.29632326096E+02  0.19063508497E+01  0.78874912152E+03  0.79914441669E+03  0.12499965242E+03 0.  0.
    9000005    1    3    3    0    0 -0.46239903291E+02 -0.10817138027E+02  0.40363165917E+03  0.40641684932E+03  0.10000000000E+01 0.  0.
    9000005    1    3    3    0    0  0.75872229387E+02  0.12723488876E+02  0.38511746236E+03  0.39272756737E+03  0.10000000000E+01 0.  0.
         -4    1    1    2    0  502 -0.29632326096E+02 -0.19063508497E+01  0.37431592338E+02  0.47795877735E+02  0.12700000000E+01 0. -1.
<mgrwt>
<rscale>  1 0.12847810E+03</rscale>
<asrwt>0</asrwt>
<pdfrwt beam="2">  1       21 0.15968173E-02 0.12847810E+03</pdfrwt>
<pdfrwt beam="1">  1       -4 0.12870754E+00 0.12847810E+03</pdfrwt>
<totfact> 0.33342156E+04</totfact>
</mgrwt>
</event>
<event>
 6    3  0.3813045E-003  0.1285423E+03  0.7818608E-02  0.1229635E+00
         -4   -1    0    0    0  501 -0.00000000000E+00  0.00000000000E+00  0.21552281201E+02  0.21589667088E+02  0.12700000000E+01 0.  1.
         21   -1    0    0  501  502  0.00000000000E+00 -0.00000000000E+00 -0.31740512723E+03  0.31740512723E+03  0.00000000000E+00 0.  1.
         25    2    1    2    0    0 -0.27303151516E+01  0.29849969068E+02 -0.19325533444E+03  0.23210074603E+03  0.12499862697E+03 0.  0.
    9000005    1    3    3    0    0  0.39301832732E+01  0.53728584231E+02 -0.19939109016E+03  0.20654300748E+03  0.10000000000E+01 0.  0.
    9000005    1    3    3    0    0 -0.66604984248E+01 -0.23878615163E+02  0.61357557249E+01  0.25557738548E+02  0.10000000000E+01 0.  0.
         -4    1    1    2    0  502  0.27303151516E+01 -0.29849969068E+02 -0.10259751159E+03  0.10689404829E+03  0.12700000000E+01 0. -1.
<mgrwt>
<rscale>  1 0.12854234E+03</rscale>
<asrwt>0</asrwt>
<pdfrwt beam="2">  1       21 0.48831560E-01 0.12854234E+03</pdfrwt>
<pdfrwt beam="1">  1       -4 0.33188067E-02 0.12854234E+03</pdfrwt>
<totfact> 0.74377098E+04</totfact>
</mgrwt>
</event>
<event>
 6    3  0.3813045E-003  0.1627668E+03  0.7818608E-02  0.1185608E+00
         21   -1    0    0  501  502  0.00000000000E+00  0.00000000000E+00  0.24462749581E+02  0.24462749581E+02  0.00000000000E+00 0. -1.
          4   -1    0    0  502    0 -0.00000000000E+00 -0.00000000000E+00 -0.75236570077E+03  0.75236677265E+03  0.12700000000E+01 0.  1.
         25    2    1    2    0    0  0.62231066059E+02  0.83636217414E+02 -0.50851877474E+03  0.53393293473E+03  0.12500124831E+03 0.  0.
    9000005    1    3    3    0    0  0.81412182160E+02  0.16253098296E+02 -0.36367933574E+03  0.37303587743E+03  0.10000000000E+01 0.  0.
    9000005    1    3    3    0    0 -0.19181116101E+02  0.67383119118E+02 -0.14483943900E+03  0.16089705730E+03  0.10000000000E+01 0.  0.
          4    1    1    2  501    0 -0.62231066059E+02 -0.83636217414E+02 -0.21938417644E+03  0.24289658750E+03  0.12700000000E+01 0. -1.
<mgrwt>
<rscale>  1 0.16276681E+03</rscale>
<asrwt>0</asrwt>
<pdfrwt beam="1">  1       21 0.37634992E-02 0.16276681E+03</pdfrwt>
<pdfrwt beam="2">  1        4 0.11575121E+00 0.16276681E+03</pdfrwt>
<totfact> 0.10899679E+04</totfact>
</mgrwt>
</event>
<event>
 6    3  0.3813045E-003  0.1280075E+03  0.7818608E-02  0.1230443E+00
         21   -1    0    0  501  502  0.00000000000E+00  0.00000000000E+00  0.61954149505E+01  0.61954149505E+01  0.00000000000E+00 0. -1.
          4   -1    0    0  502    0 -0.00000000000E+00 -0.00000000000E+00 -0.17786959233E+04  0.17786963767E+04  0.12700000000E+01 0.  1.
         25    2    1    2    0    0  0.99320414121E+01 -0.25724287215E+02 -0.17265391331E+04  0.17312779379E+04  0.12500214286E+03 0.  0.
    9000005    1    3    3    0    0 -0.48155692966E+02 -0.86441827296E+00 -0.11990256994E+04  0.11999930607E+04  0.10000000000E+01 0.  0.
    9000005    1    3    3    0    0  0.58087734378E+02 -0.24859868942E+02 -0.52751343370E+03  0.53128487716E+03  0.10000000000E+01 0.  0.
          4    1    1    2  501    0 -0.99320414121E+01  0.25724287215E+02 -0.45961375276E+02  0.53613853775E+02  0.12700000000E+01 0. -1.
<mgrwt>
<rscale>  1 0.12800750E+03</rscale>
<asrwt>0</asrwt>
<pdfrwt beam="1">  1       21 0.95314071E-03 0.12800750E+03</pdfrwt>
<pdfrwt beam="2">  1        4 0.27365559E+00 0.12800750E+03</pdfrwt>
<totfact> 0.88250025E+03</totfact>
</mgrwt>
</event>
<event>
 6    3  0.3813045E-003  0.1280201E+03  0.7818608E-02  0.1230423E+00
         21   -1    0    0  501  502  0.00000000000E+00  0.00000000000E+00  0.63710540288E+01  0.63710540288E+01  0.00000000000E+00 0.  1.
         -4   -1    0    0    0  501 -0.00000000000E+00 -0.00000000000E+00 -0.10759321653E+04  0.10759329148E+04  0.12700000000E+01 0.  1.
         25    2    1    2    0    0 -0.11191656923E+02  0.25293394997E+02 -0.69294844124E+03  0.70467488478E+03  0.12499656801E+03 0.  0.
    9000005    1    3    3    0    0  0.37533856947E+02 -0.31084206163E+02 -0.18613002538E+03  0.19240687264E+03  0.10000000000E+01 0.  0.
    9000005    1    3    3    0    0 -0.48725513870E+02  0.56377601160E+02 -0.50681841586E+03  0.51226801214E+03  0.10000000000E+01 0.  0.
         -4    1    1    2    0  502  0.11191656923E+02 -0.25293394997E+02 -0.37661267004E+03  0.37762908409E+03  0.12700000000E+01 0. -1.
<mgrwt>
<rscale>  1 0.12802012E+03</rscale>
<asrwt>0</asrwt>
<pdfrwt beam="1">  1       21 0.98016194E-03 0.12802012E+03</pdfrwt>
<pdfrwt beam="2">  1       -4 0.16553786E+00 0.12802012E+03</pdfrwt>
<totfact> 0.38288719E+04</totfact>
</mgrwt>
</event>
<event>
 6    3  0.3813045E-003  0.1475888E+03  0.7818608E-02  0.1203468E+00
          4   -1    0    0  502    0 -0.00000000000E+00  0.00000000000E+00  0.19714283798E+04  0.19714287889E+04  0.12700000000E+01 0. -1.
         21   -1    0    0  501  502  0.00000000000E+00 -0.00000000000E+00 -0.20734065925E+02  0.20734065925E+02  0.00000000000E+00 0.  1.
         25    2    1    2    0    0  0.73991850930E+02  0.26124278539E+02  0.18822596225E+04  0.18880370088E+04  0.12500075176E+03 0.  0.
    9000005    1    3    3    0    0  0.42491709477E+02 -0.11936123407E+02  0.16494567127E+04  0.16500474125E+04  0.10000000000E+01 0.  0.
    9000005    1    3    3    0    0  0.31500141453E+02  0.38060401946E+02  0.23280290977E+03  0.23798959622E+03  0.10000000000E+01 0.  0.
          4    1    1    2  501    0 -0.73991850930E+02 -0.26124278539E+02  0.68434691379E+02  0.10412584606E+03  0.12700000000E+01 0.  1.
<mgrwt>
<rscale>  1 0.14758882E+03</rscale>
<asrwt>0</asrwt>
<pdfrwt beam="2">  1       21 0.31898578E-02 0.14758882E+03</pdfrwt>
<pdfrwt beam="1">  1        4 0.30329955E+00 0.14758882E+03</pdfrwt>
<totfact> 0.85590291E+02</totfact>
</mgrwt>
</event>
<event>
 6    3  0.3813045E-003  0.1495539E+03  0.7818608E-02  0.1201022E+00
          4   -1    0    0  502    0 -0.00000000000E+00  0.00000000000E+00  0.23835542575E+03  0.23835880912E+03  0.12700000000E+01 0. -1.
         21   -1    0    0  501  502  0.00000000000E+00 -0.00000000000E+00 -0.16258300956E+03  0.16258300956E+03  0.00000000000E+00 0.  1.
         25    2    1    2    0    0  0.34908347059E+02  0.74326842810E+02  0.20139801325E+03  0.25085359198E+03  0.12499317025E+03 0.  0.
    9000005    1    3    3    0    0 -0.68142245593E-01  0.68152546080E+02  0.27724579072E+02  0.73582786474E+02  0.10000000000E+01 0.  0.
    9000005    1    3    3    0    0  0.34976489305E+02  0.61742967296E+01  0.17367343418E+03  0.17727080550E+03  0.10000000000E+01 0.  0.
          4    1    1    2  501    0 -0.34908347059E+02 -0.74326842810E+02 -0.12562559706E+03  0.15008822670E+03  0.12700000000E+01 0.  1.
<mgrwt>
<rscale>  1 0.14955389E+03</rscale>
<asrwt>0</asrwt>
<pdfrwt beam="2">  1       21 0.25012771E-01 0.14955389E+03</pdfrwt>
<pdfrwt beam="1">  1        4 0.36670707E-01 0.14955389E+03</pdfrwt>
<totfact> 0.45342752E+03</totfact>
</mgrwt>
</event>
<event>
 6    3  0.3813045E-003  0.1305248E+03  0.7818608E-02  0.1226679E+00
          4   -1    0    0  502    0 -0.00000000000E+00  0.00000000000E+00  0.10336728591E+04  0.10336736393E+04  0.12700000000E+01 0. -1.
         21   -1    0    0  501  502  0.00000000000E+00 -0.00000000000E+00 -0.97106737207E+01  0.97106737207E+01  0.00000000000E+00 0.  1.
         25    2    1    2    0    0 -0.20242813533E+02 -0.31651041573E+02  0.96269800295E+03  0.97150613217E+03  0.12500064007E+03 0.  0.
    9000005    1    3    3    0    0 -0.36320743302E+02 -0.43568301391E+02  0.93794511821E+03  0.93965921379E+03  0.10000000000E+01 0.  0.
    9000005    1    3    3    0    0  0.16077929769E+02  0.11917259818E+02  0.24752884740E+02  0.31846918379E+02  0.10000000000E+01 0.  0.
          4    1    1    2  501    0  0.20242813533E+02  0.31651041573E+02  0.61264182477E+02  0.71878180883E+02  0.12700000000E+01 0.  1.
<mgrwt>
<rscale>  1 0.13052479E+03</rscale>
<asrwt>0</asrwt>
<pdfrwt beam="2">  1       21 0.14939506E-02 0.13052479E+03</pdfrwt>
<pdfrwt beam="1">  1        4 0.15903296E+00 0.13052479E+03</pdfrwt>
<totfact> 0.21843076E+04</totfact>
</mgrwt>
</event>
<event>
 6    3  0.3813045E-003  0.1275290E+03  0.7818608E-02  0.1231169E+00
         21   -1    0    0  501  502  0.00000000000E+00  0.00000000000E+00  0.12896306129E+03  0.12896306129E+03  0.00000000000E+00 0.  1.
          4   -1    0    0  502    0 -0.00000000000E+00 -0.00000000000E+00 -0.48545756628E+02  0.48562365949E+02  0.12700000000E+01 0. -1.
         25    2    1    2    0    0  0.23452390719E+02 -0.94061278180E+01  0.47679247020E+02  0.13615051710E+03  0.12500065135E+03 0.  0.
    9000005    1    3    3    0    0 -0.35345387097E+02 -0.31099598978E+02  0.55723866322E+02  0.72956361775E+02  0.10000000000E+01 0.  0.
    9000005    1    3    3    0    0  0.58797777817E+02  0.21693471160E+02 -0.80446193021E+01  0.63194155322E+02  0.10000000000E+01 0.  0.
          4    1    1    2  501    0 -0.23452390719E+02  0.94061278180E+01  0.32738057644E+02  0.41374910143E+02  0.12700000000E+01 0.  1.
<mgrwt>
<rscale>  1 0.12752903E+03</rscale>
<asrwt>0</asrwt>
<pdfrwt beam="1">  1       21 0.19840471E-01 0.12752903E+03</pdfrwt>
<pdfrwt beam="2">  1        4 0.74703367E-02 0.12752903E+03</pdfrwt>
<totfact> 0.11594346E+05</totfact>
</mgrwt>
</event>
<event>
 6    3  0.3813045E-003  0.1391678E+03  0.7818608E-02  0.1214453E+00
          4   -1    0    0  502    0 -0.00000000000E+00  0.00000000000E+00  0.61323175546E+02  0.61336324956E+02  0.12700000000E+01 0.  1.
         21   -1    0    0  501  502  0.00000000000E+00 -0.00000000000E+00 -0.16456172425E+03  0.16456172425E+03  0.00000000000E+00 0.  1.
         25    2    1    2    0    0  0.60347978574E+02 -0.10041795011E+02 -0.63770493546E+02  0.15308282797E+03  0.12499984083E+03 0.  0.
    9000005    1    3    3    0    0 -0.37408898207E+02 -0.15263417736E+02 -0.26492541983E+02  0.48324448955E+02  0.10000000000E+01 0.  0.
    9000005    1    3    3    0    0  0.97756876781E+02  0.52216227246E+01 -0.37277951563E+02  0.10475837902E+03  0.10000000000E+01 0.  0.
          4    1    1    2  501    0 -0.60347978574E+02  0.10041795011E+02 -0.39468055154E+02  0.72815221229E+02  0.12700000000E+01 0. -1.
<mgrwt>
<rscale>  1 0.13916780E+03</rscale>
<asrwt>0</asrwt>
<pdfrwt beam="2">  1       21 0.25317188E-01 0.13916780E+03</pdfrwt>
<pdfrwt beam="1">  1        4 0.94357234E-02 0.13916780E+03</pdfrwt>
<totfact> 0.50391066E+04</totfact>
</mgrwt>
</event>
<event>
 6    3  0.3813045E-003  0.1315212E+03  0.7818608E-02  0.1225216E+00
         21   -1    0    0  501  502  0.00000000000E+00  0.00000000000E+00  0.47022187512E+03  0.47022187512E+03  0.00000000000E+00 0. -1.
          4   -1    0    0  502    0 -0.00000000000E+00 -0.00000000000E+00 -0.12483764452E+03  0.12484410434E+03  0.12700000000E+01 0.  1.
         25    2    1    2    0    0  0.23599100413E+02  0.33418140662E+02 -0.88969952177E+02  0.15878756071E+03  0.12499658947E+03 0.  0.
    9000005    1    3    3    0    0 -0.39752865042E+02  0.10703990573E+02 -0.81182843593E+02  0.91030323448E+02  0.10000000000E+01 0.  0.
    9000005    1    3    3    0    0  0.63351965455E+02  0.22714150089E+02 -0.77871085846E+01  0.67757237262E+02  0.10000000000E+01 0.  0.
          4    1    1    2  501    0 -0.23599100413E+02 -0.33418140662E+02  0.43435418278E+03  0.43627841875E+03  0.12700000000E+01 0. -1.
<mgrwt>
<rscale>  1 0.13152124E+03</rscale>
<asrwt>0</asrwt>
<pdfrwt beam="1">  1       21 0.72341826E-01 0.13152124E+03</pdfrwt>
<pdfrwt beam="2">  1        4 0.19206421E-01 0.13152124E+03</pdfrwt>
<totfact> 0.17443588E+03</totfact>
</mgrwt>
</event>
<event>
 6    3  0.3813045E-003  0.1274325E+03  0.7818608E-02  0.1231316E+00
         -4   -1    0    0    0  501 -0.00000000000E+00  0.00000000000E+00  0.75227375702E+01  0.76291861001E+01  0.12700000000E+01 0.  1.
         21   -1    0    0  501  502  0.00000000000E+00 -0.00000000000E+00 -0.16306813857E+04  0.16306813857E+04  0.00000000000E+00 0. -1.
         25    2    1    2    0    0  0.18456983519E+02  0.16473989277E+02 -0.53863443574E+03  0.55350347709E+03  0.12500796466E+03 0.  0.
    9000005    1    3    3    0    0  0.52928586422E+01  0.26771605926E+02 -0.53583192919E+03  0.53652734280E+03  0.10000000000E+01 0.  0.
    9000005    1    3    3    0    0  0.13164124877E+02 -0.10297616648E+02 -0.28025065470E+01  0.16976134288E+02  0.10000000000E+01 0.  0.
         -4    1    1    2    0  502 -0.18456983519E+02 -0.16473989277E+02 -0.10845242124E+04  0.10848070947E+04  0.12700000000E+01 0. -1.
<mgrwt>
<rscale>  1 0.12743251E+03</rscale>
<asrwt>0</asrwt>
<pdfrwt beam="2">  1       21 0.25087430E+00 0.12743251E+03</pdfrwt>
<pdfrwt beam="1">  1       -4 0.11655695E-02 0.12743251E+03</pdfrwt>
<totfact> 0.65130359E+03</totfact>
</mgrwt>
</event>
<event>
 6    3  0.3813045E-003  0.1268725E+03  0.7818608E-02  0.1232172E+00
          4   -1    0    0  502    0 -0.00000000000E+00  0.00000000000E+00  0.90177321461E+03  0.90177410890E+03  0.12700000000E+01 0.  1.
         21   -1    0    0  501  502  0.00000000000E+00 -0.00000000000E+00 -0.87883853055E+01  0.87883853055E+01  0.00000000000E+00 0. -1.
         25    2    1    2    0    0 -0.17012235242E+02  0.13473853847E+02  0.86891651209E+03  0.87813013877E+03  0.12500269900E+03 0.  0.
    9000005    1    3    3    0    0 -0.45355475077E+02 -0.81545396796E+01  0.79206877808E+03  0.79340882580E+03  0.10000000000E+01 0.  0.
    9000005    1    3    3    0    0  0.28343239835E+02  0.21628393526E+02  0.76847734005E+02  0.84721312977E+02  0.10000000000E+01 0.  0.
          4    1    1    2  501    0  0.17012235242E+02 -0.13473853847E+02  0.24068317213E+02  0.32432355432E+02  0.12700000000E+01 0. -1.
<mgrwt>
<rscale>  1 0.12687252E+03</rscale>
<asrwt>0</asrwt>
<pdfrwt beam="2">  1       21 0.13520600E-02 0.12687252E+03</pdfrwt>
<pdfrwt beam="1">  1        4 0.13874140E+00 0.12687252E+03</pdfrwt>
<totfact> 0.36092889E+04</totfact>
</mgrwt>
</event>
<event>
 6    3  0.3813045E-003  0.1269810E+03  0.7818608E-02  0.1232005E+00
         21   -1    0    0  501  502  0.00000000000E+00  0.00000000000E+00  0.59102491802E+03  0.59102491802E+03  0.00000000000E+00 0.  1.
         -4   -1    0    0    0  501 -0.00000000000E+00 -0.00000000000E+00 -0.14561488142E+02  0.14616765611E+02  0.12700000000E+01 0.  1.
         25    2    1    2    0    0 -0.72834786188E+01  0.21110218851E+02  0.27006593714E+03  0.29842884722E+03  0.12500190418E+03 0.  0.
    9000005    1    3    3    0    0 -0.52987248865E+02 -0.19847608141E+02  0.75135647164E+02  0.94063497521E+02  0.10000000000E+01 0.  0.
    9000005    1    3    3    0    0  0.45703770246E+02  0.40957826992E+02  0.19493028998E+03  0.20436534970E+03  0.10000000000E+01 0.  0.
         -4    1    1    2    0  502  0.72834786188E+01 -0.21110218851E+02  0.30639749273E+03  0.30721283641E+03  0.12700000000E+01 0. -1.
<mgrwt>
<rscale>  1 0.12698097E+03</rscale>
<asrwt>0</asrwt>
<pdfrwt beam="1">  1       21 0.90926892E-01 0.12698097E+03</pdfrwt>
<pdfrwt beam="2">  1       -4 0.22445865E-02 0.12698097E+03</pdfrwt>
<totfact> 0.35567452E+04</totfact>
</mgrwt>
</event>
<event>
 6    3  0.3813045E-003  0.1290479E+03  0.7818608E-02  0.1228875E+00
          4   -1    0    0  502    0 -0.00000000000E+00  0.00000000000E+00  0.56499312828E+03  0.56499455564E+03  0.12700000000E+01 0.  1.
         21   -1    0    0  501  502  0.00000000000E+00 -0.00000000000E+00 -0.29751107551E+02  0.29751107551E+02  0.00000000000E+00 0. -1.
         25    2    1    2    0    0  0.97130415887E+01 -0.30580847236E+02  0.54587354018E+03  0.56092002942E+03  0.12499530446E+03 0.  0.
    9000005    1    3    3    0    0 -0.54104805814E+01  0.29110350724E+02  0.32940441965E+02  0.44303030779E+02  0.10000000000E+01 0.  0.
    9000005    1    3    3    0    0  0.15123522170E+02 -0.59691197960E+02  0.51293309821E+03  0.51661699864E+03  0.10000000000E+01 0.  0.
          4    1    1    2  501    0 -0.97130415887E+01  0.30580847236E+02 -0.10631519450E+02  0.33825633776E+02  0.12700000000E+01 0. -1.
<mgrwt>
<rscale>  1 0.12904789E+03</rscale>
<asrwt>0</asrwt>
<pdfrwt beam="2">  1       21 0.45770939E-02 0.12904789E+03</pdfrwt>
<pdfrwt beam="1">  1        4 0.86924206E-01 0.12904789E+03</pdfrwt>
<totfact> 0.14939731E+04</totfact>
</mgrwt>
</event>
<event>
 6    3  0.3813045E-003  0.1342200E+03  0.7818608E-02  0.1221325E+00
         21   -1    0    0  501  502  0.00000000000E+00  0.00000000000E+00  0.49643604152E+03  0.49643604152E+03  0.00000000000E+00 0.  1.
          4   -1    0    0  502    0 -0.00000000000E+00 -0.00000000000E+00 -0.21318030301E+02  0.21355826275E+02  0.12700000000E+01 0.  1.
         25    2    1    2    0    0 -0.48319916405E+02  0.74265357691E+01  0.21755353589E+03  0.25562581430E+03  0.12500019281E+03 0.  0.
    9000005    1    3    3    0    0 -0.84127792656E+01  0.64003977956E+02  0.94960163931E+02  0.11482907638E+03  0.10000000000E+01 0.  0.
    9000005    1    3    3    0    0 -0.39907137139E+02 -0.56577442187E+02  0.12259337196E+03  0.14079673791E+03  0.10000000000E+01 0.  0.
          4    1    1    2  501    0  0.48319916405E+02 -0.74265357691E+01  0.25756447533E+03  0.26216605350E+03  0.12700000000E+01 0. -1.
<mgrwt>
<rscale>  1 0.13422003E+03</rscale>
<asrwt>0</asrwt>
<pdfrwt beam="1">  1       21 0.76374767E-01 0.13422003E+03</pdfrwt>
<pdfrwt beam="2">  1        4 0.32827297E-02 0.13422003E+03</pdfrwt>
<totfact> 0.29281832E+04</totfact>
</mgrwt>
</event>
<event>
 6    3  0.3813045E-003  0.1279491E+03  0.7818608E-02  0.1230531E+00
          4   -1    0    0  502    0 -0.00000000000E+00  0.00000000000E+00  0.61362368936E+02  0.61375509949E+02  0.12700000000E+01 0. -1.
         21   -1    0    0  501  502  0.00000000000E+00 -0.00000000000E+00 -0.98824620582E+02  0.98824620582E+02  0.00000000000E+00 0. -1.
         25    2    1    2    0    0 -0.27082113579E+02  0.35328594306E+01 -0.26056002996E+02  0.13057518530E+03  0.12500016701E+03 0.  0.
    9000005    1    3    3    0    0 -0.46814946870E+02  0.54242930995E+02 -0.37452629947E+01  0.71756266683E+02  0.10000000000E+01 0.  0.
    9000005    1    3    3    0    0  0.19732833292E+02 -0.50710071565E+02 -0.22310740001E+02  0.58818918616E+02  0.10000000000E+01 0.  0.
          4    1    1    2  501    0  0.27082113579E+02 -0.35328594306E+01 -0.11406248650E+02  0.29624945231E+02  0.12700000000E+01 0.  1.
<mgrwt>
<rscale>  1 0.12794907E+03</rscale>
<asrwt>0</asrwt>
<pdfrwt beam="2">  1       21 0.15203788E-01 0.12794907E+03</pdfrwt>
<pdfrwt beam="1">  1        4 0.94420031E-02 0.12794907E+03</pdfrwt>
<totfact> 0.12778496E+05</totfact>
</mgrwt>
</event>
<event>
 6    3  0.3813045E-003  0.1295180E+03  0.7818608E-02  0.1228173E+00
          4   -1    0    0  502    0 -0.00000000000E+00  0.00000000000E+00  0.84290825457E+02  0.84300392385E+02  0.12700000000E+01 0.  1.
         21   -1    0    0  501  502  0.00000000000E+00 -0.00000000000E+00 -0.53569638359E+03  0.53569638359E+03  0.00000000000E+00 0. -1.
         25    2    1    2    0    0 -0.33515390456E+02 -0.50691259653E+01  0.33600942767E+02  0.13380556230E+03  0.12500371080E+03 0.  0.
    9000005    1    3    3    0    0 -0.18555605067E+02 -0.22661365842E+02 -0.43982658026E+02  0.52851889164E+02  0.10000000000E+01 0.  0.
    9000005    1    3    3    0    0 -0.14959785389E+02  0.17592239876E+02  0.77583600793E+02  0.80953673139E+02  0.10000000000E+01 0.  0.
          4    1    1    2  501    0  0.33515390456E+02  0.50691259653E+01 -0.48500650090E+03  0.48619121367E+03  0.12700000000E+01 0. -1.
<mgrwt>
<rscale>  1 0.12951797E+03</rscale>
<asrwt>0</asrwt>
<pdfrwt beam="2">  1       21 0.82414830E-01 0.12951797E+03</pdfrwt>
<pdfrwt beam="1">  1        4 0.12968671E-01 0.12951797E+03</pdfrwt>
<totfact> 0.25990379E+03</totfact>
</mgrwt>
</event>
<event>
 6    3  0.3813045E-003  0.1275484E+03  0.7818608E-02  0.1231140E+00
         21   -1    0    0  501  502  0.00000000000E+00  0.00000000000E+00  0.45412028569E+03  0.45412028569E+03  0.00000000000E+00 0. -1.
         -4   -1    0    0    0  501 -0.00000000000E+00 -0.00000000000E+00 -0.14111074404E+02  0.14168109289E+02  0.12700000000E+01 0. -1.
         25    2    1    2    0    0  0.14163196780E+02 -0.21052411640E+02  0.29993214900E+03  0.32592619333E+03  0.12499915727E+03 0.  0.
    9000005    1    3    3    0    0 -0.43652543963E+01 -0.25595080285E+01 -0.11913442656E+02  0.12982166353E+02  0.10000000000E+01 0.  0.
    9000005    1    3    3    0    0  0.18528451177E+02 -0.18492903612E+02  0.31184559165E+03  0.31294402698E+03  0.10000000000E+01 0.  0.
         -4    1    1    2    0  502 -0.14163196780E+02  0.21052411640E+02  0.14007706229E+03  0.14236220165E+03  0.12700000000E+01 0.  1.
<mgrwt>
<rscale>  1 0.12754838E+03</rscale>
<asrwt>0</asrwt>
<pdfrwt beam="1">  1       21 0.69864648E-01 0.12754838E+03</pdfrwt>
<pdfrwt beam="2">  1       -4 0.21754588E-02 0.12754838E+03</pdfrwt>
<totfact> 0.67254839E+04</totfact>
</mgrwt>
</event>
<event>
 6    3  0.3813045E-003  0.1631008E+03  0.7818608E-02  0.1185240E+00
         21   -1    0    0  501  502  0.00000000000E+00  0.00000000000E+00  0.18593412908E+03  0.18593412908E+03  0.00000000000E+00 0. -1.
         -4   -1    0    0    0  501 -0.00000000000E+00 -0.00000000000E+00 -0.14065575833E+03  0.14066149172E+03  0.12700000000E+01 0.  1.
         25    2    1    2    0    0  0.40260285538E+02 -0.96751934494E+02 -0.63978702442E+02  0.17520028282E+03  0.12498014767E+03 0.  0.
    9000005    1    3    3    0    0  0.22992974402E+02 -0.48716640710E+02 -0.99398699957E+02  0.11306232576E+03  0.10000000000E+01 0.  0.
    9000005    1    3    3    0    0  0.17267311136E+02 -0.48035293784E+02  0.35419997514E+02  0.62137957053E+02  0.10000000000E+01 0.  0.
         -4    1    1    2    0  502 -0.40260285538E+02  0.96751934494E+02  0.10925707319E+03  0.15139533798E+03  0.12700000000E+01 0. -1.
<mgrwt>
<rscale>  1 0.16310078E+03</rscale>
<asrwt>0</asrwt>
<pdfrwt beam="1">  1       21 0.28605251E-01 0.16310078E+03</pdfrwt>
<pdfrwt beam="2">  1       -4 0.21640122E-01 0.16310078E+03</pdfrwt>
<totfact> 0.95133041E+03</totfact>
</mgrwt>
</event>
<event>
 6    3  0.3813045E-003  0.1277573E+03  0.7818608E-02  0.1230822E+00
         -4   -1    0    0    0  501 -0.00000000000E+00  0.00000000000E+00  0.33401686432E+02  0.33425821703E+02  0.12700000000E+01 0.  1.
         21   -1    0    0  501  502  0.00000000000E+00 -0.00000000000E+00 -0.20587976215E+03  0.20587976215E+03  0.00000000000E+00 0.  1.
         25    2    1    2    0    0 -0.24139563782E+02  0.10692939295E+02 -0.10025521874E+03  0.16239777241E+03  0.12499948044E+03 0.  0.
    9000005    1    3    3    0    0 -0.26244310542E+02  0.45193533599E+02 -0.11382355819E+03  0.12525183318E+03  0.10000000000E+01 0.  0.
    9000005    1    3    3    0    0  0.21047467605E+01 -0.34500594304E+02  0.13568339452E+02  0.37145939236E+02  0.10000000000E+01 0.  0.
         -4    1    1    2    0  502  0.24139563782E+02 -0.10692939295E+02 -0.72222856978E+02  0.76907811439E+02  0.12700000000E+01 0. -1.
<mgrwt>
<rscale>  1 0.12775730E+03</rscale>
<asrwt>0</asrwt>
<pdfrwt beam="2">  1       21 0.31673809E-01 0.12775730E+03</pdfrwt>
<pdfrwt beam="1">  1       -4 0.51408789E-02 0.12775730E+03</pdfrwt>
<totfact> 0.87934862E+04</totfact>
</mgrwt>
</event>
<event>
 6    3  0.3813045E-003  0.1407911E+03  0.7818608E-02  0.1212268E+00
         21   -1    0    0  501  502  0.00000000000E+00  0.00000000000E+00  0.10703376152E+04  0.10703376152E+04  0.00000000000E+00 0.  1.
          4   -1    0    0  502    0 -0.00000000000E+00 -0.00000000000E+00 -0.13027371102E+02  0.13089128995E+02  0.12700000000E+01 0. -1.
         25    2    1    2    0    0  0.64588287653E+02  0.50151672046E+01  0.42298831593E+03  0.44580403423E+03  0.12500129088E+03 0.  0.
    9000005    1    3    3    0    0 -0.33572146651E+02 -0.17318614936E+02  0.82476009123E+02  0.90721086495E+02  0.10000000000E+01 0.  0.
    9000005    1    3    3    0    0  0.98160434303E+02  0.22333782140E+02  0.34051230681E+03  0.35508294774E+03  0.10000000000E+01 0.  0.
          4    1    1    2  501    0 -0.64588287653E+02 -0.50151672046E+01  0.63432192817E+03  0.63762270997E+03  0.12700000000E+01 0.  1.
<mgrwt>
<rscale>  1 0.14079106E+03</rscale>
<asrwt>0</asrwt>
<pdfrwt beam="1">  1       21 0.16466726E+00 0.14079106E+03</pdfrwt>
<pdfrwt beam="2">  1        4 0.20090203E-02 0.14079106E+03</pdfrwt>
<totfact> 0.98313928E+03</totfact>
</mgrwt>
</event>
<event>
 6    3  0.3813045E-003  0.1271376E+03  0.7818608E-02  0.1231766E+00
          4   -1    0    0  502    0 -0.00000000000E+00  0.00000000000E+00  0.45251540716E+02  0.45269358701E+02  0.12700000000E+01 0.  1.
         21   -1    0    0  501  502  0.00000000000E+00 -0.00000000000E+00 -0.14691155618E+03  0.14691155618E+03  0.00000000000E+00 0.  1.
         25    2    1    2    0    0  0.43476108620E+01  0.22786114739E+02 -0.52010153824E+02  0.13736458149E+03  0.12500345357E+03 0.  0.
    9000005    1    3    3    0    0  0.41161819822E+02 -0.23570935853E+01 -0.76191992581E+02  0.86637584423E+02  0.10000000000E+01 0.  0.
    9000005    1    3    3    0    0 -0.36814208960E+02  0.25143208324E+02  0.24181838757E+02  0.50726997071E+02  0.10000000000E+01 0.  0.
          4    1    1    2  501    0 -0.43476108620E+01 -0.22786114739E+02 -0.49649861639E+02  0.54816333386E+02  0.12700000000E+01 0. -1.
<mgrwt>
<rscale>  1 0.12713761E+03</rscale>
<asrwt>0</asrwt>
<pdfrwt beam="2">  1       21 0.22601778E-01 0.12713761E+03</pdfrwt>
<pdfrwt beam="1">  1        4 0.69635684E-02 0.12713761E+03</pdfrwt>
<totfact> 0.10209606E+05</totfact>
</mgrwt>
</event>
<event>
 6    3  0.3813045E-003  0.1400497E+03  0.7818608E-02  0.1213262E+00
          4   -1    0    0  502    0 -0.00000000000E+00  0.00000000000E+00  0.93422451308E+03  0.93422537631E+03  0.12700000000E+01 0.  1.
         21   -1    0    0  501  502  0.00000000000E+00 -0.00000000000E+00 -0.16935481181E+02  0.16935481181E+02  0.00000000000E+00 0. -1.
         25    2    1    2    0    0  0.11760268439E+02 -0.62055149555E+02  0.83878058067E+03  0.85039213559E+03  0.12499910502E+03 0.  0.
    9000005    1    3    3    0    0  0.35316878544E+02 -0.12649102064E+02  0.70286317167E+03  0.70386427653E+03  0.10000000000E+01 0.  0.
    9000005    1    3    3    0    0 -0.23556610105E+02 -0.49406047491E+02  0.13591740900E+03  0.14652785905E+03  0.10000000000E+01 0.  0.
          4    1    1    2  501    0 -0.11760268439E+02  0.62055149555E+02  0.78508451228E+02  0.10076872190E+03  0.12700000000E+01 0. -1.
<mgrwt>
<rscale>  1 0.14004971E+03</rscale>
<asrwt>0</asrwt>
<pdfrwt beam="2">  1       21 0.26054594E-02 0.14004971E+03</pdfrwt>
<pdfrwt beam="1">  1        4 0.14373054E+00 0.14004971E+03</pdfrwt>
<totfact> 0.11599970E+04</totfact>
</mgrwt>
</event>
<event>
 6    3  0.3813045E-003  0.1323870E+03  0.7818608E-02  0.1223956E+00
         21   -1    0    0  501  502  0.00000000000E+00  0.00000000000E+00  0.65374227370E+03  0.65374227370E+03  0.00000000000E+00 0.  1.
          4   -1    0    0  502    0 -0.00000000000E+00 -0.00000000000E+00 -0.55054633975E+02  0.55069280204E+02  0.12700000000E+01 0. -1.
         25    2    1    2    0    0 -0.18663618443E+02  0.39420314491E+02  0.26563243275E+02  0.13502567942E+03  0.12499614538E+03 0.  0.
    9000005    1    3    3    0    0  0.35518037299E+02 -0.26158872187E+02  0.23285838374E+02  0.49890358151E+02  0.10000000000E+01 0.  0.
    9000005    1    3    3    0    0 -0.54181655742E+02  0.65579186678E+02  0.32774049010E+01  0.85135321266E+02  0.10000000000E+01 0.  0.
          4    1    1    2  501    0  0.18663618443E+02 -0.39420314491E+02  0.57212439645E+03  0.57378587448E+03  0.12700000000E+01 0.  1.
<mgrwt>
<rscale>  1 0.13238704E+03</rscale>
<asrwt>0</asrwt>
<pdfrwt beam="1">  1       21 0.10057573E+00 0.13238704E+03</pdfrwt>
<pdfrwt beam="2">  1        4 0.84711657E-02 0.13238704E+03</pdfrwt>
<totfact> 0.33841236E+03</totfact>
</mgrwt>
</event>
<event>
 6    3  0.3813045E-003  0.1286779E+03  0.7818608E-02  0.1229431E+00
         21   -1    0    0  501  502  0.00000000000E+00  0.00000000000E+00  0.73776086638E+02  0.73776086638E+02  0.00000000000E+00 0.  1.
         -4   -1    0    0    0  501 -0.00000000000E+00 -0.00000000000E+00 -0.87108704465E+02  0.87117961946E+02  0.12700000000E+01 0.  1.
         25    2    1    2    0    0 -0.26231669707E+02  0.15648871987E+02 -0.18129606068E+02  0.12994874706E+03  0.12500002623E+03 0.  0.
    9000005    1    3    3    0    0 -0.28663720417E+02  0.28008721459E+02  0.48047926077E+02  0.62575558697E+02  0.10000000000E+01 0.  0.
    9000005    1    3    3    0    0  0.24320507109E+01 -0.12359849472E+02 -0.66177532146E+02  0.67373188366E+02  0.10000000000E+01 0.  0.
         -4    1    1    2    0  502  0.26231669707E+02 -0.15648871987E+02  0.47969882410E+01  0.30945301521E+02  0.12700000000E+01 0. -1.
<mgrwt>
<rscale>  1 0.12867787E+03</rscale>
<asrwt>0</asrwt>
<pdfrwt beam="1">  1       21 0.11350167E-01 0.12867787E+03</pdfrwt>
<pdfrwt beam="2">  1       -4 0.13402892E-01 0.12867787E+03</pdfrwt>
<totfact> 0.11877967E+05</totfact>
</mgrwt>
</event>
<event>
 6    3  0.3813045E-003  0.1288538E+03  0.7818608E-02  0.1229166E+00
         21   -1    0    0  501  502  0.00000000000E+00  0.00000000000E+00  0.67846146817E+03  0.67846146817E+03  0.00000000000E+00 0.  1.
         -4   -1    0    0    0  501 -0.00000000000E+00 -0.00000000000E+00 -0.41574034943E+02  0.41593428345E+02  0.12700000000E+01 0. -1.
         25    2    1    2    0    0  0.28616814609E+02 -0.12657522140E+02  0.59688742176E+02  0.14200725419E+03  0.12499671738E+03 0.  0.
    9000005    1    3    3    0    0 -0.37585876820E+02 -0.41384794516E+02  0.18432636149E+02  0.58874115100E+02  0.10000000000E+01 0.  0.
    9000005    1    3    3    0    0  0.66202691429E+02  0.28727272376E+02  0.41256106027E+02  0.83133139091E+02  0.10000000000E+01 0.  0.
         -4    1    1    2    0  502 -0.28616814609E+02  0.12657522140E+02  0.57719869105E+03  0.57804764232E+03  0.12700000000E+01 0.  1.
<mgrwt>
<rscale>  1 0.12885385E+03</rscale>
<asrwt>0</asrwt>
<pdfrwt beam="1">  1       21 0.10437868E+00 0.12885385E+03</pdfrwt>
<pdfrwt beam="2">  1       -4 0.63975891E-02 0.12885385E+03</pdfrwt>
<totfact> 0.49156625E+03</totfact>
</mgrwt>
</event>
<event>
 6    3  0.3813045E-003  0.1267578E+03  0.7818608E-02  0.1232347E+00
         -4   -1    0    0    0  501 -0.00000000000E+00  0.00000000000E+00  0.19802518763E+01  0.23525087659E+01  0.12700000000E+01 0. -1.
         21   -1    0    0  501  502  0.00000000000E+00 -0.00000000000E+00 -0.26476452208E+04  0.26476452208E+04  0.00000000000E+00 0. -1.
         25    2    1    2    0    0  0.14996212229E+02  0.14770003346E+02 -0.20169245903E+04  0.20209038447E+04  0.12499802852E+03 0.  0.
    9000005    1    3    3    0    0 -0.43096282323E+02  0.35151064226E+02 -0.58009877533E+03  0.58275936372E+03  0.10000000000E+01 0.  0.
    9000005    1    3    3    0    0  0.58092494552E+02 -0.20381060881E+02 -0.14368258150E+04  0.14381444810E+04  0.10000000000E+01 0.  0.
         -4    1    1    2    0  502 -0.14996212229E+02 -0.14770003346E+02 -0.62874037857E+03  0.62909388482E+03  0.12700000000E+01 0.  1.
<mgrwt>
<rscale>  1 0.12675783E+03</rscale>
<asrwt>0</asrwt>
<pdfrwt beam="2">  1       21 0.40733320E+00 0.12675783E+03</pdfrwt>
<pdfrwt beam="1">  1       -4 0.33331012E-03 0.12675783E+03</pdfrwt>
<totfact> 0.52431734E+03</totfact>
</mgrwt>
</event>
<event>
 6    3  0.3813045E-003  0.1377381E+03  0.7818608E-02  0.1216405E+00
         -4   -1    0    0    0  501 -0.00000000000E+00  0.00000000000E+00  0.83915623728E+02  0.83925233426E+02  0.12700000000E+01 0.  1.
         21   -1    0    0  501  502  0.00000000000E+00 -0.00000000000E+00 -0.11402808609E+03  0.11402808609E+03  0.00000000000E+00 0.  1.
         25    2    1    2    0    0 -0.22429483535E+01 -0.57805172064E+02 -0.23221009955E+02  0.13968176770E+03  0.12500124875E+03 0.  0.
    9000005    1    3    3    0    0  0.59978939498E+02 -0.16165111239E+02 -0.33687770083E+01  0.62218427039E+02  0.10000000000E+01 0.  0.
    9000005    1    3    3    0    0 -0.62221887851E+02 -0.41640060825E+02 -0.19852232947E+02  0.77463340660E+02  0.10000000000E+01 0.  0.
         -4    1    1    2    0  502  0.22429483535E+01  0.57805172064E+02 -0.68914524034E+01  0.58271551814E+02  0.12700000000E+01 0. -1.
<mgrwt>
<rscale>  1 0.13773809E+03</rscale>
<asrwt>0</asrwt>
<pdfrwt beam="2">  1       21 0.17542783E-01 0.13773809E+03</pdfrwt>
<pdfrwt beam="1">  1       -4 0.12911379E-01 0.13773809E+03</pdfrwt>
<totfact> 0.58480226E+04</totfact>
</mgrwt>
</event>
<event>
 6    3  0.3813045E-003  0.1279847E+03  0.7818608E-02  0.1230477E+00
         -4   -1    0    0    0  501 -0.00000000000E+00  0.00000000000E+00  0.17739563745E+03  0.17740018345E+03  0.12700000000E+01 0. -1.
         21   -1    0    0  501  502  0.00000000000E+00 -0.00000000000E+00 -0.45623918887E+03  0.45623918887E+03  0.00000000000E+00 0.  1.
         25    2    1    2    0    0  0.14498787394E+02  0.23450594918E+02  0.15381703472E+03  0.20009936156E+03  0.12497971470E+03 0.  0.
    9000005    1    3    3    0    0  0.42809724351E+02  0.64508479499E+02  0.83354209462E+02  0.11376704559E+03  0.10000000000E+01 0.  0.
    9000005    1    3    3    0    0 -0.28310936957E+02 -0.41057884581E+02  0.70462825257E+02  0.86332315971E+02  0.10000000000E+01 0.  0.
         -4    1    1    2    0  502 -0.14498787394E+02 -0.23450594918E+02 -0.43266058614E+03  0.43354001077E+03  0.12700000000E+01 0.  1.
<mgrwt>
<rscale>  1 0.12798466E+03</rscale>
<asrwt>0</asrwt>
<pdfrwt beam="2">  1       21 0.70190643E-01 0.12798466E+03</pdfrwt>
<pdfrwt beam="1">  1       -4 0.27292123E-01 0.12798466E+03</pdfrwt>
<totfact> 0.98038252E+02</totfact>
</mgrwt>
</event>
<event>
 6    3  0.3813045E-003  0.1310910E+03  0.7818608E-02  0.1225846E+00
         21   -1    0    0  501  502  0.00000000000E+00  0.00000000000E+00  0.58412694885E+02  0.58412694885E+02  0.00000000000E+00 0. -1.
         -4   -1    0    0    0  501 -0.00000000000E+00 -0.00000000000E+00 -0.12904528456E+03  0.12905153377E+03  0.12700000000E+01 0. -1.
         25    2    1    2    0    0  0.33187967769E+02 -0.21391819979E+02 -0.68481255628E+02  0.14790045349E+03  0.12500324238E+03 0.  0.
    9000005    1    3    3    0    0 -0.36026674781E+02  0.25780189014E+02 -0.39203391682E+02  0.59164561697E+02  0.10000000000E+01 0.  0.
    9000005    1    3    3    0    0  0.69214642550E+02 -0.47172008993E+02 -0.29277863946E+02  0.88735891797E+02  0.10000000000E+01 0.  0.
         -4    1    1    2    0  502 -0.33187967769E+02  0.21391819979E+02 -0.21513340510E+01  0.39563775159E+02  0.12700000000E+01 0.  1.
<mgrwt>
<rscale>  1 0.13109104E+03</rscale>
<asrwt>0</asrwt>
<pdfrwt beam="1">  1       21 0.89865684E-02 0.13109104E+03</pdfrwt>
<pdfrwt beam="2">  1       -4 0.19854663E-01 0.13109104E+03</pdfrwt>
<totfact> 0.89779211E+04</totfact>
</mgrwt>
</event>
<event>
 6    3  0.3813045E-003  0.1280268E+03  0.7818608E-02  0.1230413E+00
         21   -1    0    0  501  502  0.00000000000E+00  0.00000000000E+00  0.97887950490E+02  0.97887950490E+02  0.00000000000E+00 0. -1.
          4   -1    0    0  502    0 -0.00000000000E+00 -0.00000000000E+00 -0.62327646315E+02  0.62340583853E+02  0.12700000000E+01 0. -1.
         25    2    1    2    0    0 -0.35547949123E+01 -0.27451667043E+02  0.34049850561E+02  0.13247740895E+03  0.12499856387E+03 0.  0.
    9000005    1    3    3    0    0 -0.32732856557E+02 -0.55491195878E+02 -0.17657925788E+02  0.66809543192E+02  0.10000000000E+01 0.  0.
    9000005    1    3    3    0    0  0.29178061645E+02  0.28039528835E+02  0.51707776349E+02  0.65667865761E+02  0.10000000000E+01 0.  0.
          4    1    1    2  501    0  0.35547949123E+01  0.27451667043E+02  0.15104536138E+01  0.27751125390E+02  0.12700000000E+01 0. -1.
<mgrwt>
<rscale>  1 0.12802684E+03</rscale>
<asrwt>0</asrwt>
<pdfrwt beam="1">  1       21 0.15059685E-01 0.12802684E+03</pdfrwt>
<pdfrwt beam="2">  1        4 0.95904976E-02 0.12802684E+03</pdfrwt>
<totfact> 0.12665343E+05</totfact>
</mgrwt>
</event>
<event>
 6    3  0.3813045E-003  0.1954584E+03  0.7818608E-02  0.1153628E+00
          4   -1    0    0  502    0 -0.00000000000E+00  0.00000000000E+00  0.11422497586E+03  0.11423203583E+03  0.12700000000E+01 0. -1.
         21   -1    0    0  501  502  0.00000000000E+00 -0.00000000000E+00 -0.46577184993E+03  0.46577184993E+03  0.00000000000E+00 0.  1.
         25    2    1    2    0    0 -0.93295941908E+01  0.14997309528E+03  0.24068624293E+01  0.19547322233E+03  0.12500006810E+03 0.  0.
    9000005    1    3    3    0    0  0.26591325371E+02  0.14789686825E+03 -0.22155922134E+02  0.15189623796E+03  0.10000000000E+01 0.  0.
    9000005    1    3    3    0    0 -0.35920919562E+02  0.20762270344E+01  0.24562784563E+02  0.43576984365E+02  0.10000000000E+01 0.  0.
          4    1    1    2  501    0  0.93295941908E+01 -0.14997309528E+03 -0.35395373651E+03  0.38453066344E+03  0.12700000000E+01 0.  1.
<mgrwt>
<rscale>  1 0.19545840E+03</rscale>
<asrwt>0</asrwt>
<pdfrwt beam="2">  1       21 0.71657206E-01 0.19545840E+03</pdfrwt>
<pdfrwt beam="1">  1        4 0.17573750E-01 0.19545840E+03</pdfrwt>
<totfact> 0.21071124E+03</totfact>
</mgrwt>
</event>
<event>
 6    3  0.3813045E-003  0.1285915E+03  0.7818608E-02  0.1229561E+00
          4   -1    0    0  502    0 -0.00000000000E+00  0.00000000000E+00  0.15439669410E+03  0.15440191725E+03  0.12700000000E+01 0.  1.
         21   -1    0    0  501  502  0.00000000000E+00 -0.00000000000E+00 -0.41630246050E+02  0.41630246050E+02  0.00000000000E+00 0.  1.
         25    2    1    2    0    0  0.15136876910E+02 -0.26107753539E+02  0.10139205815E+03  0.16375632895E+03  0.12500018391E+03 0.  0.
    9000005    1    3    3    0    0 -0.24488230388E+01 -0.64986534442E+02  0.14046631802E+02  0.66539869687E+02  0.10000000000E+01 0.  0.
    9000005    1    3    3    0    0  0.17585699949E+02  0.38878780903E+02  0.87345426347E+02  0.97216459260E+02  0.10000000000E+01 0.  0.
          4    1    1    2  501    0 -0.15136876910E+02  0.26107753539E+02  0.11374389905E+02  0.32275834352E+02  0.12700000000E+01 0. -1.
<mgrwt>
<rscale>  1 0.12859155E+03</rscale>
<asrwt>0</asrwt>
<pdfrwt beam="2">  1       21 0.64046533E-02 0.12859155E+03</pdfrwt>
<pdfrwt beam="1">  1        4 0.23755229E-01 0.12859155E+03</pdfrwt>
<totfact> 0.11575126E+05</totfact>
</mgrwt>
</event>
<event>
 6    3  0.3813045E-003  0.1267199E+03  0.7818608E-02  0.1232406E+00
         21   -1    0    0  501  502  0.00000000000E+00  0.00000000000E+00  0.22638283194E+02  0.22638283194E+02  0.00000000000E+00 0.  1.
          4   -1    0    0  502    0 -0.00000000000E+00 -0.00000000000E+00 -0.34964174042E+03  0.34964404692E+03  0.12700000000E+01 0.  1.
         25    2    1    2    0    0 -0.20454727431E+02 -0.37393221809E+01 -0.32779347831E+03  0.35143489770E+03  0.12500217796E+03 0.  0.
    9000005    1    3    3    0    0 -0.39930223752E+02  0.31198478915E+02 -0.51490400022E+02  0.72249769203E+02  0.10000000000E+01 0.  0.
    9000005    1    3    3    0    0  0.19475496322E+02 -0.34937801096E+02 -0.27630307829E+03  0.27918512850E+03  0.10000000000E+01 0.  0.
          4    1    1    2  501    0  0.20454727431E+02  0.37393221809E+01  0.79002108742E+00  0.20847432407E+02  0.12700000000E+01 0. -1.
<mgrwt>
<rscale>  1 0.12671986E+03</rscale>
<asrwt>0</asrwt>
<pdfrwt beam="1">  1       21 0.34828131E-02 0.12671986E+03</pdfrwt>
<pdfrwt beam="2">  1        4 0.53793950E-01 0.12671986E+03</pdfrwt>
<totfact> 0.65757540E+04</totfact>
</mgrwt>
</event>
<event>
 6    3  0.3813045E-003  0.1321782E+03  0.7818608E-02  0.1224259E+00
         21   -1    0    0  501  502  0.00000000000E+00  0.00000000000E+00  0.28287328579E+03  0.28287328579E+03  0.00000000000E+00 0. -1.
          4   -1    0    0  502    0 -0.00000000000E+00 -0.00000000000E+00 -0.13587240613E+03  0.13587834135E+03  0.12700000000E+01 0.  1.
         25    2    1    2    0    0  0.17563488750E+02 -0.39214448378E+02 -0.10144155579E+03  0.16661772278E+03  0.12499930881E+03 0.  0.
    9000005    1    3    3    0    0  0.22587467935E+02 -0.83039333956E+02 -0.80237866334E+02  0.11766409769E+03  0.10000000000E+01 0.  0.
    9000005    1    3    3    0    0 -0.50239791848E+01  0.43824885577E+02 -0.21203689456E+02  0.48953625088E+02  0.10000000000E+01 0.  0.
          4    1    1    2  501    0 -0.17563488750E+02  0.39214448378E+02  0.24844243545E+03  0.25213390437E+03  0.12700000000E+01 0. -1.
<mgrwt>
<rscale>  1 0.13217820E+03</rscale>
<asrwt>0</asrwt>
<pdfrwt beam="1">  1       21 0.43518967E-01 0.13217820E+03</pdfrwt>
<pdfrwt beam="2">  1        4 0.20904123E-01 0.13217820E+03</pdfrwt>
<totfact> 0.43651214E+03</totfact>
</mgrwt>
</event>
<event>
 6    3  0.3813045E-003  0.1277191E+03  0.7818608E-02  0.1230880E+00
         -4   -1    0    0    0  501 -0.00000000000E+00  0.00000000000E+00  0.47379198533E+02  0.47396216659E+02  0.12700000000E+01 0. -1.
         21   -1    0    0  501  502  0.00000000000E+00 -0.00000000000E+00 -0.14833192753E+03  0.14833192753E+03  0.00000000000E+00 0. -1.
         25    2    1    2    0    0 -0.22126519520E+02 -0.14062657292E+02 -0.47659454895E+02  0.13632168696E+03  0.12499934999E+03 0.  0.
    9000005    1    3    3    0    0  0.17701727865E+02 -0.36707932050E+02 -0.73253186363E+02  0.83832289466E+02  0.10000000000E+01 0.  0.
    9000005    1    3    3    0    0 -0.39828247385E+02  0.22645274758E+02  0.25593731468E+02  0.52489397492E+02  0.10000000000E+01 0.  0.
         -4    1    1    2    0  502  0.22126519520E+02  0.14062657292E+02 -0.53293274102E+02  0.59406457231E+02  0.12700000000E+01 0.  1.
<mgrwt>
<rscale>  1 0.12771914E+03</rscale>
<asrwt>0</asrwt>
<pdfrwt beam="2">  1       21 0.22820296E-01 0.12771914E+03</pdfrwt>
<pdfrwt beam="1">  1       -4 0.72908348E-02 0.12771914E+03</pdfrwt>
<totfact> 0.93051254E+04</totfact>
</mgrwt>
</event>
<event>
 6    3  0.3813045E-003  0.1272950E+03  0.7818608E-02  0.1231526E+00
         21   -1    0    0  501  502  0.00000000000E+00  0.00000000000E+00  0.95589185183E+03  0.95589185183E+03  0.00000000000E+00 0.  1.
         -4   -1    0    0    0  501 -0.00000000000E+00 -0.00000000000E+00 -0.67236923979E+01  0.68425828063E+01  0.12700000000E+01 0. -1.
         25    2    1    2    0    0 -0.17783453595E+02  0.16207697611E+02  0.63438106886E+03  0.64702655387E+03  0.12500032083E+03 0.  0.
    9000005    1    3    3    0    0 -0.90156470230E+00  0.26098130429E+02  0.62456898805E+03  0.62511546619E+03  0.10000000000E+01 0.  0.
    9000005    1    3    3    0    0 -0.16881888893E+02 -0.98904328178E+01  0.98120808090E+01  0.21911087689E+02  0.10000000000E+01 0.  0.
         -4    1    1    2    0  502  0.17783453595E+02 -0.16207697611E+02  0.31478709058E+03  0.31570788076E+03  0.12700000000E+01 0.  1.
<mgrwt>
<rscale>  1 0.12729502E+03</rscale>
<asrwt>0</asrwt>
<pdfrwt beam="1">  1       21 0.14706018E+00 0.12729502E+03</pdfrwt>
<pdfrwt beam="2">  1       -4 0.10436253E-02 0.12729502E+03</pdfrwt>
<totfact> 0.35678511E+04</totfact>
</mgrwt>
</event>
<event>
 6    3  0.3813045E-003  0.1293903E+03  0.7818608E-02  0.1228363E+00
         21   -1    0    0  501  502  0.00000000000E+00  0.00000000000E+00  0.85264479775E+01  0.85264479775E+01  0.00000000000E+00 0. -1.
         -4   -1    0    0    0  501 -0.00000000000E+00 -0.00000000000E+00 -0.79053911575E+03  0.79054013588E+03  0.12700000000E+01 0. -1.
         25    2    1    2    0    0  0.24392906883E+02 -0.22854366562E+02 -0.65927846010E+03  0.67185559923E+03  0.12499808911E+03 0.  0.
    9000005    1    3    3    0    0  0.61244217741E+02  0.41276914447E+01 -0.17555600175E+03  0.18598064897E+03  0.10000000000E+01 0.  0.
    9000005    1    3    3    0    0 -0.36851310858E+02 -0.26982058007E+02 -0.48372245836E+03  0.48587495026E+03  0.10000000000E+01 0.  0.
         -4    1    1    2    0  502 -0.24392906883E+02  0.22854366562E+02 -0.12273420767E+03  0.12721098463E+03  0.12700000000E+01 0.  1.
<mgrwt>
<rscale>  1 0.12939033E+03</rscale>
<asrwt>0</asrwt>
<pdfrwt beam="1">  1       21 0.13117611E-02 0.12939033E+03</pdfrwt>
<pdfrwt beam="2">  1       -4 0.12162877E+00 0.12939033E+03</pdfrwt>
<totfact> 0.52384782E+04</totfact>
</mgrwt>
</event>
<event>
 6    3  0.3813045E-003  0.1300605E+03  0.7818608E-02  0.1227366E+00
          4   -1    0    0  502    0 -0.00000000000E+00  0.00000000000E+00  0.88074367657E+03  0.88074459221E+03  0.12700000000E+01 0. -1.
         21   -1    0    0  501  502  0.00000000000E+00 -0.00000000000E+00 -0.25644094937E+02  0.25644094937E+02  0.00000000000E+00 0.  1.
         25    2    1    2    0    0  0.31806958238E+02 -0.16698290019E+02  0.86029337919E+03  0.87006921696E+03  0.12500091414E+03 0.  0.
    9000005    1    3    3    0    0  0.50847446270E+02  0.26679631032E+02  0.71372713483E+03  0.71603399954E+03  0.10000000000E+01 0.  0.
    9000005    1    3    3    0    0 -0.19040488032E+02 -0.43377921051E+02  0.14656624437E+03  0.15403521742E+03  0.10000000000E+01 0.  0.
          4    1    1    2  501    0 -0.31806958238E+02  0.16698290019E+02 -0.51937975608E+01  0.36319470192E+02  0.12700000000E+01 0.  1.
<mgrwt>
<rscale>  1 0.13006054E+03</rscale>
<asrwt>0</asrwt>
<pdfrwt beam="2">  1       21 0.39452460E-02 0.13006054E+03</pdfrwt>
<pdfrwt beam="1">  1        4 0.13550149E+00 0.13006054E+03</pdfrwt>
<totfact> 0.67450172E+03</totfact>
</mgrwt>
</event>
<event>
 6    3  0.3813045E-003  0.1437738E+03  0.7818608E-02  0.1208339E+00
         21   -1    0    0  501  502  0.00000000000E+00  0.00000000000E+00  0.21393962608E+03  0.21393962608E+03  0.00000000000E+00 0. -1.
         -4   -1    0    0    0  501 -0.00000000000E+00 -0.00000000000E+00 -0.61722565823E+02  0.61735630165E+02  0.12700000000E+01 0.  1.
         25    2    1    2    0    0  0.80451716579E+01 -0.70578299636E+02  0.52124402926E+02  0.15293091170E+03  0.12499955682E+03 0.  0.
    9000005    1    3    3    0    0  0.22334318862E+02  0.32609362097E+02  0.12385396598E+02  0.41431755265E+02  0.10000000000E+01 0.  0.
    9000005    1    3    3    0    0 -0.14289147204E+02 -0.10318766173E+03  0.39739006328E+02  0.11149915643E+03  0.10000000000E+01 0.  0.
         -4    1    1    2    0  502 -0.80451716579E+01  0.70578299636E+02  0.10009265733E+03  0.12274434455E+03  0.12700000000E+01 0. -1.
<mgrwt>
<rscale>  1 0.14377382E+03</rscale>
<asrwt>0</asrwt>
<pdfrwt beam="1">  1       21 0.32913788E-01 0.14377382E+03</pdfrwt>
<pdfrwt beam="2">  1       -4 0.94970743E-02 0.14377382E+03</pdfrwt>
<totfact> 0.30178679E+04</totfact>
</mgrwt>
</event>
<event>
 6    3  0.3813045E-003  0.1282412E+03  0.7818608E-02  0.1230089E+00
         21   -1    0    0  501  502  0.00000000000E+00  0.00000000000E+00  0.69233171604E+02  0.69233171604E+02  0.00000000000E+00 0.  1.
         -4   -1    0    0    0  501 -0.00000000000E+00 -0.00000000000E+00 -0.94227370248E+02  0.94235928413E+02  0.12700000000E+01 0.  1.
         25    2    1    2    0    0 -0.15996937545E+02  0.23771552914E+02 -0.35269794664E+02  0.13300289723E+03  0.12499929407E+03 0.  0.
    9000005    1    3    3    0    0 -0.47290536160E+02 -0.25546631144E+02  0.15131718415E+02  0.55847954979E+02  0.10000000000E+01 0.  0.
    9000005    1    3    3    0    0  0.31293598616E+02  0.49318184058E+02 -0.50401513078E+02  0.77154942251E+02  0.10000000000E+01 0.  0.
         -4    1    1    2    0  502  0.15996937545E+02 -0.23771552914E+02  0.10275596020E+02  0.30466202788E+02  0.12700000000E+01 0. -1.
<mgrwt>
<rscale>  1 0.12824123E+03</rscale>
<asrwt>0</asrwt>
<pdfrwt beam="1">  1       21 0.10651257E-01 0.12824123E+03</pdfrwt>
<pdfrwt beam="2">  1       -4 0.14498073E-01 0.12824123E+03</pdfrwt>
<totfact> 0.11588721E+05</totfact>
</mgrwt>
</event>
<event>
 6    3  0.3813045E-003  0.1288508E+03  0.7818608E-02  0.1229171E+00
         21   -1    0    0  501  502  0.00000000000E+00  0.00000000000E+00  0.12015086500E+02  0.12015086500E+02  0.00000000000E+00 0.  1.
          4   -1    0    0  502    0 -0.00000000000E+00 -0.00000000000E+00 -0.55675376375E+03  0.55675521223E+03  0.12700000000E+01 0.  1.
         25    2    1    2    0    0 -0.19168577121E+02 -0.24686815758E+02 -0.38475542711E+03  0.40575764142E+03  0.12500260659E+03 0.  0.
    9000005    1    3    3    0    0  0.18193921532E+02  0.42127149190E+02 -0.87570796478E+02  0.98870419618E+02  0.10000000000E+01 0.  0.
    9000005    1    3    3    0    0 -0.37362498652E+02 -0.66813964948E+02 -0.29718463064E+03  0.30688722180E+03  0.10000000000E+01 0.  0.
          4    1    1    2  501    0  0.19168577121E+02  0.24686815758E+02 -0.15998325013E+03  0.16301265731E+03  0.12700000000E+01 0. -1.
<mgrwt>
<rscale>  1 0.12885079E+03</rscale>
<asrwt>0</asrwt>
<pdfrwt beam="1">  1       21 0.18484749E-02 0.12885079E+03</pdfrwt>
<pdfrwt beam="2">  1        4 0.85659697E-01 0.12885079E+03</pdfrwt>
<totfact> 0.68199057E+04</totfact>
</mgrwt>
</event>
<event>
 6    3  0.3813045E-003  0.1297053E+03  0.7818608E-02  0.1227894E+00
          4   -1    0    0  502    0 -0.00000000000E+00  0.00000000000E+00  0.33392649021E+03  0.33392890525E+03  0.12700000000E+01 0.  1.
         21   -1    0    0  501  502  0.00000000000E+00 -0.00000000000E+00 -0.25427277697E+02  0.25427277697E+02  0.00000000000E+00 0. -1.
         25    2    1    2    0    0  0.34493987197E+02 -0.29064966512E+01  0.29486192586E+03  0.32212888970E+03  0.12500073353E+03 0.  0.
    9000005    1    3    3    0    0 -0.33951786198E+02  0.11657818455E+02  0.26073079629E+02  0.44378305494E+02  0.10000000000E+01 0.  0.
    9000005    1    3    3    0    0  0.68445773394E+02 -0.14564315107E+02  0.26878884623E+03  0.27775058420E+03  0.10000000000E+01 0.  0.
          4    1    1    2  501    0 -0.34493987197E+02  0.29064966512E+01  0.13637286655E+02  0.37227293251E+02  0.12700000000E+01 0. -1.
<mgrwt>
<rscale>  1 0.12970531E+03</rscale>
<asrwt>0</asrwt>
<pdfrwt beam="2">  1       21 0.39118891E-02 0.12970531E+03</pdfrwt>
<pdfrwt beam="1">  1        4 0.51375928E-01 0.12970531E+03</pdfrwt>
<totfact> 0.59818181E+04</totfact>
</mgrwt>
</event>
<event>
 6    3  0.3813045E-003  0.1275188E+03  0.7818608E-02  0.1231184E+00
         21   -1    0    0  501  502  0.00000000000E+00  0.00000000000E+00  0.16383211627E+03  0.16383211627E+03  0.00000000000E+00 0.  1.
          4   -1    0    0  502    0 -0.00000000000E+00 -0.00000000000E+00 -0.69981950742E+02  0.69993473479E+02  0.12700000000E+01 0. -1.
         25    2    1    2    0    0 -0.21636801138E+02 -0.12982112515E+02 -0.90784987400E+01  0.12784158512E+03  0.12499746133E+03 0.  0.
    9000005    1    3    3    0    0  0.25437896375E+02  0.20485164225E+02  0.40274275059E+02  0.51862758862E+02  0.10000000000E+01 0.  0.
    9000005    1    3    3    0    0 -0.47074697512E+02 -0.33467276740E+02 -0.49352773799E+02  0.75978826260E+02  0.10000000000E+01 0.  0.
          4    1    1    2  501    0  0.21636801138E+02  0.12982112515E+02  0.10292866426E+03  0.10598400462E+03  0.12700000000E+01 0.  1.
<mgrwt>
<rscale>  1 0.12751883E+03</rscale>
<asrwt>0</asrwt>
<pdfrwt beam="1">  1       21 0.25204941E-01 0.12751883E+03</pdfrwt>
<pdfrwt beam="2">  1        4 0.10767719E-01 0.12751883E+03</pdfrwt>
<totfact> 0.40277465E+04</totfact>
</mgrwt>
</event>
<event>
 6    3  0.3813045E-003  0.1275257E+03  0.7818608E-02  0.1231174E+00
         -4   -1    0    0    0  501 -0.00000000000E+00  0.00000000000E+00  0.94006296352E+03  0.94006382139E+03  0.12700000000E+01 0.  1.
         21   -1    0    0  501  502  0.00000000000E+00 -0.00000000000E+00 -0.10071726619E+02  0.10071726619E+02  0.00000000000E+00 0.  1.
         25    2    1    2    0    0  0.76346770638E+01 -0.24074016397E+02  0.90711749701E+03  0.91603763845E+03  0.12499982049E+03 0.  0.
    9000005    1    3    3    0    0  0.24545949904E+02 -0.72260480779E+02  0.56319355245E+03  0.56834149793E+03  0.10000000000E+01 0.  0.
    9000005    1    3    3    0    0 -0.16911272840E+02  0.48186464383E+02  0.34392394455E+03  0.34769614053E+03  0.10000000000E+01 0.  0.
         -4    1    1    2    0  502 -0.76346770638E+01  0.24074016397E+02  0.22873739893E+02  0.34097909555E+02  0.12700000000E+01 0. -1.
<mgrwt>
<rscale>  1 0.12752569E+03</rscale>
<asrwt>0</asrwt>
<pdfrwt beam="2">  1       21 0.15494971E-02 0.12752569E+03</pdfrwt>
<pdfrwt beam="1">  1       -4 0.14463123E+00 0.12752569E+03</pdfrwt>
<totfact> 0.26186764E+04</totfact>
</mgrwt>
</event>
<event>
 6    3  0.3813045E-003  0.1281785E+03  0.7818608E-02  0.1230184E+00
         21   -1    0    0  501  502  0.00000000000E+00  0.00000000000E+00  0.70131319143E+01  0.70131319143E+01  0.00000000000E+00 0.  1.
          4   -1    0    0  502    0 -0.00000000000E+00 -0.00000000000E+00 -0.87658687439E+03  0.87658779437E+03  0.12700000000E+01 0.  1.
         25    2    1    2    0    0 -0.27987409000E+02 -0.46047784116E+01 -0.69184766435E+03  0.70362128635E+03  0.12500089958E+03 0.  0.
    9000005    1    3    3    0    0 -0.43693659661E+02 -0.55993647832E+01 -0.78108595149E+02  0.89679659994E+02  0.10000000000E+01 0.  0.
    9000005    1    3    3    0    0  0.15706250661E+02  0.99458637163E+00 -0.61373906920E+03  0.61394162636E+03  0.10000000000E+01 0.  0.
          4    1    1    2  501    0  0.27987409000E+02  0.46047784116E+01 -0.17772607812E+03  0.17997963993E+03  0.12700000000E+01 0. -1.
<mgrwt>
<rscale>  1 0.12817848E+03</rscale>
<asrwt>0</asrwt>
<pdfrwt beam="1">  1       21 0.10789432E-02 0.12817848E+03</pdfrwt>
<pdfrwt beam="2">  1        4 0.13486845E+00 0.12817848E+03</pdfrwt>
<totfact> 0.55431685E+04</totfact>
</mgrwt>
</event>
<event>
 6    3  0.3813045E-003  0.1275057E+03  0.7818608E-02  0.1231204E+00
         21   -1    0    0  501  502  0.00000000000E+00  0.00000000000E+00  0.29532828875E+02  0.29532828875E+02  0.00000000000E+00 0.  1.
         -4   -1    0    0    0  501 -0.00000000000E+00 -0.00000000000E+00 -0.26524467355E+03  0.26524771393E+03  0.12700000000E+01 0.  1.
         25    2    1    2    0    0 -0.13821927928E+00 -0.25163509573E+02 -0.23745660456E+03  0.26952428802E+03  0.12499792585E+03 0.  0.
    9000005    1    3    3    0    0  0.18548737121E+02  0.34245219113E+02 -0.20946502165E+02  0.44232868253E+02  0.10000000000E+01 0.  0.
    9000005    1    3    3    0    0 -0.18686956400E+02 -0.59408728686E+02 -0.21651010239E+03  0.22529141977E+03  0.10000000000E+01 0.  0.
         -4    1    1    2    0  502  0.13821927928E+00  0.25163509573E+02  0.17447598860E+01  0.25256254783E+02  0.12700000000E+01 0. -1.
<mgrwt>
<rscale>  1 0.12750570E+03</rscale>
<asrwt>0</asrwt>
<pdfrwt beam="1">  1       21 0.45435121E-02 0.12750570E+03</pdfrwt>
<pdfrwt beam="2">  1       -4 0.40809207E-01 0.12750570E+03</pdfrwt>
<totfact> 0.73829086E+04</totfact>
</mgrwt>
</event>
<event>
 6    3  0.3813045E-003  0.1327952E+03  0.7818608E-02  0.1223366E+00
         21   -1    0    0  501  502  0.00000000000E+00  0.00000000000E+00  0.76986348268E+01  0.76986348268E+01  0.00000000000E+00 0. -1.
         -4   -1    0    0    0  501 -0.00000000000E+00 -0.00000000000E+00 -0.12556031334E+04  0.12556037756E+04  0.12700000000E+01 0. -1.
         25    2    1    2    0    0 -0.26978584873E+02 -0.35810508182E+02 -0.11182774944E+04  0.11261345949E+04  0.12499733884E+03 0.  0.
    9000005    1    3    3    0    0  0.28155751282E+02 -0.51335689993E+02 -0.83905529053E+03  0.84109623704E+03  0.10000000000E+01 0.  0.
    9000005    1    3    3    0    0 -0.55134336155E+02  0.15525181812E+02 -0.27922220391E+03  0.28503835786E+03  0.10000000000E+01 0.  0.
         -4    1    1    2    0  502  0.26978584873E+02  0.35810508182E+02 -0.12962700409E+03  0.13716781556E+03  0.12700000000E+01 0.  1.
<mgrwt>
<rscale>  1 0.13279522E+03</rscale>
<asrwt>0</asrwt>
<pdfrwt beam="1">  1       21 0.11844060E-02 0.13279522E+03</pdfrwt>
<pdfrwt beam="2">  1       -4 0.19317771E+00 0.13279522E+03</pdfrwt>
<totfact> 0.18749413E+04</totfact>
</mgrwt>
</event>
<event>
 6    3  0.3813045E-003  0.1539816E+03  0.7818608E-02  0.1195664E+00
         21   -1    0    0  501  502  0.00000000000E+00  0.00000000000E+00  0.44841226564E+02  0.44841226564E+02  0.00000000000E+00 0. -1.
         -4   -1    0    0    0  501 -0.00000000000E+00 -0.00000000000E+00 -0.35012709984E+03  0.35012940314E+03  0.12700000000E+01 0. -1.
         25    2    1    2    0    0 -0.74624035582E+02 -0.50179092489E+02 -0.23442521563E+03  0.28047375764E+03  0.12499463585E+03 0.  0.
    9000005    1    3    3    0    0  0.13897287938E+02 -0.60004371466E+02 -0.12521000853E+03  0.13954284448E+03  0.10000000000E+01 0.  0.
    9000005    1    3    3    0    0 -0.88521323520E+02  0.98252789775E+01 -0.10921520710E+03  0.14093091317E+03  0.10000000000E+01 0.  0.
         -4    1    1    2    0  502  0.74624035582E+02  0.50179092489E+02 -0.70860657640E+02  0.11449687206E+03  0.12700000000E+01 0.  1.
<mgrwt>
<rscale>  1 0.15398165E+03</rscale>
<asrwt>0</asrwt>
<pdfrwt beam="1">  1       21 0.68986502E-02 0.15398165E+03</pdfrwt>
<pdfrwt beam="2">  1       -4 0.53867268E-01 0.15398165E+03</pdfrwt>
<totfact> 0.21261640E+04</totfact>
</mgrwt>
</event>
<event>
 6    3  0.3813045E-003  0.1335611E+03  0.7818608E-02  0.1222265E+00
         21   -1    0    0  501  502  0.00000000000E+00  0.00000000000E+00  0.56206104005E+02  0.56206104005E+02  0.00000000000E+00 0.  1.
          4   -1    0    0  502    0 -0.00000000000E+00 -0.00000000000E+00 -0.15013600175E+03  0.15014137311E+03  0.12700000000E+01 0. -1.
         25    2    1    2    0    0  0.37052967357E+02  0.28992526056E+02 -0.85361084463E+02  0.15850893180E+03  0.12500031105E+03 0.  0.
    9000005    1    3    3    0    0  0.13987568668E+02  0.75465264703E+02 -0.29409684600E+02  0.82198465936E+02  0.10000000000E+01 0.  0.
    9000005    1    3    3    0    0  0.23065398689E+02 -0.46472738646E+02 -0.55951399863E+02  0.76310465865E+02  0.10000000000E+01 0.  0.
          4    1    1    2  501    0 -0.37052967357E+02 -0.28992526056E+02 -0.85688132792E+01  0.47838545317E+02  0.12700000000E+01 0.  1.
<mgrwt>
<rscale>  1 0.13356110E+03</rscale>
<asrwt>0</asrwt>
<pdfrwt beam="1">  1       21 0.86470931E-02 0.13356110E+03</pdfrwt>
<pdfrwt beam="2">  1        4 0.23099363E-01 0.13356110E+03</pdfrwt>
<totfact> 0.73145284E+04</totfact>
</mgrwt>
</event>
<event>
 6    3  0.3813045E-003  0.1287146E+03  0.7818608E-02  0.1229376E+00
         -4   -1    0    0    0  501 -0.00000000000E+00  0.00000000000E+00  0.80574648631E+03  0.80574748718E+03  0.12700000000E+01 0.  1.
         21   -1    0    0  501  502  0.00000000000E+00 -0.00000000000E+00 -0.97740405482E+01  0.97740405482E+01  0.00000000000E+00 0.  1.
         25    2    1    2    0    0  0.99877129846E+01 -0.29038411333E+02  0.74471086323E+03  0.75575241792E+03  0.12499785455E+03 0.  0.
    9000005    1    3    3    0    0  0.46567387344E+02 -0.49195785245E+02  0.63069828198E+03  0.63432646937E+03  0.10000000000E+01 0.  0.
    9000005    1    3    3    0    0 -0.36579674360E+02  0.20157373912E+02  0.11401258125E+03  0.12142594855E+03  0.10000000000E+01 0.  0.
         -4    1    1    2    0  502 -0.99877129846E+01  0.29038411333E+02  0.51261582534E+02  0.59769109809E+02  0.12700000000E+01 0. -1.
<mgrwt>
<rscale>  1 0.12871460E+03</rscale>
<asrwt>0</asrwt>
<pdfrwt beam="2">  1       21 0.15036992E-02 0.12871460E+03</pdfrwt>
<pdfrwt beam="1">  1       -4 0.12396737E+00 0.12871460E+03</pdfrwt>
<totfact> 0.40217537E+04</totfact>
</mgrwt>
</event>
<event>
 6    3  0.3813045E-003  0.1342271E+03  0.7818608E-02  0.1221315E+00
         -4   -1    0    0    0  501 -0.00000000000E+00  0.00000000000E+00  0.64552854229E+03  0.64552979157E+03  0.12700000000E+01 0. -1.
         21   -1    0    0  501  502  0.00000000000E+00 -0.00000000000E+00 -0.23211816437E+02  0.23211816437E+02  0.00000000000E+00 0. -1.
         25    2    1    2    0    0  0.20020547038E+02 -0.44622788877E+02  0.60024275659E+03  0.61506769805E+03  0.12499956304E+03 0.  0.
    9000005    1    3    3    0    0  0.28469968610E+02  0.29200187096E+02  0.82669890815E+02  0.92187314130E+02  0.10000000000E+01 0.  0.
    9000005    1    3    3    0    0 -0.84494215718E+01 -0.73822975973E+02  0.51757286578E+03  0.52288038393E+03  0.10000000000E+01 0.  0.
         -4    1    1    2    0  502 -0.20020547038E+02  0.44622788877E+02  0.22073969258E+02  0.53673909953E+02  0.12700000000E+01 0.  1.
<mgrwt>
<rscale>  1 0.13422707E+03</rscale>
<asrwt>0</asrwt>
<pdfrwt beam="2">  1       21 0.35710492E-02 0.13422707E+03</pdfrwt>
<pdfrwt beam="1">  1       -4 0.99314838E-01 0.13422707E+03</pdfrwt>
<totfact> 0.16743787E+04</totfact>
</mgrwt>
</event>
<event>
 6    3  0.3813045E-003  0.1267378E+03  0.7818608E-02  0.1232378E+00
         -4   -1    0    0    0  501 -0.00000000000E+00  0.00000000000E+00  0.33610453347E+03  0.33610693287E+03  0.12700000000E+01 0. -1.
         21   -1    0    0  501  502  0.00000000000E+00 -0.00000000000E+00 -0.16499886783E+02  0.16499886783E+02  0.00000000000E+00 0. -1.
         25    2    1    2    0    0  0.57939668598E+01  0.20114534740E+02  0.25638107741E+03  0.28599603094E+03  0.12499723317E+03 0.  0.
    9000005    1    3    3    0    0 -0.32393931464E+02  0.28072451647E+02  0.21629741237E+02  0.48023692519E+02  0.10000000000E+01 0.  0.
    9000005    1    3    3    0    0  0.38187898324E+02 -0.79579169063E+01  0.23475133617E+03  0.23797233842E+03  0.10000000000E+01 0.  0.
         -4    1    1    2    0  502 -0.57939668598E+01 -0.20114534740E+02  0.63223569280E+02  0.66610788708E+02  0.12700000000E+01 0.  1.
<mgrwt>
<rscale>  1 0.12673781E+03</rscale>
<asrwt>0</asrwt>
<pdfrwt beam="2">  1       21 0.25384444E-02 0.12673781E+03</pdfrwt>
<pdfrwt beam="1">  1       -4 0.51712329E-01 0.12673781E+03</pdfrwt>
<totfact> 0.11973627E+05</totfact>
</mgrwt>
</event>
<event>
 6    3  0.3813045E-003  0.1481276E+03  0.7818608E-02  0.1202793E+00
         21   -1    0    0  501  502  0.00000000000E+00  0.00000000000E+00  0.10055997764E+03  0.10055997764E+03  0.00000000000E+00 0.  1.
          4   -1    0    0  502    0 -0.00000000000E+00 -0.00000000000E+00 -0.19135140994E+03  0.19135562439E+03  0.12700000000E+01 0. -1.
         25    2    1    2    0    0  0.15819212058E+02 -0.77891292185E+02 -0.13546578290E+03  0.20073056285E+03  0.12499791862E+03 0.  0.
    9000005    1    3    3    0    0  0.64929515679E+02 -0.72172221073E+02 -0.75395827045E+02  0.12292356258E+03  0.10000000000E+01 0.  0.
    9000005    1    3    3    0    0 -0.49110303621E+02 -0.57190711117E+01 -0.60069955852E+02  0.77807000278E+02  0.10000000000E+01 0.  0.
          4    1    1    2  501    0 -0.15819212058E+02  0.77891292185E+02  0.44674350594E+02  0.91185039175E+02  0.12700000000E+01 0.  1.
<mgrwt>
<rscale>  1 0.14812758E+03</rscale>
<asrwt>0</asrwt>
<pdfrwt beam="1">  1       21 0.15470766E-01 0.14812758E+03</pdfrwt>
<pdfrwt beam="2">  1        4 0.29439620E-01 0.14812758E+03</pdfrwt>
<totfact> 0.16819077E+04</totfact>
</mgrwt>
</event>
<event>
 6    3  0.3813045E-003  0.1272682E+03  0.7818608E-02  0.1231567E+00
          4   -1    0    0  502    0 -0.00000000000E+00  0.00000000000E+00  0.60372580940E+02  0.60385937348E+02  0.12700000000E+01 0. -1.
         21   -1    0    0  501  502  0.00000000000E+00 -0.00000000000E+00 -0.10619242402E+03  0.10619242402E+03  0.00000000000E+00 0. -1.
         25    2    1    2    0    0 -0.39447435963E+01  0.23559490181E+02 -0.15878845109E+02  0.12825491112E+03  0.12500629554E+03 0.  0.
    9000005    1    3    3    0    0  0.14327106227E+02  0.62752414103E+02  0.24694999297E+02  0.68949071341E+02  0.10000000000E+01 0.  0.
    9000005    1    3    3    0    0 -0.18271849823E+02 -0.39192923922E+02 -0.40573844406E+02  0.59305839775E+02  0.10000000000E+01 0.  0.
          4    1    1    2  501    0  0.39447435963E+01 -0.23559490181E+02 -0.29940997969E+02  0.38323450249E+02  0.12700000000E+01 0.  1.
<mgrwt>
<rscale>  1 0.12726816E+03</rscale>
<asrwt>0</asrwt>
<pdfrwt beam="2">  1       21 0.16337296E-01 0.12726816E+03</pdfrwt>
<pdfrwt beam="1">  1        4 0.92897010E-02 0.12726816E+03</pdfrwt>
<totfact> 0.11520318E+05</totfact>
</mgrwt>
</event>
<event>
 6    3  0.3813045E-003  0.1274621E+03  0.7818608E-02  0.1231271E+00
          4   -1    0    0  502    0 -0.00000000000E+00  0.00000000000E+00  0.80045796919E+02  0.80055871142E+02  0.12700000000E+01 0.  1.
         21   -1    0    0  501  502  0.00000000000E+00 -0.00000000000E+00 -0.81074070958E+02  0.81074070958E+02  0.00000000000E+00 0.  1.
         25    2    1    2    0    0 -0.55019855407E+01 -0.24289341022E+02  0.19353705123E+02  0.12892308093E+03  0.12500540373E+03 0.  0.
    9000005    1    3    3    0    0  0.14990926883E+02  0.42550242251E+02 -0.19246356722E+02  0.49057856165E+02  0.10000000000E+01 0.  0.
    9000005    1    3    3    0    0 -0.20492912423E+02 -0.66839583273E+02  0.38600061845E+02  0.79865224761E+02  0.10000000000E+01 0.  0.
          4    1    1    2  501    0  0.55019855407E+01  0.24289341022E+02 -0.20381979162E+02  0.32206861175E+02  0.12700000000E+01 0. -1.
<mgrwt>
<rscale>  1 0.12746213E+03</rscale>
<asrwt>0</asrwt>
<pdfrwt beam="2">  1       21 0.12472934E-01 0.12746213E+03</pdfrwt>
<pdfrwt beam="1">  1        4 0.12316278E-01 0.12746213E+03</pdfrwt>
<totfact> 0.11607577E+05</totfact>
</mgrwt>
</event>
<event>
 6    3  0.3813045E-003  0.1380954E+03  0.7818608E-02  0.1215915E+00
         21   -1    0    0  501  502  0.00000000000E+00  0.00000000000E+00  0.78656671691E+02  0.78656671691E+02  0.00000000000E+00 0.  1.
          4   -1    0    0  502    0 -0.00000000000E+00 -0.00000000000E+00 -0.14585465752E+03  0.14586018655E+03  0.12700000000E+01 0. -1.
         25    2    1    2    0    0  0.45242704004E+02  0.37398484381E+02 -0.86218337425E+02  0.16280028369E+03  0.12499912705E+03 0.  0.
    9000005    1    3    3    0    0 -0.27350785788E+02 -0.14299426432E+02 -0.63827035472E+02  0.70904368953E+02  0.10000000000E+01 0.  0.
    9000005    1    3    3    0    0  0.72593489793E+02  0.51697910813E+02 -0.22391301953E+02  0.91895914740E+02  0.10000000000E+01 0.  0.
          4    1    1    2  501    0 -0.45242704004E+02 -0.37398484381E+02  0.19020351591E+02  0.61716574551E+02  0.12700000000E+01 0.  1.
<mgrwt>
<rscale>  1 0.13809537E+03</rscale>
<asrwt>0</asrwt>
<pdfrwt beam="1">  1       21 0.12101026E-01 0.13809537E+03</pdfrwt>
<pdfrwt beam="2">  1        4 0.22440392E-01 0.13809537E+03</pdfrwt>
<totfact> 0.42935836E+04</totfact>
</mgrwt>
</event>
<event>
 6    3  0.3813045E-003  0.1404007E+03  0.7818608E-02  0.1212791E+00
          4   -1    0    0  502    0 -0.00000000000E+00  0.00000000000E+00  0.78218045927E+02  0.78228355528E+02  0.12700000000E+01 0.  1.
         21   -1    0    0  501  502  0.00000000000E+00 -0.00000000000E+00 -0.14612202981E+03  0.14612202981E+03  0.00000000000E+00 0.  1.
         25    2    1    2    0    0  0.16327504327E+02 -0.61809620864E+02 -0.76407374531E+02  0.15984505856E+03  0.12500135694E+03 0.  0.
    9000005    1    3    3    0    0  0.45281763852E+01  0.26105145314E+02  0.16627722990E+02  0.31296392205E+02  0.10000000000E+01 0.  0.
    9000005    1    3    3    0    0  0.11799327942E+02 -0.87914766178E+02 -0.93035097521E+02  0.12854866636E+03  0.10000000000E+01 0.  0.
          4    1    1    2  501    0 -0.16327504327E+02  0.61809620864E+02  0.85033906527E+01  0.64505326768E+02  0.12700000000E+01 0. -1.
<mgrwt>
<rscale>  1 0.14040070E+03</rscale>
<asrwt>0</asrwt>
<pdfrwt beam="2">  1       21 0.22480312E-01 0.14040070E+03</pdfrwt>
<pdfrwt beam="1">  1        4 0.12034763E-01 0.14040070E+03</pdfrwt>
<totfact> 0.41780983E+04</totfact>
</mgrwt>
</event>
<event>
 6    3  0.3813045E-003  0.1268918E+03  0.7818608E-02  0.1232142E+00
         21   -1    0    0  501  502  0.00000000000E+00  0.00000000000E+00  0.66171942353E+01  0.66171942353E+01  0.00000000000E+00 0.  1.
          4   -1    0    0  502    0 -0.00000000000E+00 -0.00000000000E+00 -0.83579588830E+03  0.83579685318E+03  0.12700000000E+01 0.  1.
         25    2    1    2    0    0  0.17096526460E+00  0.21809881773E+02 -0.70908686838E+03  0.72035111420E+03  0.12500336252E+03 0.  0.
    9000005    1    3    3    0    0 -0.17110626655E+02 -0.35101212571E+02 -0.86288797388E+02  0.94718663542E+02  0.10000000000E+01 0.  0.
    9000005    1    3    3    0    0  0.17281591920E+02  0.56911094344E+02 -0.62279807100E+03  0.62563245066E+03  0.10000000000E+01 0.  0.
          4    1    1    2  501    0 -0.17096526460E+00 -0.21809881773E+02 -0.12009182568E+03  0.12206293322E+03  0.12700000000E+01 0. -1.
<mgrwt>
<rscale>  1 0.12689185E+03</rscale>
<asrwt>0</asrwt>
<pdfrwt beam="1">  1       21 0.10180299E-02 0.12689185E+03</pdfrwt>
<pdfrwt beam="2">  1        4 0.12859343E+00 0.12689185E+03</pdfrwt>
<totfact> 0.68179083E+04</totfact>
</mgrwt>
</event>
<event>
 6    3  0.3813045E-003  0.1276446E+03  0.7818608E-02  0.1230993E+00
         21   -1    0    0  501  502  0.00000000000E+00  0.00000000000E+00  0.15637888224E+03  0.15637888224E+03  0.00000000000E+00 0. -1.
         -4   -1    0    0    0  501 -0.00000000000E+00 -0.00000000000E+00 -0.23763441281E+03  0.23763780644E+03  0.12700000000E+01 0.  1.
         25    2    1    2    0    0 -0.19485985645E+02 -0.16984322192E+02 -0.21920468677E+03  0.25366087856E+03  0.12499990310E+03 0.  0.
    9000005    1    3    3    0    0  0.35942828318E+02  0.29613347006E+02 -0.13384439333E+03  0.14171859036E+03  0.10000000000E+01 0.  0.
    9000005    1    3    3    0    0 -0.55428813963E+02 -0.46597669198E+02 -0.85360293439E+02  0.11194228820E+03  0.10000000000E+01 0.  0.
         -4    1    1    2    0  502  0.19485985645E+02  0.16984322192E+02  0.13794915620E+03  0.14035581012E+03  0.12700000000E+01 0. -1.
<mgrwt>
<rscale>  1 0.12764461E+03</rscale>
<asrwt>0</asrwt>
<pdfrwt beam="1">  1       21 0.24058290E-01 0.12764461E+03</pdfrwt>
<pdfrwt beam="2">  1       -4 0.36559798E-01 0.12764461E+03</pdfrwt>
<totfact> 0.48597168E+03</totfact>
</mgrwt>
</event>
<event>
 6    3  0.3813045E-003  0.1704837E+03  0.7818608E-02  0.1177344E+00
         21   -1    0    0  501  502  0.00000000000E+00  0.00000000000E+00  0.29474960867E+02  0.29474960867E+02  0.00000000000E+00 0.  1.
          4   -1    0    0  502    0 -0.00000000000E+00 -0.00000000000E+00 -0.77201473066E+03  0.77201577526E+03  0.12700000000E+01 0. -1.
         25    2    1    2    0    0  0.69634340064E+02  0.92693901963E+02 -0.55880328219E+03  0.58423095947E+03  0.12499442004E+03 0.  0.
    9000005    1    3    3    0    0  0.88021539104E+02  0.92473537546E+02 -0.31724252271E+03  0.34196924526E+03  0.10000000000E+01 0.  0.
    9000005    1    3    3    0    0 -0.18387199040E+02  0.22036441763E+00 -0.24156075948E+03  0.24226171421E+03  0.10000000000E+01 0.  0.
          4    1    1    2  501    0 -0.69634340064E+02 -0.92693901963E+02 -0.18373648761E+03  0.21725977666E+03  0.12700000000E+01 0.  1.
<mgrwt>
<rscale>  1 0.17048374E+03</rscale>
<asrwt>0</asrwt>
<pdfrwt beam="1">  1       21 0.45346090E-02 0.17048374E+03</pdfrwt>
<pdfrwt beam="2">  1        4 0.11877369E+00 0.17048374E+03</pdfrwt>
<totfact> 0.75248829E+03</totfact>
</mgrwt>
</event>
<event>
 6    3  0.3813045E-003  0.1305484E+03  0.7818608E-02  0.1226644E+00
         21   -1    0    0  501  502  0.00000000000E+00  0.00000000000E+00  0.13027011854E+03  0.13027011854E+03  0.00000000000E+00 0.  1.
         -4   -1    0    0    0  501 -0.00000000000E+00 -0.00000000000E+00 -0.94561975875E+02  0.94570503760E+02  0.12700000000E+01 0.  1.
         25    2    1    2    0    0 -0.10761842319E+02 -0.36082119594E+02 -0.43109288926E+02  0.13748195343E+03  0.12500056049E+03 0.  0.
    9000005    1    3    3    0    0 -0.61705804829E+02  0.91819070908E+01 -0.20655275372E+02  0.65723315255E+02  0.10000000000E+01 0.  0.
    9000005    1    3    3    0    0  0.50943962510E+02 -0.45264026685E+02 -0.22454013554E+02  0.71758638174E+02  0.10000000000E+01 0.  0.
         -4    1    1    2    0  502  0.10761842319E+02  0.36082119594E+02  0.78817431591E+02  0.87358668872E+02  0.12700000000E+01 0. -1.
<mgrwt>
<rscale>  1 0.13054837E+03</rscale>
<asrwt>0</asrwt>
<pdfrwt beam="1">  1       21 0.20041557E-01 0.13054837E+03</pdfrwt>
<pdfrwt beam="2">  1       -4 0.14549128E-01 0.13054837E+03</pdfrwt>
<totfact> 0.36997232E+04</totfact>
</mgrwt>
</event>
<event>
 6    3  0.3813045E-003  0.1293403E+03  0.7818608E-02  0.1228438E+00
         21   -1    0    0  501  502  0.00000000000E+00  0.00000000000E+00  0.21970954385E+03  0.21970954385E+03  0.00000000000E+00 0.  1.
          4   -1    0    0  502    0 -0.00000000000E+00 -0.00000000000E+00 -0.30777373335E+02  0.30803564881E+02  0.12700000000E+01 0.  1.
         25    2    1    2    0    0 -0.60687037102E+01  0.32665741522E+02  0.13353912620E+03  0.18590752002E+03  0.12500011176E+03 0.  0.
    9000005    1    3    3    0    0 -0.45522021042E+02 -0.30337535423E+02  0.62728990294E+02  0.83237892084E+02  0.10000000000E+01 0.  0.
    9000005    1    3    3    0    0  0.39453317332E+02  0.63003276945E+02  0.70810135908E+02  0.10266962794E+03  0.10000000000E+01 0.  0.
          4    1    1    2  501    0  0.60687037102E+01 -0.32665741522E+02  0.55393044314E+02  0.64605588708E+02  0.12700000000E+01 0. -1.
<mgrwt>
<rscale>  1 0.12934028E+03</rscale>
<asrwt>0</asrwt>
<pdfrwt beam="1">  1       21 0.33801467E-01 0.12934028E+03</pdfrwt>
<pdfrwt beam="2">  1        4 0.47372778E-02 0.12934028E+03</pdfrwt>
<totfact> 0.88474699E+04</totfact>
</mgrwt>
</event>
<event>
 6    3  0.3813045E-003  0.1288194E+03  0.7818608E-02  0.1229218E+00
          4   -1    0    0  502    0 -0.00000000000E+00  0.00000000000E+00  0.13155408629E+03  0.13156021633E+03  0.12700000000E+01 0. -1.
         21   -1    0    0  501  502  0.00000000000E+00 -0.00000000000E+00 -0.52573419372E+02  0.52573419372E+02  0.00000000000E+00 0. -1.
         25    2    1    2    0    0  0.30535687650E+01 -0.30975950145E+02  0.82206992102E+02  0.15281501753E+03  0.12500242503E+03 0.  0.
    9000005    1    3    3    0    0 -0.54560641855E+02  0.96147650647E+01  0.20324367968E+02  0.59020227720E+02  0.10000000000E+01 0.  0.
    9000005    1    3    3    0    0  0.57614210620E+02 -0.40590715210E+02  0.61882624134E+02  0.93794789814E+02  0.10000000000E+01 0.  0.
          4    1    1    2  501    0 -0.30535687650E+01  0.30975950145E+02 -0.32263251822E+01  0.31318618165E+02  0.12700000000E+01 0.  1.
<mgrwt>
<rscale>  1 0.12881941E+03</rscale>
<asrwt>0</asrwt>
<pdfrwt beam="2">  1       21 0.80882184E-02 0.12881941E+03</pdfrwt>
<pdfrwt beam="1">  1        4 0.20240742E-01 0.12881941E+03</pdfrwt>
<totfact> 0.10380900E+05</totfact>
</mgrwt>
</event>
<event>
 6    3  0.3813045E-003  0.1290076E+03  0.7818608E-02  0.1228936E+00
         -4   -1    0    0    0  501 -0.00000000000E+00  0.00000000000E+00  0.11483317791E+03  0.11484020049E+03  0.12700000000E+01 0.  1.
         21   -1    0    0  501  502  0.00000000000E+00 -0.00000000000E+00 -0.90232991523E+02  0.90232991523E+02  0.00000000000E+00 0. -1.
         25    2    1    2    0    0  0.27335009717E+02 -0.16463028703E+02  0.72136342218E+02  0.14780598428E+03  0.12499889220E+03 0.  0.
    9000005    1    3    3    0    0  0.16540598342E+02  0.53578722630E+02  0.18964790804E+02  0.59202484765E+02  0.10000000000E+01 0.  0.
    9000005    1    3    3    0    0  0.10794411375E+02 -0.70041751333E+02  0.53171551413E+02  0.88603499515E+02  0.10000000000E+01 0.  0.
         -4    1    1    2    0  502 -0.27335009717E+02  0.16463028703E+02 -0.47536155832E+02  0.57267207733E+02  0.12700000000E+01 0. -1.
<mgrwt>
<rscale>  1 0.12900759E+03</rscale>
<asrwt>0</asrwt>
<pdfrwt beam="2">  1       21 0.13881999E-01 0.12900759E+03</pdfrwt>
<pdfrwt beam="1">  1       -4 0.17667870E-01 0.12900759E+03</pdfrwt>
<totfact> 0.51240430E+04</totfact>
</mgrwt>
</event>
<event>
 6    3  0.3813045E-003  0.1327349E+03  0.7818608E-02  0.1223453E+00
         -4   -1    0    0    0  501 -0.00000000000E+00  0.00000000000E+00  0.47298774716E+03  0.47298945217E+03  0.12700000000E+01 0.  1.
         21   -1    0    0  501  502  0.00000000000E+00 -0.00000000000E+00 -0.38224762259E+02  0.38224762259E+02  0.00000000000E+00 0. -1.
         25    2    1    2    0    0  0.10058475073E+02 -0.43506395945E+02  0.44584826170E+03  0.46518731284E+03  0.12499833659E+03 0.  0.
    9000005    1    3    3    0    0  0.22837588146E+02 -0.82162645142E+02  0.22510792246E+03  0.24072148313E+03  0.10000000000E+01 0.  0.
    9000005    1    3    3    0    0 -0.12779113073E+02  0.38656249198E+02  0.22074033925E+03  0.22446582970E+03  0.10000000000E+01 0.  0.
         -4    1    1    2    0  502 -0.10058475073E+02  0.43506395945E+02 -0.11085276800E+02  0.46026901597E+02  0.12700000000E+01 0. -1.
<mgrwt>
<rscale>  1 0.13273494E+03</rscale>
<asrwt>0</asrwt>
<pdfrwt beam="2">  1       21 0.58807330E-02 0.13273494E+03</pdfrwt>
<pdfrwt beam="1">  1       -4 0.72769096E-01 0.13273494E+03</pdfrwt>
<totfact> 0.14546218E+04</totfact>
</mgrwt>
</event>
<event>
 6    3  0.3813045E-003  0.1347042E+03  0.7818608E-02  0.1220638E+00
          4   -1    0    0  502    0 -0.00000000000E+00  0.00000000000E+00  0.13441631056E+03  0.13442231007E+03  0.12700000000E+01 0. -1.
         21   -1    0    0  501  502  0.00000000000E+00 -0.00000000000E+00 -0.98998462540E+02  0.98998462540E+02  0.00000000000E+00 0.  1.
         25    2    1    2    0    0 -0.28065235243E+02  0.41618590633E+02  0.87852554959E+02  0.16082066305E+03  0.12500179893E+03 0.  0.
    9000005    1    3    3    0    0 -0.35936590514E+02 -0.32399297180E+02  0.38037063074E+01  0.48545042767E+02  0.10000000000E+01 0.  0.
    9000005    1    3    3    0    0  0.78713552709E+01  0.74017887813E+02  0.84048848652E+02  0.11227562028E+03  0.10000000000E+01 0.  0.
          4    1    1    2  501    0  0.28065235243E+02 -0.41618590633E+02 -0.52434706943E+02  0.72600109558E+02  0.12700000000E+01 0.  1.
<mgrwt>
<rscale>  1 0.13470417E+03</rscale>
<asrwt>0</asrwt>
<pdfrwt beam="2">  1       21 0.15230533E-01 0.13470417E+03</pdfrwt>
<pdfrwt beam="1">  1        4 0.20680521E-01 0.13470417E+03</pdfrwt>
<totfact> 0.32888824E+04</totfact>
</mgrwt>
</event>
<event>
 6    3  0.3813045E-003  0.1275309E+03  0.7818608E-02  0.1231166E+00
         -4   -1    0    0    0  501 -0.00000000000E+00  0.00000000000E+00  0.21412328613E+03  0.21412705239E+03  0.12700000000E+01 0.  1.
         21   -1    0    0  501  502  0.00000000000E+00 -0.00000000000E+00 -0.44045995138E+02  0.44045995138E+02  0.00000000000E+00 0.  1.
         25    2    1    2    0    0  0.14892156064E+02 -0.20430551325E+02  0.18798747128E+03  0.22716383603E+03  0.12499974120E+03 0.  0.
    9000005    1    3    3    0    0 -0.31979499819E+02 -0.56922742708E+02  0.74501933824E+02  0.99067780784E+02  0.10000000000E+01 0.  0.
    9000005    1    3    3    0    0  0.46871655883E+02  0.36492191383E+02  0.11348553746E+03  0.12809605524E+03  0.10000000000E+01 0.  0.
         -4    1    1    2    0  502 -0.14892156064E+02  0.20430551325E+02 -0.17910180287E+02  0.31009211496E+02  0.12700000000E+01 0. -1.
<mgrwt>
<rscale>  1 0.12753086E+03</rscale>
<asrwt>0</asrwt>
<pdfrwt beam="2">  1       21 0.67763071E-02 0.12753086E+03</pdfrwt>
<pdfrwt beam="1">  1       -4 0.32943741E-01 0.12753086E+03</pdfrwt>
<totfact> 0.56960077E+04</totfact>
</mgrwt>
</event>
<event>
 6    3  0.3813045E-003  0.1274146E+03  0.7818608E-02  0.1231343E+00
         21   -1    0    0  501  502  0.00000000000E+00  0.00000000000E+00  0.62010525986E+01  0.62010525986E+01  0.00000000000E+00 0.  1.
          4   -1    0    0  502    0 -0.00000000000E+00 -0.00000000000E+00 -0.12076016939E+04  0.12076023617E+04  0.12700000000E+01 0. -1.
         25    2    1    2    0    0  0.11982879011E+02 -0.21577891301E+02 -0.11469605672E+04  0.11540160465E+04  0.12500119226E+03 0.  0.
    9000005    1    3    3    0    0  0.42340441778E+02 -0.57357701815E+02 -0.88634326437E+03  0.88920638845E+03  0.10000000000E+01 0.  0.
    9000005    1    3    3    0    0 -0.30357562767E+02  0.35779810514E+02 -0.26061730286E+03  0.26480965808E+03  0.10000000000E+01 0.  0.
          4    1    1    2  501    0 -0.11982879011E+02  0.21577891301E+02 -0.54440074092E+02  0.59787367809E+02  0.12700000000E+01 0.  1.
<mgrwt>
<rscale>  1 0.12741465E+03</rscale>
<asrwt>0</asrwt>
<pdfrwt beam="1">  1       21 0.95400716E-03 0.12741465E+03</pdfrwt>
<pdfrwt beam="2">  1        4 0.18579511E+00 0.12741465E+03</pdfrwt>
<totfact> 0.29275424E+04</totfact>
</mgrwt>
</event>
<event>
 6    3  0.3813045E-003  0.1326817E+03  0.7818608E-02  0.1223530E+00
         -4   -1    0    0    0  501 -0.00000000000E+00  0.00000000000E+00  0.11706071674E+04  0.11706078563E+04  0.12700000000E+01 0.  1.
         21   -1    0    0  501  502  0.00000000000E+00 -0.00000000000E+00 -0.16862597368E+02  0.16862597368E+02  0.00000000000E+00 0. -1.
         25    2    1    2    0    0  0.37282956498E+02  0.24467037435E+02  0.11283751626E+04  0.11361491667E+04  0.12496306126E+03 0.  0.
    9000005    1    3    3    0    0  0.24721513180E+02 -0.41735556134E+02  0.22043062953E+03  0.22570704972E+03  0.10000000000E+01 0.  0.
    9000005    1    3    3    0    0  0.12561443318E+02  0.66202593570E+02  0.90794453303E+03  0.91044211694E+03  0.10000000000E+01 0.  0.
         -4    1    1    2    0  502 -0.37282956498E+02 -0.24467037435E+02  0.25369407493E+02  0.51321287032E+02  0.12700000000E+01 0. -1.
<mgrwt>
<rscale>  1 0.13268165E+03</rscale>
<asrwt>0</asrwt>
<pdfrwt beam="2">  1       21 0.25942467E-02 0.13268165E+03</pdfrwt>
<pdfrwt beam="1">  1       -4 0.18009708E+00 0.13268165E+03</pdfrwt>
<totfact> 0.64534427E+03</totfact>
</mgrwt>
</event>
<event>
 6    3  0.3813045E-003  0.1309085E+03  0.7818608E-02  0.1226114E+00
         -4   -1    0    0    0  501 -0.00000000000E+00  0.00000000000E+00  0.27154758047E+02  0.27184440119E+02  0.12700000000E+01 0. -1.
         21   -1    0    0  501  502  0.00000000000E+00 -0.00000000000E+00 -0.29109408790E+03  0.29109408790E+03  0.00000000000E+00 0. -1.
         25    2    1    2    0    0 -0.32603063130E+02 -0.21192439088E+02 -0.15662032717E+03  0.20412485775E+03  0.12499980587E+03 0.  0.
    9000005    1    3    3    0    0  0.21098211818E+02 -0.58511224868E+02 -0.99207758423E+02  0.11709772546E+03  0.10000000000E+01 0.  0.
    9000005    1    3    3    0    0 -0.53701274948E+02  0.37318785780E+02 -0.57412568748E+02  0.87027132283E+02  0.10000000000E+01 0.  0.
         -4    1    1    2    0  502  0.32603063130E+02  0.21192439088E+02 -0.10731900269E+03  0.11415367028E+03  0.12700000000E+01 0.  1.
<mgrwt>
<rscale>  1 0.13090848E+03</rscale>
<asrwt>0</asrwt>
<pdfrwt beam="2">  1       21 0.44783710E-01 0.13090848E+03</pdfrwt>
<pdfrwt beam="1">  1       -4 0.41801511E-02 0.13090848E+03</pdfrwt>
<totfact> 0.61762288E+04</totfact>
</mgrwt>
</event>
<event>
 6    3  0.3813045E-003  0.1275734E+03  0.7818608E-02  0.1231101E+00
         21   -1    0    0  501  502  0.00000000000E+00  0.00000000000E+00  0.33001476511E+02  0.33001476511E+02  0.00000000000E+00 0. -1.
         -4   -1    0    0    0  501 -0.00000000000E+00 -0.00000000000E+00 -0.96201109105E+03  0.96201192934E+03  0.12700000000E+01 0.  1.
         25    2    1    2    0    0  0.20199997627E+01  0.25393145933E+02 -0.95210001135E+03  0.96060887731E+03  0.12500436514E+03 0.  0.
    9000005    1    3    3    0    0 -0.46365577224E+02  0.76441928152E+01 -0.15813750135E+03  0.16497475494E+03  0.10000000000E+01 0.  0.
    9000005    1    3    3    0    0  0.48385576987E+02  0.17748953118E+02 -0.79396251000E+03  0.79563412237E+03  0.10000000000E+01 0.  0.
         -4    1    1    2    0  502 -0.20199997627E+01 -0.25393145933E+02  0.23090396810E+02  0.34404528543E+02  0.12700000000E+01 0. -1.
<mgrwt>
<rscale>  1 0.12757344E+03</rscale>
<asrwt>0</asrwt>
<pdfrwt beam="1">  1       21 0.50771495E-02 0.12757344E+03</pdfrwt>
<pdfrwt beam="2">  1       -4 0.14800367E+00 0.12757344E+03</pdfrwt>
<totfact> 0.35432332E+03</totfact>
</mgrwt>
</event>
<event>
 6    3  0.3813045E-003  0.1324687E+03  0.7818608E-02  0.1223838E+00
          4   -1    0    0  502    0 -0.00000000000E+00  0.00000000000E+00  0.12585359192E+04  0.12585365600E+04  0.12700000000E+01 0. -1.
         21   -1    0    0  501  502  0.00000000000E+00 -0.00000000000E+00 -0.10898069813E+02  0.10898069813E+02  0.00000000000E+00 0.  1.
         25    2    1    2    0    0 -0.39001647046E+02 -0.20017389891E+02  0.11882340112E+04  0.11955952550E+04  0.12500449678E+03 0.  0.
    9000005    1    3    3    0    0  0.62148385801E+01 -0.63569354403E+02  0.42384622085E+03  0.42863306681E+03  0.10000000000E+01 0.  0.
    9000005    1    3    3    0    0 -0.45216485626E+02  0.43551964512E+02  0.76438779032E+03  0.76696218823E+03  0.10000000000E+01 0.  0.
          4    1    1    2  501    0  0.39001647046E+02  0.20017389891E+02  0.59403838268E+02  0.73839374803E+02  0.12700000000E+01 0.  1.
<mgrwt>
<rscale>  1 0.13246867E+03</rscale>
<asrwt>0</asrwt>
<pdfrwt beam="2">  1       21 0.16766271E-02 0.13246867E+03</pdfrwt>
<pdfrwt beam="1">  1        4 0.19362654E+00 0.13246867E+03</pdfrwt>
<totfact> 0.10699978E+04</totfact>
</mgrwt>
</event>
<event>
 6    3  0.3813045E-003  0.1302066E+03  0.7818608E-02  0.1227150E+00
         -4   -1    0    0    0  501 -0.00000000000E+00  0.00000000000E+00  0.19261926455E+03  0.19262345126E+03  0.12700000000E+01 0. -1.
         21   -1    0    0  501  502  0.00000000000E+00 -0.00000000000E+00 -0.36132319922E+02  0.36132319922E+02  0.00000000000E+00 0. -1.
         25    2    1    2    0    0 -0.20507150964E+02  0.30125152346E+02  0.12660721671E+03  0.18161259474E+03  0.12500271677E+03 0.  0.
    9000005    1    3    3    0    0 -0.46423638794E+02 -0.15937217800E+02  0.54122394046E+01  0.49390702419E+02  0.10000000000E+01 0.  0.
    9000005    1    3    3    0    0  0.25916487830E+02  0.46062370146E+02  0.12119497731E+03  0.13222189233E+03  0.10000000000E+01 0.  0.
         -4    1    1    2    0  502  0.20507150964E+02 -0.30125152346E+02  0.29879727912E+02  0.47143176437E+02  0.12700000000E+01 0.  1.
<mgrwt>
<rscale>  1 0.13020656E+03</rscale>
<asrwt>0</asrwt>
<pdfrwt beam="2">  1       21 0.55588186E-02 0.13020656E+03</pdfrwt>
<pdfrwt beam="1">  1       -4 0.29635771E-01 0.13020656E+03</pdfrwt>
<totfact> 0.97747044E+04</totfact>
</mgrwt>
</event>
<event>
 6    3  0.3813045E-003  0.1266127E+03  0.7818608E-02  0.1232570E+00
         -4   -1    0    0    0  501 -0.00000000000E+00  0.00000000000E+00  0.46661130540E+02  0.46678410462E+02  0.12700000000E+01 0.  1.
         21   -1    0    0  501  502  0.00000000000E+00 -0.00000000000E+00 -0.12383343184E+03  0.12383343184E+03  0.00000000000E+00 0. -1.
         25    2    1    2    0    0  0.16906527035E+02 -0.11022131311E+02 -0.48846393938E+02  0.13570827980E+03  0.12499379573E+03 0.  0.
    9000005    1    3    3    0    0  0.71488224096E+01 -0.37535839808E+02 -0.82996398164E+02  0.91375308701E+02  0.10000000000E+01 0.  0.
    9000005    1    3    3    0    0  0.97577046253E+01  0.26513708497E+02  0.34150004226E+02  0.44332971099E+02  0.10000000000E+01 0.  0.
         -4    1    1    2    0  502 -0.16906527035E+02  0.11022131311E+02 -0.28325907361E+02  0.34803562502E+02  0.12700000000E+01 0. -1.
<mgrwt>
<rscale>  1 0.12661267E+03</rscale>
<asrwt>0</asrwt>
<pdfrwt beam="2">  1       21 0.19051297E-01 0.12661267E+03</pdfrwt>
<pdfrwt beam="1">  1       -4 0.71804657E-02 0.12661267E+03</pdfrwt>
<totfact> 0.13321618E+05</totfact>
</mgrwt>
</event>
<event>
 6    3  0.3813045E-003  0.1267267E+03  0.7818608E-02  0.1232395E+00
         21   -1    0    0  501  502  0.00000000000E+00  0.00000000000E+00  0.79529949397E+02  0.79529949397E+02  0.00000000000E+00 0. -1.
         -4   -1    0    0    0  501 -0.00000000000E+00 -0.00000000000E+00 -0.12788157788E+03  0.12788788395E+03  0.12700000000E+01 0.  1.
         25    2    1    2    0    0 -0.13691449650E+02  0.15785483003E+02 -0.93610496695E+02  0.15755185978E+03  0.12499210440E+03 0.  0.
    9000005    1    3    3    0    0 -0.19305539908E+01 -0.39058943251E+02  0.94204691522E+01  0.40237710244E+02  0.10000000000E+01 0.  0.
    9000005    1    3    3    0    0 -0.11760895659E+02  0.54844426254E+02 -0.10303096585E+03  0.11731414954E+03  0.10000000000E+01 0.  0.
         -4    1    1    2    0  502  0.13691449650E+02 -0.15785483003E+02  0.45258868216E+02  0.49865973563E+02  0.12700000000E+01 0. -1.
<mgrwt>
<rscale>  1 0.12672673E+03</rscale>
<asrwt>0</asrwt>
<pdfrwt beam="1">  1       21 0.12235377E-01 0.12672673E+03</pdfrwt>
<pdfrwt beam="2">  1       -4 0.19675354E-01 0.12672673E+03</pdfrwt>
<totfact> 0.52849105E+04</totfact>
</mgrwt>
</event>
<event>
 6    3  0.3813045E-003  0.1731046E+03  0.7818608E-02  0.1174648E+00
          4   -1    0    0  502    0 -0.00000000000E+00  0.00000000000E+00  0.19774095227E+03  0.19774503054E+03  0.12700000000E+01 0. -1.
         21   -1    0    0  501  502  0.00000000000E+00 -0.00000000000E+00 -0.15886348172E+03  0.15886348172E+03  0.00000000000E+00 0.  1.
         25    2    1    2    0    0  0.11602116964E+03 -0.29629551815E+02  0.12117691345E+03  0.21130320146E+03  0.12500550567E+03 0.  0.
    9000005    1    3    3    0    0  0.11219588365E+03  0.20468212234E+02  0.50869014897E+02  0.12488202712E+03  0.10000000000E+01 0.  0.
    9000005    1    3    3    0    0  0.38252859867E+01 -0.50097764049E+02  0.70307898552E+02  0.86421174340E+02  0.10000000000E+01 0.  0.
          4    1    1    2  501    0 -0.11602116964E+03  0.29629551815E+02 -0.82299442900E+02  0.14530531080E+03  0.12700000000E+01 0.  1.
<mgrwt>
<rscale>  1 0.17310459E+03</rscale>
<asrwt>0</asrwt>
<pdfrwt beam="2">  1       21 0.24440536E-01 0.17310459E+03</pdfrwt>
<pdfrwt beam="1">  1        4 0.30422389E-01 0.17310459E+03</pdfrwt>
<totfact> 0.68446318E+03</totfact>
</mgrwt>
</event>
<event>
 6    3  0.3813045E-003  0.1291743E+03  0.7818608E-02  0.1228686E+00
         21   -1    0    0  501  502  0.00000000000E+00  0.00000000000E+00  0.99117177379E+02  0.99117177379E+02  0.00000000000E+00 0. -1.
          4   -1    0    0  502    0 -0.00000000000E+00 -0.00000000000E+00 -0.66039029186E+02  0.66051239775E+02  0.12700000000E+01 0. -1.
         25    2    1    2    0    0  0.56114778435E+01 -0.32093448357E+02  0.24880978884E+02  0.13154871169E+03  0.12499808929E+03 0.  0.
    9000005    1    3    3    0    0 -0.15193777846E+02  0.19218208673E+02 -0.39584536483E+02  0.46563139482E+02  0.10000000000E+01 0.  0.
    9000005    1    3    3    0    0  0.20805255689E+02 -0.51311657030E+02  0.64465515367E+02  0.84985572205E+02  0.10000000000E+01 0.  0.
          4    1    1    2  501    0 -0.56114778435E+01  0.32093448357E+02  0.81971693093E+01  0.33619705468E+02  0.12700000000E+01 0.  1.
<mgrwt>
<rscale>  1 0.12917430E+03</rscale>
<asrwt>0</asrwt>
<pdfrwt beam="1">  1       21 0.15248796E-01 0.12917430E+03</pdfrwt>
<pdfrwt beam="2">  1        4 0.10161416E-01 0.12917430E+03</pdfrwt>
<totfact> 0.11250501E+05</totfact>
</mgrwt>
</event>
<event>
 6    3  0.3813045E-003  0.1332020E+03  0.7818608E-02  0.1222780E+00
         21   -1    0    0  501  502  0.00000000000E+00  0.00000000000E+00  0.29226272882E+02  0.29226272882E+02  0.00000000000E+00 0.  1.
          4   -1    0    0  502    0 -0.00000000000E+00 -0.00000000000E+00 -0.27473989558E+03  0.27474283089E+03  0.12700000000E+01 0.  1.
         25    2    1    2    0    0  0.23214943716E+02 -0.39713508167E+02 -0.18208230684E+03  0.22560303283E+03  0.12500666228E+03 0.  0.
    9000005    1    3    3    0    0  0.41085498406E+02 -0.10565459566E+02 -0.18636161384E+03  0.19113162540E+03  0.10000000000E+01 0.  0.
    9000005    1    3    3    0    0 -0.17870554690E+02 -0.29148048602E+02  0.42793069937E+01  0.34471407435E+02  0.10000000000E+01 0.  0.
          4    1    1    2  501    0 -0.23214943716E+02  0.39713508167E+02 -0.63431315854E+02  0.78366070934E+02  0.12700000000E+01 0. -1.
<mgrwt>
<rscale>  1 0.13320196E+03</rscale>
<asrwt>0</asrwt>
<pdfrwt beam="1">  1       21 0.44963496E-02 0.13320196E+03</pdfrwt>
<pdfrwt beam="2">  1        4 0.42270025E-01 0.13320196E+03</pdfrwt>
<totfact> 0.70511959E+04</totfact>
</mgrwt>
</event>
<event>
 6    3  0.3813045E-003  0.1268020E+03  0.7818608E-02  0.1232280E+00
          4   -1    0    0  502    0 -0.00000000000E+00  0.00000000000E+00  0.31885000646E+02  0.31910283079E+02  0.12700000000E+01 0. -1.
         21   -1    0    0  501  502  0.00000000000E+00 -0.00000000000E+00 -0.19081161664E+03  0.19081161664E+03  0.00000000000E+00 0.  1.
         25    2    1    2    0    0  0.16716356639E+02 -0.13196851487E+02 -0.10467274363E+03  0.16442362329E+03  0.12500060467E+03 0.  0.
    9000005    1    3    3    0    0  0.35415504254E+02 -0.32450533107E+02  0.79011909212E+01  0.48690079672E+02  0.10000000000E+01 0.  0.
    9000005    1    3    3    0    0 -0.18699147615E+02  0.19253681620E+02 -0.11257393455E+03  0.11573354362E+03  0.10000000000E+01 0.  0.
          4    1    1    2  501    0 -0.16716356639E+02  0.13196851487E+02 -0.54253872367E+02  0.58298276435E+02  0.12700000000E+01 0.  1.
<mgrwt>
<rscale>  1 0.12680199E+03</rscale>
<asrwt>0</asrwt>
<pdfrwt beam="2">  1       21 0.29355633E-01 0.12680199E+03</pdfrwt>
<pdfrwt beam="1">  1        4 0.49076546E-02 0.12680199E+03</pdfrwt>
<totfact> 0.10961736E+05</totfact>
</mgrwt>
</event>
<event>
 6    3  0.3813045E-003  0.1297325E+03  0.7818608E-02  0.1227853E+00
         21   -1    0    0  501  502  0.00000000000E+00  0.00000000000E+00  0.32779916948E+02  0.32779916948E+02  0.00000000000E+00 0.  1.
          4   -1    0    0  502    0 -0.00000000000E+00 -0.00000000000E+00 -0.21779491487E+03  0.21779861763E+03  0.12700000000E+01 0.  1.
         25    2    1    2    0    0 -0.30299842328E+02  0.16945967928E+02 -0.16692555246E+03  0.21141110920E+03  0.12500108301E+03 0.  0.
    9000005    1    3    3    0    0  0.19331594695E+01 -0.45325288816E+02 -0.11653434893E+03  0.12505748035E+03  0.10000000000E+01 0.  0.
    9000005    1    3    3    0    0 -0.32233001797E+02  0.62271256745E+02 -0.50391203533E+02  0.86353628846E+02  0.10000000000E+01 0.  0.
          4    1    1    2  501    0  0.30299842328E+02 -0.16945967928E+02 -0.18089445463E+02  0.39167425385E+02  0.12700000000E+01 0. -1.
<mgrwt>
<rscale>  1 0.12973248E+03</rscale>
<asrwt>0</asrwt>
<pdfrwt beam="1">  1       21 0.50430643E-02 0.12973248E+03</pdfrwt>
<pdfrwt beam="2">  1        4 0.33509086E-01 0.12973248E+03</pdfrwt>
<totfact> 0.91142481E+04</totfact>
</mgrwt>
</event>
<event>
 6    3  0.3813045E-003  0.1283975E+03  0.7818608E-02  0.1229853E+00
          4   -1    0    0  502    0 -0.00000000000E+00  0.00000000000E+00  0.24398767593E+03  0.24399098119E+03  0.12700000000E+01 0.  1.
         21   -1    0    0  501  502  0.00000000000E+00 -0.00000000000E+00 -0.26507977693E+02  0.26507977693E+02  0.00000000000E+00 0.  1.
         25    2    1    2    0    0 -0.29003154093E+02  0.42937483677E+01  0.15357483524E+03  0.20017781245E+03  0.12500522931E+03 0.  0.
    9000005    1    3    3    0    0 -0.30312711230E+02 -0.47158715136E+02  0.24448334949E+02  0.61168014168E+02  0.10000000000E+01 0.  0.
    9000005    1    3    3    0    0  0.13095571367E+01  0.51452463504E+02  0.12912650029E+03  0.13900979828E+03  0.10000000000E+01 0.  0.
          4    1    1    2  501    0  0.29003154093E+02 -0.42937483677E+01  0.63904862990E+02  0.70321146437E+02  0.12700000000E+01 0. -1.
<mgrwt>
<rscale>  1 0.12839753E+03</rscale>
<asrwt>0</asrwt>
<pdfrwt beam="2">  1       21 0.40781506E-02 0.12839753E+03</pdfrwt>
<pdfrwt beam="1">  1        4 0.37539158E-01 0.12839753E+03</pdfrwt>
<totfact> 0.10421948E+05</totfact>
</mgrwt>
</event>
<event>
 6    3  0.3813045E-003  0.1273929E+03  0.7818608E-02  0.1231376E+00
          4   -1    0    0  502    0 -0.00000000000E+00  0.00000000000E+00  0.59077542872E+02  0.59091191998E+02  0.12700000000E+01 0.  1.
         21   -1    0    0  501  502  0.00000000000E+00 -0.00000000000E+00 -0.98159062197E+02  0.98159062197E+02  0.00000000000E+00 0.  1.
         25    2    1    2    0    0  0.79293919851E+01 -0.23276666706E+02 -0.29055985055E+02  0.13066449283E+03  0.12499712376E+03 0.  0.
    9000005    1    3    3    0    0  0.62890977368E+02  0.42138904550E+01 -0.86423669891E+00  0.63045846906E+02  0.10000000000E+01 0.  0.
    9000005    1    3    3    0    0 -0.54961585382E+02 -0.27490557161E+02 -0.28191748356E+02  0.67618645921E+02  0.10000000000E+01 0.  0.
          4    1    1    2  501    0 -0.79293919851E+01  0.23276666706E+02 -0.10025534270E+02  0.26585761369E+02  0.12700000000E+01 0. -1.
<mgrwt>
<rscale>  1 0.12739293E+03</rscale>
<asrwt>0</asrwt>
<pdfrwt beam="2">  1       21 0.15101394E-01 0.12739293E+03</pdfrwt>
<pdfrwt beam="1">  1        4 0.90905348E-02 0.12739293E+03</pdfrwt>
<totfact> 0.13773897E+05</totfact>
</mgrwt>
</event>
<event>
 6    3  0.3813045E-003  0.1300789E+03  0.7818608E-02  0.1227339E+00
         -4   -1    0    0    0  501 -0.00000000000E+00  0.00000000000E+00  0.28628811038E+03  0.28629092729E+03  0.12700000000E+01 0.  1.
         21   -1    0    0  501  502  0.00000000000E+00 -0.00000000000E+00 -0.35410136014E+02  0.35410136014E+02  0.00000000000E+00 0.  1.
         25    2    1    2    0    0  0.35995749612E+02 -0.31445986118E+00  0.25417943078E+03  0.28553055889E+03  0.12499889660E+03 0.  0.
    9000005    1    3    3    0    0  0.42781527541E+02  0.56832706538E+02  0.16084387920E+03  0.17587486775E+03  0.10000000000E+01 0.  0.
    9000005    1    3    3    0    0 -0.67857779292E+01 -0.57147166399E+02  0.93335551583E+02  0.10965569114E+03  0.10000000000E+01 0.  0.
         -4    1    1    2    0  502 -0.35995749612E+02  0.31445986118E+00 -0.33014564092E+01  0.36170504414E+02  0.12700000000E+01 0. -1.
<mgrwt>
<rscale>  1 0.13007889E+03</rscale>
<asrwt>0</asrwt>
<pdfrwt beam="2">  1       21 0.54477134E-02 0.13007889E+03</pdfrwt>
<pdfrwt beam="1">  1       -4 0.44046292E-01 0.13007889E+03</pdfrwt>
<totfact> 0.46916272E+04</totfact>
</mgrwt>
</event>
<event>
 6    3  0.3813045E-003  0.1277679E+03  0.7818608E-02  0.1230806E+00
         -4   -1    0    0    0  501 -0.00000000000E+00  0.00000000000E+00  0.10670979168E+03  0.10671734883E+03  0.12700000000E+01 0. -1.
         21   -1    0    0  501  502  0.00000000000E+00 -0.00000000000E+00 -0.56416780837E+02  0.56416780837E+02  0.00000000000E+00 0. -1.
         25    2    1    2    0    0  0.11788924770E+02  0.23671061577E+02  0.34648745034E+02  0.13238264423E+03  0.12500132423E+03 0.  0.
    9000005    1    3    3    0    0 -0.26110557697E+02 -0.35457319920E+02  0.43115006695E+02  0.61635108189E+02  0.10000000000E+01 0.  0.
    9000005    1    3    3    0    0  0.37899482467E+02  0.59128381497E+02 -0.84662616615E+01  0.70747536044E+02  0.10000000000E+01 0.  0.
         -4    1    1    2    0  502 -0.11788924770E+02 -0.23671061577E+02  0.15644265809E+02  0.30751485430E+02  0.12700000000E+01 0.  1.
<mgrwt>
<rscale>  1 0.12776787E+03</rscale>
<asrwt>0</asrwt>
<pdfrwt beam="2">  1       21 0.86795048E-02 0.12776787E+03</pdfrwt>
<pdfrwt beam="1">  1       -4 0.16418572E-01 0.12776787E+03</pdfrwt>
<totfact> 0.13317464E+05</totfact>
</mgrwt>
</event>
<event>
 6    3  0.3813045E-003  0.1701072E+03  0.7818608E-02  0.1177736E+00
          4   -1    0    0  502    0 -0.00000000000E+00  0.00000000000E+00  0.26830326211E+03  0.26830626783E+03  0.12700000000E+01 0. -1.
         21   -1    0    0  501  502  0.00000000000E+00 -0.00000000000E+00 -0.76592245287E+02  0.76592245287E+02  0.00000000000E+00 0.  1.
         25    2    1    2    0    0 -0.23021222941E+02  0.11305866303E+03  0.12964627887E+03  0.21387987860E+03  0.12499682738E+03 0.  0.
    9000005    1    3    3    0    0 -0.27235708508E+02  0.11341644306E+02 -0.17970477015E+02  0.34559438040E+02  0.10000000000E+01 0.  0.
    9000005    1    3    3    0    0  0.42144855678E+01  0.10171701873E+03  0.14761675588E+03  0.17932044056E+03  0.10000000000E+01 0.  0.
          4    1    1    2  501    0  0.23021222941E+02 -0.11305866303E+03  0.62064737953E+02  0.13101863451E+03  0.12700000000E+01 0.  1.
<mgrwt>
<rscale>  1 0.17010716E+03</rscale>
<asrwt>0</asrwt>
<pdfrwt beam="2">  1       21 0.11783422E-01 0.17010716E+03</pdfrwt>
<pdfrwt beam="1">  1        4 0.41278466E-01 0.17010716E+03</pdfrwt>
<totfact> 0.14428960E+04</totfact>
</mgrwt>
</event>
<event>
 6    3  0.3813045E-003  0.1269622E+03  0.7818608E-02  0.1232034E+00
          4   -1    0    0  502    0 -0.00000000000E+00  0.00000000000E+00  0.83770086174E+03  0.83770182443E+03  0.12700000000E+01 0.  1.
         21   -1    0    0  501  502  0.00000000000E+00 -0.00000000000E+00 -0.66595478791E+01  0.66595478791E+01  0.00000000000E+00 0.  1.
         25    2    1    2    0    0 -0.27019038483E+01 -0.22102350657E+02  0.71855135612E+03  0.72968174168E+03  0.12499431417E+03 0.  0.
    9000005    1    3    3    0    0  0.43247898734E+02 -0.29974994157E+02  0.59978114688E+03  0.60208579552E+03  0.10000000000E+01 0.  0.
    9000005    1    3    3    0    0 -0.45949802583E+02  0.78726435002E+01  0.11877020924E+03  0.12759594616E+03  0.10000000000E+01 0.  0.
          4    1    1    2  501    0  0.27019038483E+01  0.22102350657E+02  0.11248995774E+03  0.11467963063E+03  0.12700000000E+01 0. -1.
<mgrwt>
<rscale>  1 0.12696217E+03</rscale>
<asrwt>0</asrwt>
<pdfrwt beam="2">  1       21 0.10245465E-02 0.12696217E+03</pdfrwt>
<pdfrwt beam="1">  1        4 0.12888636E+00 0.12696217E+03</pdfrwt>
<totfact> 0.67128552E+04</totfact>
</mgrwt>
</event>
<event>
 6    3  0.3813045E-003  0.1465594E+03  0.7818608E-02  0.1204766E+00
         -4   -1    0    0    0  501 -0.00000000000E+00  0.00000000000E+00  0.13867688482E+03  0.13868270002E+03  0.12700000000E+01 0. -1.
         21   -1    0    0  501  502  0.00000000000E+00 -0.00000000000E+00 -0.10737317873E+03  0.10737317873E+03  0.00000000000E+00 0.  1.
         25    2    1    2    0    0 -0.71347501004E+02  0.27619795806E+02  0.67562025653E+02  0.16138240205E+03  0.12500533333E+03 0.  0.
    9000005    1    3    3    0    0  0.28472838930E+02  0.38230774860E+01 -0.12379105752E+02  0.31297935034E+02  0.10000000000E+01 0.  0.
    9000005    1    3    3    0    0 -0.99820339934E+02  0.23796718320E+02  0.79941131405E+02  0.13008446701E+03  0.10000000000E+01 0.  0.
         -4    1    1    2    0  502  0.71347501004E+02 -0.27619795806E+02 -0.36258319561E+02  0.84673476705E+02  0.12700000000E+01 0.  1.
<mgrwt>
<rscale>  1 0.14655938E+03</rscale>
<asrwt>0</asrwt>
<pdfrwt beam="2">  1       21 0.16518951E-01 0.14655938E+03</pdfrwt>
<pdfrwt beam="1">  1       -4 0.21335930E-01 0.14655938E+03</pdfrwt>
<totfact> 0.27060379E+04</totfact>
</mgrwt>
</event>
<event>
 6    3  0.3813045E-003  0.1488435E+03  0.7818608E-02  0.1201901E+00
          4   -1    0    0  502    0 -0.00000000000E+00  0.00000000000E+00  0.44789748046E+03  0.44789928098E+03  0.12700000000E+01 0.  1.
         21   -1    0    0  501  502  0.00000000000E+00 -0.00000000000E+00 -0.29442375501E+02  0.29442375501E+02  0.00000000000E+00 0.  1.
         25    2    1    2    0    0  0.32141474676E+02 -0.74134590416E+02  0.27411160182E+03  0.31191592786E+03  0.12500145564E+03 0.  0.
    9000005    1    3    3    0    0  0.72188087189E+02 -0.54619729265E+02  0.23775281179E+03  0.25440486291E+03  0.10000000000E+01 0.  0.
    9000005    1    3    3    0    0 -0.40046612514E+02 -0.19514861151E+02  0.36358790023E+02  0.57511064948E+02  0.10000000000E+01 0.  0.
          4    1    1    2  501    0 -0.32141474676E+02  0.74134590416E+02  0.14434350314E+03  0.16542572862E+03  0.12700000000E+01 0. -1.
<mgrwt>
<rscale>  1 0.14884346E+03</rscale>
<asrwt>0</asrwt>
<pdfrwt beam="2">  1       21 0.45295966E-02 0.14884346E+03</pdfrwt>
<pdfrwt beam="1">  1        4 0.68909545E-01 0.14884346E+03</pdfrwt>
<totfact> 0.25714571E+04</totfact>
</mgrwt>
</event>
<event>
 6    3  0.3813045E-003  0.1282421E+03  0.7818608E-02  0.1230088E+00
         -4   -1    0    0    0  501 -0.00000000000E+00  0.00000000000E+00  0.88136935929E+02  0.88146085420E+02  0.12700000000E+01 0. -1.
         21   -1    0    0  501  502  0.00000000000E+00 -0.00000000000E+00 -0.32045654371E+03  0.32045654371E+03  0.00000000000E+00 0.  1.
         25    2    1    2    0    0  0.25310031766E+02 -0.13449796976E+02  0.40340433730E+02  0.13443733978E+03  0.12499821194E+03 0.  0.
    9000005    1    3    3    0    0 -0.20207145570E+01  0.45238492033E+02 -0.16573223415E+02  0.48231485392E+02  0.10000000000E+01 0.  0.
    9000005    1    3    3    0    0  0.27330746323E+02 -0.58688289009E+02  0.56913657145E+02  0.86205854390E+02  0.10000000000E+01 0.  0.
         -4    1    1    2    0  502 -0.25310031766E+02  0.13449796976E+02 -0.27266004151E+03  0.27416528934E+03  0.12700000000E+01 0.  1.
<mgrwt>
<rscale>  1 0.12824214E+03</rscale>
<asrwt>0</asrwt>
<pdfrwt beam="2">  1       21 0.49301007E-01 0.12824214E+03</pdfrwt>
<pdfrwt beam="1">  1       -4 0.13560426E-01 0.12824214E+03</pdfrwt>
<totfact> 0.72508897E+03</totfact>
</mgrwt>
</event>
<event>
 6    3  0.3813045E-003  0.1322709E+03  0.7818608E-02  0.1224124E+00
          4   -1    0    0  502    0 -0.00000000000E+00  0.00000000000E+00  0.91514548250E+03  0.91514636372E+03  0.12700000000E+01 0. -1.
         21   -1    0    0  501  502  0.00000000000E+00 -0.00000000000E+00 -0.87093179658E+01  0.87093179658E+01  0.00000000000E+00 0. -1.
         25    2    1    2    0    0 -0.43245339505E+02 -0.24008234461E+00  0.74867412029E+03  0.76026872459E+03  0.12500151269E+03 0.  0.
    9000005    1    3    3    0    0  0.30913199827E+02 -0.37335362899E+02  0.31936611855E+03  0.32302518930E+03  0.10000000000E+01 0.  0.
    9000005    1    3    3    0    0 -0.74158539333E+02  0.37095280555E+02  0.42930800174E+03  0.43724353529E+03  0.10000000000E+01 0.  0.
          4    1    1    2  501    0  0.43245339505E+02  0.24008234461E+00  0.15776204424E+03  0.16358695710E+03  0.12700000000E+01 0.  1.
<mgrwt>
<rscale>  1 0.13227092E+03</rscale>
<asrwt>0</asrwt>
<pdfrwt beam="2">  1       21 0.13398958E-02 0.13227092E+03</pdfrwt>
<pdfrwt beam="1">  1        4 0.14079873E+00 0.13227092E+03</pdfrwt>
<totfact> 0.35476473E+04</totfact>
</mgrwt>
</event>
<event>
 6    3  0.3813045E-003  0.1342103E+03  0.7818608E-02  0.1221339E+00
         21   -1    0    0  501  502  0.00000000000E+00  0.00000000000E+00  0.14738116531E+02  0.14738116531E+02  0.00000000000E+00 0. -1.
         -4   -1    0    0    0  501 -0.00000000000E+00 -0.00000000000E+00 -0.87539194322E+03  0.87539286447E+03  0.12700000000E+01 0.  1.
         25    2    1    2    0    0  0.40030604589E+02  0.28022845193E+02 -0.80477658425E+03  0.81589077437E+03  0.12499870398E+03 0.  0.
    9000005    1    3    3    0    0  0.25608894530E+02  0.72551348638E+02 -0.63947084678E+03  0.64408343990E+03  0.10000000000E+01 0.  0.
    9000005    1    3    3    0    0  0.14421710059E+02 -0.44528503444E+02 -0.16530573747E+03  0.17180733448E+03  0.10000000000E+01 0.  0.
         -4    1    1    2    0  502 -0.40030604589E+02 -0.28022845193E+02 -0.55877242442E+02  0.74240206623E+02  0.12700000000E+01 0. -1.
<mgrwt>
<rscale>  1 0.13421030E+03</rscale>
<asrwt>0</asrwt>
<pdfrwt beam="1">  1       21 0.22674024E-02 0.13421030E+03</pdfrwt>
<pdfrwt beam="2">  1       -4 0.13467997E+00 0.13421030E+03</pdfrwt>
<totfact> 0.17040897E+04</totfact>
</mgrwt>
</event>
<event>
 6    3  0.3813045E-003  0.1293167E+03  0.7818608E-02  0.1228473E+00
         21   -1    0    0  501  502  0.00000000000E+00  0.00000000000E+00  0.21030899189E+04  0.21030899189E+04  0.00000000000E+00 0. -1.
          4   -1    0    0  502    0 -0.00000000000E+00 -0.00000000000E+00 -0.56806925394E+01  0.58209249890E+01  0.12700000000E+01 0.  1.
         25    2    1    2    0    0  0.11534981439E+02  0.31061541419E+02  0.74812273650E+03  0.75921698238E+03  0.12499968931E+03 0.  0.
    9000005    1    3    3    0    0 -0.42215913012E+02 -0.26961715464E+02  0.27463544803E+03  0.27916795433E+03  0.10000000000E+01 0.  0.
    9000005    1    3    3    0    0  0.53750894451E+02  0.58023256883E+02  0.47348728847E+03  0.48004902805E+03  0.10000000000E+01 0.  0.
          4    1    1    2  501    0 -0.11534981439E+02 -0.31061541419E+02  0.13492864899E+04  0.13496938615E+04  0.12700000000E+01 0. -1.
<mgrwt>
<rscale>  1 0.12931666E+03</rscale>
<asrwt>0</asrwt>
<pdfrwt beam="1">  1       21 0.32355168E+00 0.12931666E+03</pdfrwt>
<pdfrwt beam="2">  1        4 0.88477099E-03 0.12931666E+03</pdfrwt>
<totfact> 0.38333520E+03</totfact>
</mgrwt>
</event>
<event>
 6    3  0.3813045E-003  0.1300721E+03  0.7818608E-02  0.1227349E+00
         21   -1    0    0  501  502  0.00000000000E+00  0.00000000000E+00  0.74936104217E+03  0.74936104217E+03  0.00000000000E+00 0. -1.
         -4   -1    0    0    0  501 -0.00000000000E+00 -0.00000000000E+00 -0.93930808317E+01  0.94785477533E+01  0.12700000000E+01 0. -1.
         25    2    1    2    0    0  0.83750921636E+00  0.35964350931E+02  0.52464835771E+03  0.54053182422E+03  0.12499847114E+03 0.  0.
    9000005    1    3    3    0    0  0.23468061215E+02  0.40534919412E+02  0.51209433090E+03  0.51423285905E+03  0.10000000000E+01 0.  0.
    9000005    1    3    3    0    0 -0.22630551998E+02 -0.45705684804E+01  0.12554026818E+02  0.26298965176E+02  0.10000000000E+01 0.  0.
         -4    1    1    2    0  502 -0.83750921636E+00 -0.35964350931E+02  0.21531960363E+03  0.21830776570E+03  0.12700000000E+01 0.  1.
<mgrwt>
<rscale>  1 0.13007211E+03</rscale>
<asrwt>0</asrwt>
<pdfrwt beam="1">  1       21 0.11528627E+00 0.13007211E+03</pdfrwt>
<pdfrwt beam="2">  1       -4 0.14517471E-02 0.13007211E+03</pdfrwt>
<totfact> 0.39775864E+04</totfact>
</mgrwt>
</event>
<event>
 6    3  0.3813045E-003  0.1271505E+03  0.7818608E-02  0.1231746E+00
         21   -1    0    0  501  502  0.00000000000E+00  0.00000000000E+00  0.45808593881E+03  0.45808593881E+03  0.00000000000E+00 0.  1.
          4   -1    0    0  502    0 -0.00000000000E+00 -0.00000000000E+00 -0.14583417340E+02  0.14638612001E+02  0.12700000000E+01 0. -1.
         25    2    1    2    0    0 -0.22782694800E+02  0.47855464535E+01  0.27936937064E+03  0.30694380181E+03  0.12500119832E+03 0.  0.
    9000005    1    3    3    0    0 -0.30076668511E+02 -0.55574732383E+02  0.10833801302E+03  0.12542440725E+03  0.10000000000E+01 0.  0.
    9000005    1    3    3    0    0  0.72939737109E+01  0.60360278837E+02  0.17103135762E+03  0.18151939456E+03  0.10000000000E+01 0.  0.
          4    1    1    2  501    0  0.22782694800E+02 -0.47855464535E+01  0.16413315084E+03  0.16578074901E+03  0.12700000000E+01 0.  1.
<mgrwt>
<rscale>  1 0.12715051E+03</rscale>
<asrwt>0</asrwt>
<pdfrwt beam="1">  1       21 0.70474749E-01 0.12715051E+03</pdfrwt>
<pdfrwt beam="2">  1        4 0.22479842E-02 0.12715051E+03</pdfrwt>
<totfact> 0.62710797E+04</totfact>
</mgrwt>
</event>
<event>
 6    3  0.3813045E-003  0.1292889E+03  0.7818608E-02  0.1228515E+00
         -4   -1    0    0    0  501 -0.00000000000E+00  0.00000000000E+00  0.22867846664E+02  0.22903085186E+02  0.12700000000E+01 0. -1.
         21   -1    0    0  501  502  0.00000000000E+00 -0.00000000000E+00 -0.65058720567E+03  0.65058720567E+03  0.00000000000E+00 0.  1.
         25    2    1    2    0    0  0.83849119957E+01  0.31932274352E+02 -0.16512979673E+03  0.20972236083E+03  0.12500256785E+03 0.  0.
    9000005    1    3    3    0    0  0.52542530950E+02  0.24916416229E+02 -0.26231306547E+02  0.63801463929E+02  0.10000000000E+01 0.  0.
    9000005    1    3    3    0    0 -0.44157618955E+02  0.70158581236E+01 -0.13889849018E+03  0.14592089690E+03  0.10000000000E+01 0.  0.
         -4    1    1    2    0  502 -0.83849119957E+01 -0.31932274352E+02 -0.46258956228E+03  0.46376793003E+03  0.12700000000E+01 0.  1.
<mgrwt>
<rscale>  1 0.12928890E+03</rscale>
<asrwt>0</asrwt>
<pdfrwt beam="2">  1       21 0.10009034E+00 0.12928890E+03</pdfrwt>
<pdfrwt beam="1">  1       -4 0.35209364E-02 0.12928890E+03</pdfrwt>
<totfact> 0.14128950E+04</totfact>
</mgrwt>
</event>
<event>
 6    3  0.3813045E-003  0.1811503E+03  0.7818608E-02  0.1166694E+00
          4   -1    0    0  502    0 -0.00000000000E+00  0.00000000000E+00  0.30820909565E+03  0.30821171221E+03  0.12700000000E+01 0.  1.
         21   -1    0    0  501  502  0.00000000000E+00 -0.00000000000E+00 -0.96719795099E+02  0.96719795099E+02  0.00000000000E+00 0. -1.
         25    2    1    2    0    0  0.68601973547E+02 -0.11173240374E+03  0.20511857699E+03  0.27365866229E+03  0.12500028800E+03 0.  0.
    9000005    1    3    3    0    0  0.94037638972E+02 -0.10697837915E+03  0.12516911064E+03  0.18962003430E+03  0.10000000000E+01 0.  0.
    9000005    1    3    3    0    0 -0.25435665425E+02 -0.47540245960E+01  0.79949466349E+02  0.84038627994E+02  0.10000000000E+01 0.  0.
          4    1    1    2  501    0 -0.68601973547E+02  0.11173240374E+03  0.63707235687E+01  0.13127284502E+03  0.12700000000E+01 0. -1.
<mgrwt>
<rscale>  1 0.18115030E+03</rscale>
<asrwt>0</asrwt>
<pdfrwt beam="2">  1       21 0.14879969E-01 0.18115030E+03</pdfrwt>
<pdfrwt beam="1">  1        4 0.47417626E-01 0.18115030E+03</pdfrwt>
<totfact> 0.72084702E+03</totfact>
</mgrwt>
</event>
<event>
 6    3  0.3813045E-003  0.1314472E+03  0.7818608E-02  0.1225324E+00
          4   -1    0    0  502    0 -0.00000000000E+00  0.00000000000E+00  0.23816178485E+03  0.23816517097E+03  0.12700000000E+01 0. -1.
         21   -1    0    0  501  502  0.00000000000E+00 -0.00000000000E+00 -0.69240554404E+02  0.69240554404E+02  0.00000000000E+00 0.  1.
         25    2    1    2    0    0 -0.18649649769E+02 -0.36132240494E+02  0.21118006636E+03  0.24874764535E+03  0.12500008960E+03 0.  0.
    9000005    1    3    3    0    0  0.24175748485E+02 -0.62625815847E+02  0.17292016587E+03  0.18549620855E+03  0.10000000000E+01 0.  0.
    9000005    1    3    3    0    0 -0.42825398253E+02  0.26493575354E+02  0.38259900494E+02  0.63251436793E+02  0.10000000000E+01 0.  0.
          4    1    1    2  501    0  0.18649649769E+02  0.36132240494E+02 -0.42258835913E+02  0.58658080026E+02  0.12700000000E+01 0.  1.
<mgrwt>
<rscale>  1 0.13144722E+03</rscale>
<asrwt>0</asrwt>
<pdfrwt beam="2">  1       21 0.10652393E-01 0.13144722E+03</pdfrwt>
<pdfrwt beam="1">  1        4 0.36641431E-01 0.13144722E+03</pdfrwt>
<totfact> 0.21284029E+04</totfact>
</mgrwt>
</event>
<event>
 6    3  0.3813045E-003  0.1287176E+03  0.7818608E-02  0.1229371E+00
          4   -1    0    0  502    0 -0.00000000000E+00  0.00000000000E+00  0.94928234132E+02  0.94936729117E+02  0.12700000000E+01 0. -1.
         21   -1    0    0  501  502  0.00000000000E+00 -0.00000000000E+00 -0.14340852121E+03  0.14340852121E+03  0.00000000000E+00 0.  1.
         25    2    1    2    0    0 -0.52959868998E+01  0.30248892063E+02  0.47778291320E+02  0.13729887601E+03  0.12500069313E+03 0.  0.
    9000005    1    3    3    0    0 -0.20666514555E+02  0.56273743743E+02 -0.19898481544E+02  0.63172688928E+02  0.10000000000E+01 0.  0.
    9000005    1    3    3    0    0  0.15370527655E+02 -0.26024851680E+02  0.67676772864E+02  0.74126187077E+02  0.10000000000E+01 0.  0.
          4    1    1    2  501    0  0.52959868998E+01 -0.30248892063E+02 -0.96258578395E+02  0.10104637432E+03  0.12700000000E+01 0.  1.
<mgrwt>
<rscale>  1 0.12871758E+03</rscale>
<asrwt>0</asrwt>
<pdfrwt beam="2">  1       21 0.22062849E-01 0.12871758E+03</pdfrwt>
<pdfrwt beam="1">  1        4 0.14605430E-01 0.12871758E+03</pdfrwt>
<totfact> 0.30691831E+04</totfact>
</mgrwt>
</event>
<event>
 6    3  0.3813045E-003  0.1278741E+03  0.7818608E-02  0.1230645E+00
         21   -1    0    0  501  502  0.00000000000E+00  0.00000000000E+00  0.79625446587E+02  0.79625446587E+02  0.00000000000E+00 0. -1.
          4   -1    0    0  502    0 -0.00000000000E+00 -0.00000000000E+00 -0.95806548854E+02  0.95814965967E+02  0.12700000000E+01 0. -1.
         25    2    1    2    0    0 -0.20466306683E+02 -0.17547044576E+02 -0.45372125973E+02  0.13568494441E+03  0.12500002336E+03 0.  0.
    9000005    1    3    3    0    0 -0.21693241332E+02  0.52457997217E+02 -0.29089945290E+02  0.63793911218E+02  0.10000000000E+01 0.  0.
    9000005    1    3    3    0    0  0.12269346491E+01 -0.70005041793E+02 -0.16282180682E+02  0.71891033188E+02  0.10000000000E+01 0.  0.
          4    1    1    2  501    0  0.20466306683E+02  0.17547044576E+02  0.29191023706E+02  0.39755468147E+02  0.12700000000E+01 0.  1.
<mgrwt>
<rscale>  1 0.12787406E+03</rscale>
<asrwt>0</asrwt>
<pdfrwt beam="1">  1       21 0.12250069E-01 0.12787406E+03</pdfrwt>
<pdfrwt beam="2">  1        4 0.14740896E-01 0.12787406E+03</pdfrwt>
<totfact> 0.87923780E+04</totfact>
</mgrwt>
</event>
<event>
 6    3  0.3813045E-003  0.1286662E+03  0.7818608E-02  0.1229448E+00
         21   -1    0    0  501  502  0.00000000000E+00  0.00000000000E+00  0.32695807891E+03  0.32695807891E+03  0.00000000000E+00 0.  1.
         -4   -1    0    0    0  501 -0.00000000000E+00 -0.00000000000E+00 -0.52135433002E+02  0.52150899075E+02  0.12700000000E+01 0. -1.
         25    2    1    2    0    0 -0.29050486977E+02  0.92641864726E+01  0.29642339721E+02  0.13203661736E+03  0.12500097629E+03 0.  0.
    9000005    1    3    3    0    0  0.19260486499E+02  0.35994380587E+01 -0.41468339531E+02  0.45875325372E+02  0.10000000000E+01 0.  0.
    9000005    1    3    3    0    0 -0.48310973476E+02  0.56647484138E+01  0.71110679252E+02  0.86161291984E+02  0.10000000000E+01 0.  0.
         -4    1    1    2    0  502  0.29050486977E+02 -0.92641864726E+01  0.24518030619E+03  0.24707236063E+03  0.12700000000E+01 0.  1.
<mgrwt>
<rscale>  1 0.12866623E+03</rscale>
<asrwt>0</asrwt>
<pdfrwt beam="1">  1       21 0.50301242E-01 0.12866623E+03</pdfrwt>
<pdfrwt beam="2">  1       -4 0.80222155E-02 0.12866623E+03</pdfrwt>
<totfact> 0.16891992E+04</totfact>
</mgrwt>
</event>
<event>
 6    3  0.3813045E-003  0.1292820E+03  0.7818608E-02  0.1228525E+00
          4   -1    0    0  502    0 -0.00000000000E+00  0.00000000000E+00  0.16477502480E+03  0.16477991898E+03  0.12700000000E+01 0.  1.
         21   -1    0    0  501  502  0.00000000000E+00 -0.00000000000E+00 -0.41901600940E+02  0.41901600940E+02  0.00000000000E+00 0. -1.
         25    2    1    2    0    0 -0.31010351391E+02  0.11289323514E+02  0.11429289659E+03  0.17255925348E+03  0.12499895612E+03 0.  0.
    9000005    1    3    3    0    0  0.12422883426E+02  0.51894750418E+02  0.12729509883E+02  0.54867418159E+02  0.10000000000E+01 0.  0.
    9000005    1    3    3    0    0 -0.43433234817E+02 -0.40605426904E+02  0.10156338671E+03  0.11769183532E+03  0.10000000000E+01 0.  0.
          4    1    1    2  501    0  0.31010351391E+02 -0.11289323514E+02  0.85805272702E+01  0.34122266440E+02  0.12700000000E+01 0. -1.
<mgrwt>
<rscale>  1 0.12928198E+03</rscale>
<asrwt>0</asrwt>
<pdfrwt beam="2">  1       21 0.64464002E-02 0.12928198E+03</pdfrwt>
<pdfrwt beam="1">  1        4 0.25351860E-01 0.12928198E+03</pdfrwt>
<totfact> 0.10164475E+05</totfact>
</mgrwt>
</event>
<event>
 6    3  0.3813045E-003  0.1266566E+03  0.7818608E-02  0.1232503E+00
         -4   -1    0    0    0  501 -0.00000000000E+00  0.00000000000E+00  0.56200077799E+02  0.56214425592E+02  0.12700000000E+01 0. -1.
         21   -1    0    0  501  502  0.00000000000E+00 -0.00000000000E+00 -0.10120457843E+03  0.10120457843E+03  0.00000000000E+00 0. -1.
         25    2    1    2    0    0  0.19272439431E+02  0.67279078991E+01 -0.25583201298E+02  0.12921454632E+03  0.12500082850E+03 0.  0.
    9000005    1    3    3    0    0 -0.35576377198E+02 -0.16001811337E+02 -0.51341623074E+02  0.64487974386E+02  0.10000000000E+01 0.  0.
    9000005    1    3    3    0    0  0.54848816629E+02  0.22729719236E+02  0.25758421776E+02  0.64726571936E+02  0.10000000000E+01 0.  0.
         -4    1    1    2    0  502 -0.19272439431E+02 -0.67279078991E+01 -0.19421299328E+02  0.28204457696E+02  0.12700000000E+01 0.  1.
<mgrwt>
<rscale>  1 0.12665662E+03</rscale>
<asrwt>0</asrwt>
<pdfrwt beam="2">  1       21 0.15569935E-01 0.12665662E+03</pdfrwt>
<pdfrwt beam="1">  1       -4 0.86478825E-02 0.12665662E+03</pdfrwt>
<totfact> 0.14153677E+05</totfact>
</mgrwt>
</event>
<event>
 6    3  0.3813045E-003  0.1267099E+03  0.7818608E-02  0.1232421E+00
         21   -1    0    0  501  502  0.00000000000E+00  0.00000000000E+00  0.34453458074E+03  0.34453458074E+03  0.00000000000E+00 0. -1.
          4   -1    0    0  502    0 -0.00000000000E+00 -0.00000000000E+00 -0.15795143448E+02  0.15846118028E+02  0.12700000000E+01 0. -1.
         25    2    1    2    0    0  0.20664988999E+02  0.12024694341E+01  0.28892873231E+03  0.31549202721E+03  0.12500767647E+03 0.  0.
    9000005    1    3    3    0    0 -0.19432292333E+01 -0.10347434799E+02 -0.10549605061E+02  0.14937861752E+02  0.10000000000E+01 0.  0.
    9000005    1    3    3    0    0  0.22608218233E+02  0.11549904233E+02  0.29947833738E+03  0.30055416546E+03  0.10000000000E+01 0.  0.
          4    1    1    2  501    0 -0.20664988999E+02 -0.12024694341E+01  0.39810704980E+02  0.44888671556E+02  0.12700000000E+01 0.  1.
<mgrwt>
<rscale>  1 0.12670993E+03</rscale>
<asrwt>0</asrwt>
<pdfrwt beam="1">  1       21 0.53005314E-01 0.12670993E+03</pdfrwt>
<pdfrwt beam="2">  1        4 0.24341235E-02 0.12670993E+03</pdfrwt>
<totfact> 0.10166476E+05</totfact>
</mgrwt>
</event>
<event>
 6    3  0.3813045E-003  0.1277656E+03  0.7818608E-02  0.1230809E+00
         -4   -1    0    0    0  501 -0.00000000000E+00  0.00000000000E+00  0.96679012945E+02  0.96687354106E+02  0.12700000000E+01 0.  1.
         21   -1    0    0  501  502  0.00000000000E+00 -0.00000000000E+00 -0.70337027863E+02  0.70337027863E+02  0.00000000000E+00 0.  1.
         25    2    1    2    0    0  0.23784928114E+02 -0.11542664209E+02  0.44087118259E+02  0.13515812154E+03  0.12500035167E+03 0.  0.
    9000005    1    3    3    0    0 -0.47813461135E+01 -0.49857729498E+01 -0.42846496471E+02  0.43411305698E+02  0.10000000000E+01 0.  0.
    9000005    1    3    3    0    0  0.28566274228E+02 -0.65568912594E+01  0.86933614731E+02  0.91746815838E+02  0.10000000000E+01 0.  0.
         -4    1    1    2    0  502 -0.23784928114E+02  0.11542664209E+02 -0.17745133177E+02  0.31866260432E+02  0.12700000000E+01 0. -1.
<mgrwt>
<rscale>  1 0.12776558E+03</rscale>
<asrwt>0</asrwt>
<pdfrwt beam="2">  1       21 0.10821081E-01 0.12776558E+03</pdfrwt>
<pdfrwt beam="1">  1       -4 0.14875218E-01 0.12776558E+03</pdfrwt>
<totfact> 0.10772543E+05</totfact>
</mgrwt>
</event>
<event>
 6    3  0.3813045E-003  0.1457765E+03  0.7818608E-02  0.1205761E+00
         -4   -1    0    0    0  501 -0.00000000000E+00  0.00000000000E+00  0.21414365295E+02  0.21451991539E+02  0.12700000000E+01 0.  1.
         21   -1    0    0  501  502  0.00000000000E+00 -0.00000000000E+00 -0.85341412196E+03  0.85341412196E+03  0.00000000000E+00 0. -1.
         25    2    1    2    0    0 -0.53754837987E+02 -0.52308794011E+02 -0.26092727018E+03  0.29888765014E+03  0.12499997817E+03 0.  0.
    9000005    1    3    3    0    0 -0.67126743344E+02 -0.53665530377E+02 -0.79870110869E+02  0.11732955055E+03  0.10000000000E+01 0.  0.
    9000005    1    3    3    0    0  0.13371905358E+02  0.13567363668E+01 -0.18105715931E+03  0.18155809958E+03  0.10000000000E+01 0.  0.
         -4    1    1    2    0  502  0.53754837987E+02  0.52308794011E+02 -0.57107248648E+03  0.57597846336E+03  0.12700000000E+01 0. -1.
<mgrwt>
<rscale>  1 0.14577650E+03</rscale>
<asrwt>0</asrwt>
<pdfrwt beam="2">  1       21 0.13129448E+00 0.14577650E+03</pdfrwt>
<pdfrwt beam="1">  1       -4 0.32974848E-02 0.14577650E+03</pdfrwt>
<totfact> 0.81789996E+03</totfact>
</mgrwt>
</event>
<event>
 6    3  0.3813045E-003  0.1324352E+03  0.7818608E-02  0.1223886E+00
         21   -1    0    0  501  502  0.00000000000E+00  0.00000000000E+00  0.20017766463E+02  0.20017766463E+02  0.00000000000E+00 0.  1.
         -4   -1    0    0    0  501 -0.00000000000E+00 -0.00000000000E+00 -0.40803063459E+03  0.40803261103E+03  0.12700000000E+01 0.  1.
         25    2    1    2    0    0 -0.14663273251E+02 -0.41201159800E+02 -0.32845843685E+03  0.35415254034E+03  0.12500611961E+03 0.  0.
    9000005    1    3    3    0    0  0.54023394587E+02 -0.24754804214E+02 -0.18379266866E+03  0.19316333127E+03  0.10000000000E+01 0.  0.
    9000005    1    3    3    0    0 -0.68686667839E+02 -0.16446355586E+02 -0.14466576819E+03  0.16098920907E+03  0.10000000000E+01 0.  0.
         -4    1    1    2    0  502  0.14663273251E+02  0.41201159800E+02 -0.59554431283E+02  0.73897837159E+02  0.12700000000E+01 0. -1.
<mgrwt>
<rscale>  1 0.13243518E+03</rscale>
<asrwt>0</asrwt>
<pdfrwt beam="1">  1       21 0.30796567E-02 0.13243518E+03</pdfrwt>
<pdfrwt beam="2">  1       -4 0.62777188E-01 0.13243518E+03</pdfrwt>
<totfact> 0.58701504E+04</totfact>
</mgrwt>
</event>
<event>
 6    3  0.3813045E-003  0.1335504E+03  0.7818608E-02  0.1222281E+00
          4   -1    0    0  502    0 -0.00000000000E+00  0.00000000000E+00  0.95244030019E+02  0.95252496840E+02  0.12700000000E+01 0.  1.
         21   -1    0    0  501  502  0.00000000000E+00 -0.00000000000E+00 -0.10598340865E+03  0.10598340865E+03  0.00000000000E+00 0. -1.
         25    2    1    2    0    0  0.21061451716E+02  0.42040704495E+02  0.32385221832E+02  0.13742094135E+03  0.12499882778E+03 0.  0.
    9000005    1    3    3    0    0 -0.33155697190E+02  0.65473969468E+02  0.92438723318E+01  0.73976956614E+02  0.10000000000E+01 0.  0.
    9000005    1    3    3    0    0  0.54217148907E+02 -0.23433264973E+02  0.23141349500E+02  0.63443984739E+02  0.10000000000E+01 0.  0.
          4    1    1    2  501    0 -0.21061451716E+02 -0.42040704495E+02 -0.43124600467E+02  0.63814964140E+02  0.12700000000E+01 0. -1.
<mgrwt>
<rscale>  1 0.13355041E+03</rscale>
<asrwt>0</asrwt>
<pdfrwt beam="2">  1       21 0.16305140E-01 0.13355041E+03</pdfrwt>
<pdfrwt beam="1">  1        4 0.14654164E-01 0.13355041E+03</pdfrwt>
<totfact> 0.53471367E+04</totfact>
</mgrwt>
</event>
<event>
 6    3  0.3813045E-003  0.1286566E+03  0.7818608E-02  0.1229463E+00
         21   -1    0    0  501  502  0.00000000000E+00  0.00000000000E+00  0.10480999673E+03  0.10480999673E+03  0.00000000000E+00 0.  1.
          4   -1    0    0  502    0 -0.00000000000E+00 -0.00000000000E+00 -0.69907166863E+02  0.69918701924E+02  0.12700000000E+01 0.  1.
         25    2    1    2    0    0  0.56918346217E+01 -0.29926150768E+02  0.36287378024E+00  0.12865709191E+03  0.12499817655E+03 0.  0.
    9000005    1    3    3    0    0 -0.37702996724E+02  0.34015511963E+02  0.61363523983E+01  0.51158829510E+02  0.10000000000E+01 0.  0.
    9000005    1    3    3    0    0  0.43394831345E+02 -0.63941662731E+02 -0.57734786181E+01  0.77498262404E+02  0.10000000000E+01 0.  0.
          4    1    1    2  501    0 -0.56918346217E+01  0.29926150768E+02  0.34539956087E+02  0.46071606740E+02  0.12700000000E+01 0. -1.
<mgrwt>
<rscale>  1 0.12865658E+03</rscale>
<asrwt>0</asrwt>
<pdfrwt beam="1">  1       21 0.16124615E-01 0.12865658E+03</pdfrwt>
<pdfrwt beam="2">  1        4 0.10756428E-01 0.12865658E+03</pdfrwt>
<totfact> 0.92321873E+04</totfact>
</mgrwt>
</event>
<event>
 6    3  0.3813045E-003  0.1319282E+03  0.7818608E-02  0.1224622E+00
         21   -1    0    0  501  502  0.00000000000E+00  0.00000000000E+00  0.56272566175E+03  0.56272566175E+03  0.00000000000E+00 0. -1.
          4   -1    0    0  502    0 -0.00000000000E+00 -0.00000000000E+00 -0.19448878070E+02  0.19490299079E+02  0.12700000000E+01 0.  1.
         25    2    1    2    0    0  0.39249367223E+02  0.15483550731E+02  0.22248867794E+03  0.25866244925E+03  0.12499919068E+03 0.  0.
    9000005    1    3    3    0    0  0.35557088697E+02 -0.49798404143E+02  0.71456589788E+02  0.94080985518E+02  0.10000000000E+01 0.  0.
    9000005    1    3    3    0    0  0.36922785263E+01  0.65281954874E+02  0.15103208815E+03  0.16458146373E+03  0.10000000000E+01 0.  0.
          4    1    1    2  501    0 -0.39249367223E+02 -0.15483550731E+02  0.32078810575E+03  0.32355351158E+03  0.12700000000E+01 0. -1.
<mgrwt>
<rscale>  1 0.13192820E+03</rscale>
<asrwt>0</asrwt>
<pdfrwt beam="1">  1       21 0.86573166E-01 0.13192820E+03</pdfrwt>
<pdfrwt beam="2">  1        4 0.29954320E-02 0.13192820E+03</pdfrwt>
<totfact> 0.25482501E+04</totfact>
</mgrwt>
</event>
<event>
 6    3  0.3813045E-003  0.1324093E+03  0.7818608E-02  0.1223924E+00
          4   -1    0    0  502    0 -0.00000000000E+00  0.00000000000E+00  0.33504835293E+03  0.33505075989E+03  0.12700000000E+01 0.  1.
         21   -1    0    0  501  502  0.00000000000E+00 -0.00000000000E+00 -0.27369472225E+02  0.27369472225E+02  0.00000000000E+00 0.  1.
         25    2    1    2    0    0  0.73950514277E+01  0.43042722744E+02  0.15621848115E+03  0.20478385211E+03  0.12499939786E+03 0.  0.
    9000005    1    3    3    0    0 -0.20721822928E+02  0.81215588301E+02  0.86363437150E+02  0.12035368297E+03  0.10000000000E+01 0.  0.
    9000005    1    3    3    0    0  0.28116874356E+02 -0.38172865557E+02  0.69855043999E+02  0.84430169137E+02  0.10000000000E+01 0.  0.
          4    1    1    2  501    0 -0.73950514277E+01 -0.43042722744E+02  0.15146039956E+03  0.15763638000E+03  0.12700000000E+01 0. -1.
<mgrwt>
<rscale>  1 0.13240926E+03</rscale>
<asrwt>0</asrwt>
<pdfrwt beam="2">  1       21 0.42106883E-02 0.13240926E+03</pdfrwt>
<pdfrwt beam="1">  1        4 0.51548349E-01 0.13240926E+03</pdfrwt>
<totfact> 0.52713978E+04</totfact>
</mgrwt>
</event>
<event>
 6    3  0.3813045E-003  0.1273031E+03  0.7818608E-02  0.1231513E+00
         21   -1    0    0  501  502  0.00000000000E+00  0.00000000000E+00  0.10998483706E+02  0.10998483706E+02  0.00000000000E+00 0. -1.
          4   -1    0    0  502    0 -0.00000000000E+00 -0.00000000000E+00 -0.52146816222E+03  0.52146970871E+03  0.12700000000E+01 0. -1.
         25    2    1    2    0    0 -0.10620080346E+02  0.21645355667E+02 -0.43242599254E+03  0.45077524690E+03  0.12499910664E+03 0.  0.
    9000005    1    3    3    0    0  0.33340636171E+02  0.50590424014E+02 -0.12545794902E+03  0.13932582674E+03  0.10000000000E+01 0.  0.
    9000005    1    3    3    0    0 -0.43960716517E+02 -0.28945068346E+02 -0.30696804352E+03  0.31144942016E+03  0.10000000000E+01 0.  0.
          4    1    1    2  501    0  0.10620080346E+02 -0.21645355667E+02 -0.78043685966E+02  0.81692945520E+02  0.12700000000E+01 0.  1.
<mgrwt>
<rscale>  1 0.12730312E+03</rscale>
<asrwt>0</asrwt>
<pdfrwt beam="1">  1       21 0.16920746E-02 0.12730312E+03</pdfrwt>
<pdfrwt beam="2">  1        4 0.80231621E-01 0.12730312E+03</pdfrwt>
<totfact> 0.90749845E+04</totfact>
</mgrwt>
</event>
<event>
 6    3  0.3813045E-003  0.1274027E+03  0.7818608E-02  0.1231361E+00
          4   -1    0    0  502    0 -0.00000000000E+00  0.00000000000E+00  0.15791794227E+03  0.15792304896E+03  0.12700000000E+01 0. -1.
         21   -1    0    0  501  502  0.00000000000E+00 -0.00000000000E+00 -0.50063126056E+02  0.50063126056E+02  0.00000000000E+00 0. -1.
         25    2    1    2    0    0 -0.24026784085E+02 -0.54074726250E+01  0.12457930769E+03  0.17818938611E+03  0.12499970522E+03 0.  0.
    9000005    1    3    3    0    0 -0.16652133545E+02  0.18029911725E+02 -0.19911978998E+02  0.31620534088E+02  0.10000000000E+01 0.  0.
    9000005    1    3    3    0    0 -0.73746505403E+01 -0.23437384350E+02  0.14449128669E+03  0.14656885203E+03  0.10000000000E+01 0.  0.
          4    1    1    2  501    0  0.24026784085E+02  0.54074726250E+01 -0.16724491472E+02  0.29796788899E+02  0.12700000000E+01 0.  1.
<mgrwt>
<rscale>  1 0.12740272E+03</rscale>
<asrwt>0</asrwt>
<pdfrwt beam="2">  1       21 0.77020195E-02 0.12740272E+03</pdfrwt>
<pdfrwt beam="1">  1        4 0.24296700E-01 0.12740272E+03</pdfrwt>
<totfact> 0.80897623E+04</totfact>
</mgrwt>
</event>
<event>
 6    3  0.3813045E-003  0.1333561E+03  0.7818608E-02  0.1222559E+00
         21   -1    0    0  501  502  0.00000000000E+00  0.00000000000E+00  0.90966506902E+02  0.90966506902E+02  0.00000000000E+00 0. -1.
          4   -1    0    0  502    0 -0.00000000000E+00 -0.00000000000E+00 -0.40970045483E+03  0.40970242321E+03  0.12700000000E+01 0.  1.
         25    2    1    2    0    0 -0.23098057445E+02  0.40328229772E+02 -0.39190737588E+03  0.41397492898E+03  0.12499585667E+03 0.  0.
    9000005    1    3    3    0    0 -0.97801307374E+01  0.14842440917E+02  0.29713364961E+01  0.18049317167E+02  0.10000000000E+01 0.  0.
    9000005    1    3    3    0    0 -0.13317926708E+02  0.25485788855E+02 -0.39487871237E+03  0.39592561181E+03  0.10000000000E+01 0.  0.
          4    1    1    2  501    0  0.23098057445E+02 -0.40328229772E+02  0.73173427951E+02  0.86694001133E+02  0.12700000000E+01 0. -1.
<mgrwt>
<rscale>  1 0.13335610E+03</rscale>
<asrwt>0</asrwt>
<pdfrwt beam="1">  1       21 0.13994847E-01 0.13335610E+03</pdfrwt>
<pdfrwt beam="2">  1        4 0.63031673E-01 0.13335610E+03</pdfrwt>
<totfact> 0.43761641E+03</totfact>
</mgrwt>
</event>
<event>
 6    3  0.3813045E-003  0.1267984E+03  0.7818608E-02  0.1232285E+00
         21   -1    0    0  501  502  0.00000000000E+00  0.00000000000E+00  0.59423819914E+02  0.59423819914E+02  0.00000000000E+00 0.  1.
         -4   -1    0    0    0  501 -0.00000000000E+00 -0.00000000000E+00 -0.25267440126E+03  0.25267759289E+03  0.12700000000E+01 0. -1.
         25    2    1    2    0    0  0.18262178393E+02  0.10893011392E+02 -0.23398509962E+03  0.26613317664E+03  0.12500270400E+03 0.  0.
    9000005    1    3    3    0    0  0.61882141683E+02  0.15942036101E+02 -0.63546531515E+02  0.90126076370E+02  0.10000000000E+01 0.  0.
    9000005    1    3    3    0    0 -0.43619963291E+02 -0.50490247094E+01 -0.17043856811E+03  0.17600710027E+03  0.10000000000E+01 0.  0.
         -4    1    1    2    0  502 -0.18262178393E+02 -0.10893011392E+02  0.40734518278E+02  0.45968236165E+02  0.12700000000E+01 0.  1.
<mgrwt>
<rscale>  1 0.12679843E+03</rscale>
<asrwt>0</asrwt>
<pdfrwt beam="1">  1       21 0.91421260E-02 0.12679843E+03</pdfrwt>
<pdfrwt beam="2">  1       -4 0.38874275E-01 0.12679843E+03</pdfrwt>
<totfact> 0.24677574E+04</totfact>
</mgrwt>
</event>
<event>
 6    3  0.3813045E-003  0.1272053E+03  0.7818608E-02  0.1231662E+00
         -4   -1    0    0    0  501 -0.00000000000E+00  0.00000000000E+00  0.27798848224E+03  0.27799138325E+03  0.12700000000E+01 0.  1.
         21   -1    0    0  501  502  0.00000000000E+00 -0.00000000000E+00 -0.27107988189E+02  0.27107988189E+02  0.00000000000E+00 0.  1.
         25    2    1    2    0    0  0.21548596600E+01 -0.23493921258E+02  0.25108794197E+03  0.28147176701E+03  0.12499837305E+03 0.  0.
    9000005    1    3    3    0    0  0.62137847774E+02 -0.16159255960E+02  0.15724672252E+03  0.16985218698E+03  0.10000000000E+01 0.  0.
    9000005    1    3    3    0    0 -0.59982988114E+02 -0.73346652978E+01  0.93841219449E+02  0.11161958003E+03  0.10000000000E+01 0.  0.
         -4    1    1    2    0  502 -0.21548596600E+01  0.23493921258E+02 -0.20744791694E+00  0.23627604425E+02  0.12700000000E+01 0. -1.
<mgrwt>
<rscale>  1 0.12720535E+03</rscale>
<asrwt>0</asrwt>
<pdfrwt beam="2">  1       21 0.41704599E-02 0.12720535E+03</pdfrwt>
<pdfrwt beam="1">  1       -4 0.42769968E-01 0.12720535E+03</pdfrwt>
<totfact> 0.77591768E+04</totfact>
</mgrwt>
</event>
<event>
 6    3  0.3813045E-003  0.1268390E+03  0.7818608E-02  0.1232223E+00
         -4   -1    0    0    0  501 -0.00000000000E+00  0.00000000000E+00  0.48547646002E+01  0.50181310588E+01  0.12700000000E+01 0. -1.
         21   -1    0    0  501  502  0.00000000000E+00 -0.00000000000E+00 -0.11210345908E+04  0.11210345908E+04  0.00000000000E+00 0. -1.
         25    2    1    2    0    0 -0.13332773200E+02  0.16907157272E+02 -0.92360200356E+03  0.93227076841E+03  0.12499803939E+03 0.  0.
    9000005    1    3    3    0    0 -0.43295030240E+02  0.58560520660E+02 -0.63249253327E+03  0.63667228529E+03  0.10000000000E+01 0.  0.
    9000005    1    3    3    0    0  0.29962257041E+02 -0.41653363388E+02 -0.29110947029E+03  0.29559848312E+03  0.10000000000E+01 0.  0.
         -4    1    1    2    0  502  0.13332773200E+02 -0.16907157272E+02 -0.19257782268E+03  0.19378195349E+03  0.12700000000E+01 0.  1.
<mgrwt>
<rscale>  1 0.12683897E+03</rscale>
<asrwt>0</asrwt>
<pdfrwt beam="2">  1       21 0.17246704E+00 0.12683897E+03</pdfrwt>
<pdfrwt beam="1">  1       -4 0.75950804E-03 0.12683897E+03</pdfrwt>
<totfact> 0.37693410E+04</totfact>
</mgrwt>
</event>
<event>
 6    3  0.3813045E-003  0.1556741E+03  0.7818608E-02  0.1193669E+00
         21   -1    0    0  501  502  0.00000000000E+00  0.00000000000E+00  0.47969462693E+02  0.47969462693E+02  0.00000000000E+00 0.  1.
         -4   -1    0    0    0  501 -0.00000000000E+00 -0.00000000000E+00 -0.40311128841E+03  0.40311328897E+03  0.12700000000E+01 0. -1.
         25    2    1    2    0    0  0.90732548573E+02 -0.19413887262E+02 -0.31214426999E+03  0.34881009116E+03  0.12500056006E+03 0.  0.
    9000005    1    3    3    0    0 -0.10078813271E+02 -0.22201098850E+02 -0.41873815608E+01  0.24758946493E+02  0.10000000000E+01 0.  0.
    9000005    1    3    3    0    0  0.10081136184E+03  0.27872115877E+01 -0.30795688843E+03  0.32405114466E+03  0.10000000000E+01 0.  0.
         -4    1    1    2    0  502 -0.90732548573E+02  0.19413887262E+02 -0.42997555729E+02  0.10227266051E+03  0.12700000000E+01 0.  1.
<mgrwt>
<rscale>  1 0.15567413E+03</rscale>
<asrwt>0</asrwt>
<pdfrwt beam="1">  1       21 0.73799175E-02 0.15567413E+03</pdfrwt>
<pdfrwt beam="2">  1       -4 0.62018567E-01 0.15567413E+03</pdfrwt>
<totfact> 0.14113273E+04</totfact>
</mgrwt>
</event>
<event>
 6    3  0.3813045E-003  0.1278481E+03  0.7818608E-02  0.1230684E+00
         21   -1    0    0  501  502  0.00000000000E+00  0.00000000000E+00  0.49260075594E+03  0.49260075594E+03  0.00000000000E+00 0. -1.
          4   -1    0    0  502    0 -0.00000000000E+00 -0.00000000000E+00 -0.14146700605E+02  0.14203592433E+02  0.12700000000E+01 0.  1.
         25    2    1    2    0    0 -0.12908213017E+02  0.23546758237E+02  0.29669741861E+03  0.32307041117E+03  0.12499624225E+03 0.  0.
    9000005    1    3    3    0    0  0.28798785194E+02 -0.20563334057E+02  0.23067551392E+03  0.23337612015E+03  0.10000000000E+01 0.  0.
    9000005    1    3    3    0    0 -0.41706998211E+02  0.44110092294E+02  0.66021904694E+02  0.89694291019E+02  0.10000000000E+01 0.  0.
          4    1    1    2  501    0  0.12908213017E+02 -0.23546758237E+02  0.18175663672E+03  0.18373393720E+03  0.12700000000E+01 0. -1.
<mgrwt>
<rscale>  1 0.12784808E+03</rscale>
<asrwt>0</asrwt>
<pdfrwt beam="1">  1       21 0.75784719E-01 0.12784808E+03</pdfrwt>
<pdfrwt beam="2">  1        4 0.21809181E-02 0.12784808E+03</pdfrwt>
<totfact> 0.56056334E+04</totfact>
</mgrwt>
</event>
<event>
 6    3  0.3813045E-003  0.1283944E+03  0.7818608E-02  0.1229858E+00
         -4   -1    0    0    0  501 -0.00000000000E+00  0.00000000000E+00  0.12581697573E+04  0.12581703983E+04  0.12700000000E+01 0.  1.
         21   -1    0    0  501  502  0.00000000000E+00 -0.00000000000E+00 -0.55494514563E+01  0.55494514563E+01  0.00000000000E+00 0.  1.
         25    2    1    2    0    0  0.28257564916E+02  0.77950654586E+01  0.11448415319E+04  0.11520187753E+04  0.12500348957E+03 0.  0.
    9000005    1    3    3    0    0 -0.99285077972E+01  0.20219651948E+02  0.36188073600E+02  0.42637850120E+02  0.10000000000E+01 0.  0.
    9000005    1    3    3    0    0  0.38186072713E+02 -0.12424586490E+02  0.11086534583E+04  0.11093809252E+04  0.10000000000E+01 0.  0.
         -4    1    1    2    0  502 -0.28257564916E+02 -0.77950654586E+01  0.10777877392E+03  0.11170107442E+03  0.12700000000E+01 0. -1.
<mgrwt>
<rscale>  1 0.12839441E+03</rscale>
<asrwt>0</asrwt>
<pdfrwt beam="2">  1       21 0.85376276E-03 0.12839441E+03</pdfrwt>
<pdfrwt beam="1">  1       -4 0.19357558E+00 0.12839441E+03</pdfrwt>
<totfact> 0.31122912E+04</totfact>
</mgrwt>
</event>
<event>
 6    3  0.3813045E-003  0.1367152E+03  0.7818608E-02  0.1217818E+00
         21   -1    0    0  501  502  0.00000000000E+00  0.00000000000E+00  0.10814745959E+03  0.10814745959E+03  0.00000000000E+00 0. -1.
          4   -1    0    0  502    0 -0.00000000000E+00 -0.00000000000E+00 -0.85404468442E+02  0.85413910635E+02  0.12700000000E+01 0.  1.
         25    2    1    2    0    0  0.14509665286E+02  0.53440716983E+02  0.13141966620E+02  0.13734541884E+03  0.12499844868E+03 0.  0.
    9000005    1    3    3    0    0 -0.55545301473E+02  0.27597112413E+02  0.52536092543E+01  0.62253365688E+02  0.10000000000E+01 0.  0.
    9000005    1    3    3    0    0  0.70054966759E+02  0.25843604569E+02  0.78883573657E+01  0.75092053153E+02  0.10000000000E+01 0.  0.
          4    1    1    2  501    0 -0.14509665286E+02 -0.53440716983E+02  0.96010245312E+01  0.56215951387E+02  0.12700000000E+01 0. -1.
<mgrwt>
<rscale>  1 0.13671523E+03</rscale>
<asrwt>0</asrwt>
<pdfrwt beam="1">  1       21 0.16638071E-01 0.13671523E+03</pdfrwt>
<pdfrwt beam="2">  1        4 0.13140449E-01 0.13671523E+03</pdfrwt>
<totfact> 0.62435008E+04</totfact>
</mgrwt>
</event>
<event>
 6    3  0.3813045E-003  0.1301366E+03  0.7818608E-02  0.1227253E+00
         -4   -1    0    0    0  501 -0.00000000000E+00  0.00000000000E+00  0.13330580597E+03  0.13331185546E+03  0.12700000000E+01 0.  1.
         21   -1    0    0  501  502  0.00000000000E+00 -0.00000000000E+00 -0.74881634952E+02  0.74881634952E+02  0.00000000000E+00 0. -1.
         25    2    1    2    0    0 -0.34543038984E+02  0.10818096576E+02  0.91547637511E+02  0.15911162320E+03  0.12500114379E+03 0.  0.
    9000005    1    3    3    0    0 -0.23713921692E+02 -0.49684961845E+02  0.79121130734E+02  0.96395533321E+02  0.10000000000E+01 0.  0.
    9000005    1    3    3    0    0 -0.10829117292E+02  0.60503058421E+02  0.12426506776E+02  0.62716089884E+02  0.10000000000E+01 0.  0.
         -4    1    1    2    0  502  0.34543038984E+02 -0.10818096576E+02 -0.33123466493E+02  0.49081867205E+02  0.12700000000E+01 0. -1.
<mgrwt>
<rscale>  1 0.13013662E+03</rscale>
<asrwt>0</asrwt>
<pdfrwt beam="2">  1       21 0.11520252E-01 0.13013662E+03</pdfrwt>
<pdfrwt beam="1">  1       -4 0.20509879E-01 0.13013662E+03</pdfrwt>
<totfact> 0.54749436E+04</totfact>
</mgrwt>
</event>
<event>
 6    3  0.3813045E-003  0.1277603E+03  0.7818608E-02  0.1230817E+00
         21   -1    0    0  501  502  0.00000000000E+00  0.00000000000E+00  0.17803098660E+03  0.17803098660E+03  0.00000000000E+00 0.  1.
         -4   -1    0    0    0  501 -0.00000000000E+00 -0.00000000000E+00 -0.36812762778E+02  0.36834663068E+02  0.12700000000E+01 0.  1.
         25    2    1    2    0    0  0.76065514259E+01 -0.25293109549E+02  0.87078770218E+02  0.15461372562E+03  0.12500036365E+03 0.  0.
    9000005    1    3    3    0    0  0.47781907134E+02  0.20725763570E+02  0.76584940896E+02  0.92622465401E+02  0.10000000000E+01 0.  0.
    9000005    1    3    3    0    0 -0.40175355708E+02 -0.46018873119E+02  0.10493829321E+02  0.61991260217E+02  0.10000000000E+01 0.  0.
         -4    1    1    2    0  502 -0.76065514259E+01  0.25293109549E+02  0.54139453608E+02  0.60251924054E+02  0.12700000000E+01 0. -1.
<mgrwt>
<rscale>  1 0.12776029E+03</rscale>
<asrwt>0</asrwt>
<pdfrwt beam="1">  1       21 0.27389382E-01 0.12776029E+03</pdfrwt>
<pdfrwt beam="2">  1       -4 0.56655352E-02 0.12776029E+03</pdfrwt>
<totfact> 0.99442180E+04</totfact>
</mgrwt>
</event>
<event>
 6    3  0.3813045E-003  0.1288614E+03  0.7818608E-02  0.1229155E+00
         -4   -1    0    0    0  501 -0.00000000000E+00  0.00000000000E+00  0.52123115284E+03  0.52123270004E+03  0.12700000000E+01 0. -1.
         21   -1    0    0  501  502  0.00000000000E+00 -0.00000000000E+00 -0.12594660279E+02  0.12594660279E+02  0.00000000000E+00 0. -1.
         25    2    1    2    0    0  0.16437244222E+02  0.26416032201E+02  0.43951144940E+03  0.45801262398E+03  0.12504902963E+03 0.  0.
    9000005    1    3    3    0    0  0.37794050564E+02 -0.42059847088E+02  0.21536018040E+03  0.22266213935E+03  0.10000000000E+01 0.  0.
    9000005    1    3    3    0    0 -0.21356806342E+02  0.68475879289E+02  0.22415126900E+03  0.23535048463E+03  0.10000000000E+01 0.  0.
         -4    1    1    2    0  502 -0.16437244222E+02 -0.26416032201E+02  0.69125043154E+02  0.75814736337E+02  0.12700000000E+01 0.  1.
<mgrwt>
<rscale>  1 0.12886136E+03</rscale>
<asrwt>0</asrwt>
<pdfrwt beam="2">  1       21 0.19376405E-02 0.12886136E+03</pdfrwt>
<pdfrwt beam="1">  1       -4 0.80194436E-01 0.12886136E+03</pdfrwt>
<totfact> 0.73193631E+04</totfact>
</mgrwt>
</event>
<event>
 6    3  0.3813045E-003  0.1278446E+03  0.7818608E-02  0.1230689E+00
         21   -1    0    0  501  502  0.00000000000E+00  0.00000000000E+00  0.35037079666E+03  0.35037079666E+03  0.00000000000E+00 0.  1.
          4   -1    0    0  502    0 -0.00000000000E+00 -0.00000000000E+00 -0.21143110720E+02  0.21181218825E+02  0.12700000000E+01 0.  1.
         25    2    1    2    0    0  0.23551311714E+02 -0.12826878771E+02  0.18518275136E+03  0.22502642325E+03  0.12500018663E+03 0.  0.
    9000005    1    3    3    0    0 -0.38805438030E+01 -0.64659187285E+02  0.67618752375E+02  0.93643818767E+02  0.10000000000E+01 0.  0.
    9000005    1    3    3    0    0  0.27431855517E+02  0.51832308514E+02  0.11756399899E+03  0.13138260448E+03  0.10000000000E+01 0.  0.
          4    1    1    2  501    0 -0.23551311714E+02  0.12826878771E+02  0.14404493458E+03  0.14652559224E+03  0.12700000000E+01 0. -1.
<mgrwt>
<rscale>  1 0.12784459E+03</rscale>
<asrwt>0</asrwt>
<pdfrwt beam="1">  1       21 0.53903195E-01 0.12784459E+03</pdfrwt>
<pdfrwt beam="2">  1        4 0.32558950E-02 0.12784459E+03</pdfrwt>
<totfact> 0.62425525E+04</totfact>
</mgrwt>
</event>
<event>
 6    3  0.3813045E-003  0.1469400E+03  0.7818608E-02  0.1204284E+00
         -4   -1    0    0    0  501 -0.00000000000E+00  0.00000000000E+00  0.66951811519E+02  0.66963855666E+02  0.12700000000E+01 0. -1.
         21   -1    0    0  501  502  0.00000000000E+00 -0.00000000000E+00 -0.17403491454E+04  0.17403491454E+04  0.00000000000E+00 0.  1.
         25    2    1    2    0    0 -0.54388628952E+02 -0.54882233326E+02 -0.15656261197E+02  0.14777172124E+03  0.12498472142E+03 0.  0.
    9000005    1    3    3    0    0 -0.21070993961E+02 -0.11706729382E+02  0.54091826158E+02  0.59228033535E+02  0.10000000000E+01 0.  0.
    9000005    1    3    3    0    0 -0.33317634991E+02 -0.43175503944E+02 -0.69748087355E+02  0.88543687702E+02  0.10000000000E+01 0.  0.
         -4    1    1    2    0  502  0.54388628952E+02  0.54882233326E+02 -0.16577410727E+04  0.16595412798E+04  0.12700000000E+01 0.  1.
<mgrwt>
<rscale>  1 0.14694000E+03</rscale>
<asrwt>0</asrwt>
<pdfrwt beam="2">  1       21 0.26774600E+00 0.14694000E+03</pdfrwt>
<pdfrwt beam="1">  1       -4 0.10301242E-01 0.14694000E+03</pdfrwt>
<totfact> 0.16366624E+02</totfact>
</mgrwt>
</event>
<event>
 6    3  0.3813045E-003  0.1273953E+03  0.7818608E-02  0.1231373E+00
         21   -1    0    0  501  502  0.00000000000E+00  0.00000000000E+00  0.50020122161E+02  0.50020122161E+02  0.00000000000E+00 0. -1.
         -4   -1    0    0    0  501 -0.00000000000E+00 -0.00000000000E+00 -0.11568325010E+03  0.11569022108E+03  0.12700000000E+01 0. -1.
         25    2    1    2    0    0 -0.45473567031E+01  0.24248403095E+02 -0.56496387865E+02  0.13936066527E+03  0.12498355763E+03 0.  0.
    9000005    1    3    3    0    0 -0.43936294925E+02 -0.31385398689E+02 -0.56196552613E+01  0.54295688483E+02  0.10000000000E+01 0.  0.
    9000005    1    3    3    0    0  0.39388938222E+02  0.55633801784E+02 -0.50876732604E+02  0.85064976786E+02  0.10000000000E+01 0.  0.
         -4    1    1    2    0  502  0.45473567031E+01 -0.24248403095E+02 -0.91667400727E+01  0.26349677971E+02  0.12700000000E+01 0.  1.
<mgrwt>
<rscale>  1 0.12739526E+03</rscale>
<asrwt>0</asrwt>
<pdfrwt beam="1">  1       21 0.76954034E-02 0.12739526E+03</pdfrwt>
<pdfrwt beam="2">  1       -4 0.17799200E-01 0.12739526E+03</pdfrwt>
<totfact> 0.14206464E+05</totfact>
</mgrwt>
</event>
<event>
 6    3  0.3813045E-003  0.1282215E+03  0.7818608E-02  0.1230119E+00
         21   -1    0    0  501  502  0.00000000000E+00  0.00000000000E+00  0.44423507691E+02  0.44423507691E+02  0.00000000000E+00 0. -1.
         -4   -1    0    0    0  501 -0.00000000000E+00 -0.00000000000E+00 -0.14402324175E+03  0.14402884108E+03  0.12700000000E+01 0. -1.
         25    2    1    2    0    0  0.89719486017E+01  0.27014107236E+02 -0.65396143571E+02  0.14393542667E+03  0.12502197249E+03 0.  0.
    9000005    1    3    3    0    0 -0.30087116112E+01  0.60038588326E+02 -0.84676189065E+02  0.10384960967E+03  0.10000000000E+01 0.  0.
    9000005    1    3    3    0    0  0.11980660213E+02 -0.33024481090E+02  0.19280045494E+02  0.40085817001E+02  0.10000000000E+01 0.  0.
         -4    1    1    2    0  502 -0.89719486017E+01 -0.27014107236E+02 -0.34203590485E+02  0.44516922103E+02  0.12700000000E+01 0.  1.
<mgrwt>
<rscale>  1 0.12822149E+03</rscale>
<asrwt>0</asrwt>
<pdfrwt beam="1">  1       21 0.68343859E-02 0.12822149E+03</pdfrwt>
<pdfrwt beam="2">  1       -4 0.22159249E-01 0.12822149E+03</pdfrwt>
<totfact> 0.11759219E+05</totfact>
</mgrwt>
</event>
<event>
 6    3  0.3813045E-003  0.1285398E+03  0.7818608E-02  0.1229639E+00
         21   -1    0    0  501  502  0.00000000000E+00  0.00000000000E+00  0.21699936610E+03  0.21699936610E+03  0.00000000000E+00 0.  1.
         -4   -1    0    0    0  501 -0.00000000000E+00 -0.00000000000E+00 -0.30378362748E+02  0.30404898014E+02  0.12700000000E+01 0.  1.
         25    2    1    2    0    0  0.19914025207E+02  0.22363227031E+02  0.17002237962E+03  0.21314336026E+03  0.12500320047E+03 0.  0.
    9000005    1    3    3    0    0  0.19218409431E+02 -0.61671934954E+01 -0.15479856630E+02  0.25455991396E+02  0.10000000000E+01 0.  0.
    9000005    1    3    3    0    0  0.69561577670E+00  0.28530420526E+02  0.18550223625E+03  0.18768736887E+03  0.10000000000E+01 0.  0.
         -4    1    1    2    0  502 -0.19914025207E+02 -0.22363227031E+02  0.16598623732E+02  0.34260903855E+02  0.12700000000E+01 0. -1.
<mgrwt>
<rscale>  1 0.12853981E+03</rscale>
<asrwt>0</asrwt>
<pdfrwt beam="1">  1       21 0.33384517E-01 0.12853981E+03</pdfrwt>
<pdfrwt beam="2">  1       -4 0.46759214E-02 0.12853981E+03</pdfrwt>
<totfact> 0.92484614E+04</totfact>
</mgrwt>
</event>
<event>
 6    3  0.3813045E-003  0.1298067E+03  0.7818608E-02  0.1227743E+00
          4   -1    0    0  502    0 -0.00000000000E+00  0.00000000000E+00  0.30285856626E+03  0.30286122904E+03  0.12700000000E+01 0. -1.
         21   -1    0    0  501  502  0.00000000000E+00 -0.00000000000E+00 -0.22844651175E+02  0.22844651175E+02  0.00000000000E+00 0. -1.
         25    2    1    2    0    0  0.15473982267E+02 -0.31307686508E+02  0.23763349430E+03  0.27077566697E+03  0.12502067368E+03 0.  0.
    9000005    1    3    3    0    0  0.40882978787E+02  0.34638346040E+02  0.14261645410E+03  0.15235381830E+03  0.10000000000E+01 0.  0.
    9000005    1    3    3    0    0 -0.25408996520E+02 -0.65946032548E+02  0.95017040200E+02  0.11842184867E+03  0.10000000000E+01 0.  0.
          4    1    1    2  501    0 -0.15473982267E+02  0.31307686508E+02  0.42380420778E+02  0.54930213243E+02  0.12700000000E+01 0.  1.
<mgrwt>
<rscale>  1 0.12980672E+03</rscale>
<asrwt>0</asrwt>
<pdfrwt beam="2">  1       21 0.35145619E-02 0.12980672E+03</pdfrwt>
<pdfrwt beam="1">  1        4 0.46596543E-01 0.12980672E+03</pdfrwt>
<totfact> 0.87074771E+04</totfact>
</mgrwt>
</event>
<event>
 6    3  0.3813045E-003  0.1282916E+03  0.7818608E-02  0.1230013E+00
         21   -1    0    0  501  502  0.00000000000E+00  0.00000000000E+00  0.26695208567E+01  0.26695208567E+01  0.00000000000E+00 0. -1.
         -4   -1    0    0    0  501 -0.00000000000E+00 -0.00000000000E+00 -0.23623731995E+04  0.23623735409E+04  0.12700000000E+01 0. -1.
         25    2    1    2    0    0 -0.76464571265E+01 -0.27844614356E+02 -0.20425821489E+04  0.20466070896E+04  0.12499981244E+03 0.  0.
    9000005    1    3    3    0    0  0.28091623747E+02 -0.67773324291E+02 -0.13219991353E+04  0.13240336388E+04  0.10000000000E+01 0.  0.
    9000005    1    3    3    0    0 -0.35738080874E+02  0.39928709935E+02 -0.72058301359E+03  0.72257345078E+03  0.10000000000E+01 0.  0.
         -4    1    1    2    0  502  0.76464571265E+01  0.27844614356E+02 -0.31712152974E+03  0.31843597218E+03  0.12700000000E+01 0.  1.
<mgrwt>
<rscale>  1 0.12829164E+03</rscale>
<asrwt>0</asrwt>
<pdfrwt beam="1">  1       21 0.41069607E-03 0.12829164E+03</pdfrwt>
<pdfrwt beam="2">  1       -4 0.36346481E+00 0.12829164E+03</pdfrwt>
<totfact> 0.96638835E+03</totfact>
</mgrwt>
</event>
<event>
 6    3  0.3813045E-003  0.1285256E+03  0.7818608E-02  0.1229660E+00
          4   -1    0    0  502    0 -0.00000000000E+00  0.00000000000E+00  0.85020582409E+02  0.85030067230E+02  0.12700000000E+01 0. -1.
         21   -1    0    0  501  502  0.00000000000E+00 -0.00000000000E+00 -0.95861014756E+02  0.95861014756E+02  0.00000000000E+00 0.  1.
         25    2    1    2    0    0 -0.23226255114E+02 -0.18826462428E+02  0.28317027194E+02  0.13160808135E+03  0.12499975373E+03 0.  0.
    9000005    1    3    3    0    0 -0.55478490325E+02 -0.17311612458E+02  0.61967571585E+02  0.84961960563E+02  0.10000000000E+01 0.  0.
    9000005    1    3    3    0    0  0.32252235210E+02 -0.15148499706E+01 -0.33650544391E+02  0.46646120785E+02  0.10000000000E+01 0.  0.
          4    1    1    2  501    0  0.23226255114E+02  0.18826462428E+02 -0.39157459540E+02  0.49283000638E+02  0.12700000000E+01 0.  1.
<mgrwt>
<rscale>  1 0.12852561E+03</rscale>
<asrwt>0</asrwt>
<pdfrwt beam="2">  1       21 0.14747848E-01 0.12852561E+03</pdfrwt>
<pdfrwt beam="1">  1        4 0.13081466E-01 0.12852561E+03</pdfrwt>
<totfact> 0.77660789E+04</totfact>
</mgrwt>
</event>
<event>
 6    3  0.3813045E-003  0.1291494E+03  0.7818608E-02  0.1228723E+00
         21   -1    0    0  501  502  0.00000000000E+00  0.00000000000E+00  0.64224077894E+02  0.64224077894E+02  0.00000000000E+00 0.  1.
         -4   -1    0    0    0  501 -0.00000000000E+00 -0.00000000000E+00 -0.11234046400E+03  0.11234764240E+03  0.12700000000E+01 0.  1.
         25    2    1    2    0    0  0.35629178931E+01  0.32260054102E+02 -0.59442794768E+02  0.14217250652E+03  0.12500468106E+03 0.  0.
    9000005    1    3    3    0    0  0.47048314186E+02  0.47267136906E+02 -0.68133279195E+02  0.95346053054E+02  0.10000000000E+01 0.  0.
    9000005    1    3    3    0    0 -0.43485396293E+02 -0.15007082804E+02  0.86904844275E+01  0.46826453471E+02  0.10000000000E+01 0.  0.
         -4    1    1    2    0  502 -0.35629178931E+01 -0.32260054102E+02  0.11326408659E+02  0.34399213766E+02  0.12700000000E+01 0. -1.
<mgrwt>
<rscale>  1 0.12914943E+03</rscale>
<asrwt>0</asrwt>
<pdfrwt beam="1">  1       21 0.98806275E-02 0.12914943E+03</pdfrwt>
<pdfrwt beam="2">  1       -4 0.17284666E-01 0.12914943E+03</pdfrwt>
<totfact> 0.97221276E+04</totfact>
</mgrwt>
</event>
<event>
 6    3  0.3813045E-003  0.1296015E+03  0.7818608E-02  0.1228048E+00
          4   -1    0    0  502    0 -0.00000000000E+00  0.00000000000E+00  0.57874995848E+02  0.57888928513E+02  0.12700000000E+01 0.  1.
         21   -1    0    0  501  502  0.00000000000E+00 -0.00000000000E+00 -0.31333563738E+03  0.31333563738E+03  0.00000000000E+00 0. -1.
         25    2    1    2    0    0  0.28388438874E+02  0.19116062775E+02 -0.17459957641E+02  0.13077235494E+03  0.12500092551E+03 0.  0.
    9000005    1    3    3    0    0 -0.17332067841E+01  0.51943743398E+02  0.34446815445E+02  0.62359759286E+02  0.10000000000E+01 0.  0.
    9000005    1    3    3    0    0  0.30121645658E+02 -0.32827680623E+02 -0.51906773086E+02  0.68412595656E+02  0.10000000000E+01 0.  0.
          4    1    1    2  501    0 -0.28388438874E+02 -0.19116062775E+02 -0.23800068390E+03  0.24045221095E+03  0.12700000000E+01 0. -1.
<mgrwt>
<rscale>  1 0.12960154E+03</rscale>
<asrwt>0</asrwt>
<pdfrwt beam="2">  1       21 0.48205483E-01 0.12960154E+03</pdfrwt>
<pdfrwt beam="1">  1        4 0.89051152E-02 0.12960154E+03</pdfrwt>
<totfact> 0.15511823E+04</totfact>
</mgrwt>
</event>
<event>
 6    3  0.3813045E-003  0.1268104E+03  0.7818608E-02  0.1232267E+00
         21   -1    0    0  501  502  0.00000000000E+00  0.00000000000E+00  0.64746869236E+03  0.64746869236E+03  0.00000000000E+00 0.  1.
         -4   -1    0    0    0  501 -0.00000000000E+00 -0.00000000000E+00 -0.20700037917E+02  0.20738960190E+02  0.12700000000E+01 0. -1.
         25    2    1    2    0    0  0.10080496996E+02  0.18810591002E+02  0.17596626349E+03  0.21689859731E+03  0.12500168349E+03 0.  0.
    9000005    1    3    3    0    0  0.31433741611E+02  0.43963297343E+02  0.20251097566E+02  0.57723119957E+02  0.10000000000E+01 0.  0.
    9000005    1    3    3    0    0 -0.21353244615E+02 -0.25152706341E+02  0.15571516593E+03  0.15917547735E+03  0.10000000000E+01 0.  0.
         -4    1    1    2    0  502 -0.10080496996E+02 -0.18810591002E+02  0.45080239095E+03  0.45130905524E+03  0.12700000000E+01 0.  1.
<mgrwt>
<rscale>  1 0.12681039E+03</rscale>
<asrwt>0</asrwt>
<pdfrwt beam="1">  1       21 0.99610553E-01 0.12681039E+03</pdfrwt>
<pdfrwt beam="2">  1       -4 0.31877115E-02 0.12681039E+03</pdfrwt>
<totfact> 0.16683408E+04</totfact>
</mgrwt>
</event>
<event>
 6    3  0.3813045E-003  0.1277547E+03  0.7818608E-02  0.1230826E+00
         21   -1    0    0  501  502  0.00000000000E+00  0.00000000000E+00  0.21243801044E+02  0.21243801044E+02  0.00000000000E+00 0. -1.
          4   -1    0    0  502    0 -0.00000000000E+00 -0.00000000000E+00 -0.28913202107E+03  0.28913481026E+03  0.12700000000E+01 0. -1.
         25    2    1    2    0    0  0.94940645227E+01 -0.24618169844E+02 -0.24050603438E+03  0.27233142300E+03  0.12500023933E+03 0.  0.
    9000005    1    3    3    0    0 -0.79370398793E+01  0.50224406648E+02 -0.99330350421E+02  0.11159303804E+03  0.10000000000E+01 0.  0.
    9000005    1    3    3    0    0  0.17431104402E+02 -0.74842576493E+02 -0.14117568395E+03  0.16073838495E+03  0.10000000000E+01 0.  0.
          4    1    1    2  501    0 -0.94940645227E+01  0.24618169844E+02 -0.27382185646E+02  0.38047188311E+02  0.12700000000E+01 0.  1.
<mgrwt>
<rscale>  1 0.12775465E+03</rscale>
<asrwt>0</asrwt>
<pdfrwt beam="1">  1       21 0.32682774E-02 0.12775465E+03</pdfrwt>
<pdfrwt beam="2">  1        4 0.44484980E-01 0.12775465E+03</pdfrwt>
<totfact> 0.10746282E+05</totfact>
</mgrwt>
</event>
<event>
 6    3  0.3813045E-003  0.1289367E+03  0.7818608E-02  0.1229042E+00
         -4   -1    0    0    0  501 -0.00000000000E+00  0.00000000000E+00  0.32820397638E+03  0.32820643353E+03  0.12700000000E+01 0.  1.
         21   -1    0    0  501  502  0.00000000000E+00 -0.00000000000E+00 -0.20007093406E+02  0.20007093406E+02  0.00000000000E+00 0.  1.
         25    2    1    2    0    0  0.24540610074E+02  0.19940600432E+02  0.26458549588E+03  0.29432999445E+03  0.12499916767E+03 0.  0.
    9000005    1    3    3    0    0 -0.23791879057E+02  0.58657833078E+02  0.98689018522E+02  0.11724895423E+03  0.10000000000E+01 0.  0.
    9000005    1    3    3    0    0  0.48332489131E+02 -0.38717232645E+02  0.16589647736E+03  0.17708104023E+03  0.10000000000E+01 0.  0.
         -4    1    1    2    0  502 -0.24540610074E+02 -0.19940600432E+02  0.43611387098E+02  0.53883532485E+02  0.12700000000E+01 0. -1.
<mgrwt>
<rscale>  1 0.12893666E+03</rscale>
<asrwt>0</asrwt>
<pdfrwt beam="2">  1       21 0.30780146E-02 0.12893666E+03</pdfrwt>
<pdfrwt beam="1">  1       -4 0.50496205E-01 0.12893666E+03</pdfrwt>
<totfact> 0.91966487E+04</totfact>
</mgrwt>
</event>
<event>
 6    3  0.3813045E-003  0.1307062E+03  0.7818608E-02  0.1226412E+00
         21   -1    0    0  501  502  0.00000000000E+00  0.00000000000E+00  0.61147657114E+02  0.61147657114E+02  0.00000000000E+00 0.  1.
          4   -1    0    0  502    0 -0.00000000000E+00 -0.00000000000E+00 -0.14234811138E+03  0.14235377661E+03  0.12700000000E+01 0. -1.
         25    2    1    2    0    0  0.37726594402E+02  0.59117201434E+01 -0.96369737134E+02  0.16239225709E+03  0.12500349823E+03 0.  0.
    9000005    1    3    3    0    0 -0.21139331442E+02 -0.42641653912E+02 -0.12953760852E+02  0.49335402120E+02  0.10000000000E+01 0.  0.
    9000005    1    3    3    0    0  0.58865925844E+02  0.48553374055E+02 -0.83415976281E+02  0.11305685497E+03  0.10000000000E+01 0.  0.
          4    1    1    2  501    0 -0.37726594402E+02 -0.59117201434E+01  0.15169282865E+02  0.41109176626E+02  0.12700000000E+01 0.  1.
<mgrwt>
<rscale>  1 0.13070623E+03</rscale>
<asrwt>0</asrwt>
<pdfrwt beam="1">  1       21 0.94073319E-02 0.13070623E+03</pdfrwt>
<pdfrwt beam="2">  1        4 0.21901160E-01 0.13070623E+03</pdfrwt>
<totfact> 0.69416719E+04</totfact>
</mgrwt>
</event>
<event>
 6    3  0.3813045E-003  0.1382334E+03  0.7818608E-02  0.1215726E+00
          4   -1    0    0  502    0 -0.00000000000E+00  0.00000000000E+00  0.10383969977E+03  0.10384746578E+03  0.12700000000E+01 0.  1.
         21   -1    0    0  501  502  0.00000000000E+00 -0.00000000000E+00 -0.27032406813E+03  0.27032406813E+03  0.00000000000E+00 0. -1.
         25    2    1    2    0    0 -0.10576101271E+02 -0.58054330185E+02  0.52124841399E+02  0.14773443743E+03  0.12500522285E+03 0.  0.
    9000005    1    3    3    0    0 -0.11949426473E+02  0.99709564161E+01 -0.34333877576E+02  0.37709732355E+02  0.10000000000E+01 0.  0.
    9000005    1    3    3    0    0  0.13733252025E+01 -0.68025286601E+02  0.86458718975E+02  0.11002470507E+03  0.10000000000E+01 0.  0.
          4    1    1    2  501    0  0.10576101271E+02  0.58054330185E+02 -0.21860920976E+03  0.22643709648E+03  0.12700000000E+01 0. -1.
<mgrwt>
<rscale>  1 0.13823337E+03</rscale>
<asrwt>0</asrwt>
<pdfrwt beam="2">  1       21 0.41588318E-01 0.13823337E+03</pdfrwt>
<pdfrwt beam="1">  1        4 0.15976165E-01 0.13823337E+03</pdfrwt>
<totfact> 0.77442751E+03</totfact>
</mgrwt>
</event>
<event>
 6    3  0.3813045E-003  0.1279930E+03  0.7818608E-02  0.1230464E+00
         21   -1    0    0  501  502  0.00000000000E+00  0.00000000000E+00  0.67704289011E+03  0.67704289011E+03  0.00000000000E+00 0. -1.
         -4   -1    0    0    0  501 -0.00000000000E+00 -0.00000000000E+00 -0.14605698645E+02  0.14660809422E+02  0.12700000000E+01 0. -1.
         25    2    1    2    0    0  0.24328822122E+02  0.13012249395E+02  0.27548068483E+03  0.30376277472E+03  0.12498402045E+03 0.  0.
    9000005    1    3    3    0    0  0.15253088896E+02  0.56971825657E+02  0.61863492841E+02  0.85478286050E+02  0.10000000000E+01 0.  0.
    9000005    1    3    3    0    0  0.90757332258E+01 -0.43959576262E+02  0.21361719199E+03  0.21828448867E+03  0.10000000000E+01 0.  0.
         -4    1    1    2    0  502 -0.24328822122E+02 -0.13012249395E+02  0.38695650664E+03  0.38794092482E+03  0.12700000000E+01 0.  1.
<mgrwt>
<rscale>  1 0.12799303E+03</rscale>
<asrwt>0</asrwt>
<pdfrwt beam="1">  1       21 0.10416042E+00 0.12799303E+03</pdfrwt>
<pdfrwt beam="2">  1       -4 0.22513620E-02 0.12799303E+03</pdfrwt>
<totfact> 0.25825604E+04</totfact>
</mgrwt>
</event>
<event>
 6    3  0.3813045E-003  0.1410815E+03  0.7818608E-02  0.1211881E+00
         21   -1    0    0  501  502  0.00000000000E+00  0.00000000000E+00  0.21942012444E+02  0.21942012444E+02  0.00000000000E+00 0.  1.
         -4   -1    0    0    0  501 -0.00000000000E+00 -0.00000000000E+00 -0.13584561909E+04  0.13584567845E+04  0.12700000000E+01 0. -1.
         25    2    1    2    0    0 -0.49222503876E+02  0.43078451493E+02 -0.12955496391E+04  0.13032086794E+04  0.12500154697E+03 0.  0.
    9000005    1    3    3    0    0  0.55907608944E+01  0.72689781820E+02 -0.87978632221E+03  0.88280237525E+03  0.10000000000E+01 0.  0.
    9000005    1    3    3    0    0 -0.54813264770E+02 -0.29611330327E+02 -0.41576331692E+03  0.42040630416E+03  0.10000000000E+01 0.  0.
         -4    1    1    2    0  502  0.49222503876E+02 -0.43078451493E+02 -0.40964539306E+02  0.77190117576E+02  0.12700000000E+01 0.  1.
<mgrwt>
<rscale>  1 0.14108152E+03</rscale>
<asrwt>0</asrwt>
<pdfrwt beam="1">  1       21 0.33756937E-02 0.14108152E+03</pdfrwt>
<pdfrwt beam="2">  1       -4 0.20899617E+00 0.14108152E+03</pdfrwt>
<totfact> 0.27627422E+03</totfact>
</mgrwt>
</event>
<event>
 6    3  0.3813045E-003  0.1279144E+03  0.7818608E-02  0.1230584E+00
         21   -1    0    0  501  502  0.00000000000E+00  0.00000000000E+00  0.29870154443E+03  0.29870154443E+03  0.00000000000E+00 0.  1.
         -4   -1    0    0    0  501 -0.00000000000E+00 -0.00000000000E+00 -0.79263635518E+02  0.79273809140E+02  0.12700000000E+01 0. -1.
         25    2    1    2    0    0 -0.70344614514E+01  0.26220729259E+02 -0.26424601726E+02  0.13061529752E+03  0.12500034432E+03 0.  0.
    9000005    1    3    3    0    0 -0.56952073574E+02  0.17607482931E+02 -0.47013567293E+02  0.75926527967E+02  0.10000000000E+01 0.  0.
    9000005    1    3    3    0    0  0.49917612122E+02  0.86132463283E+01  0.20588965566E+02  0.54688769555E+02  0.10000000000E+01 0.  0.
         -4    1    1    2    0  502  0.70344614514E+01 -0.26220729259E+02  0.24586251064E+03  0.24736005605E+03  0.12700000000E+01 0.  1.
<mgrwt>
<rscale>  1 0.12791441E+03</rscale>
<asrwt>0</asrwt>
<pdfrwt beam="1">  1       21 0.45954083E-01 0.12791441E+03</pdfrwt>
<pdfrwt beam="2">  1       -4 0.12195396E-01 0.12791441E+03</pdfrwt>
<totfact> 0.10047080E+04</totfact>
</mgrwt>
</event>
<event>
 6    3  0.3813045E-003  0.1278728E+03  0.7818608E-02  0.1230647E+00
         21   -1    0    0  501  502  0.00000000000E+00  0.00000000000E+00  0.48216179043E+03  0.48216179043E+03  0.00000000000E+00 0. -1.
         -4   -1    0    0    0  501 -0.00000000000E+00 -0.00000000000E+00 -0.19631111939E+02  0.19672149246E+02  0.12700000000E+01 0. -1.
         25    2    1    2    0    0 -0.26974506865E+02 -0.80714268570E+00  0.19655375837E+03  0.23448845077E+03  0.12499271225E+03 0.  0.
    9000005    1    3    3    0    0 -0.62560156161E+02  0.27847572789E+02  0.61982584167E+02  0.92369373654E+02  0.10000000000E+01 0.  0.
    9000005    1    3    3    0    0  0.35585649296E+02 -0.28654715475E+02  0.13457117420E+03  0.14211907712E+03  0.10000000000E+01 0.  0.
         -4    1    1    2    0  502  0.26974506865E+02  0.80714268570E+00  0.26597692013E+03  0.26734548891E+03  0.12700000000E+01 0.  1.
<mgrwt>
<rscale>  1 0.12787280E+03</rscale>
<asrwt>0</asrwt>
<pdfrwt beam="1">  1       21 0.74178728E-01 0.12787280E+03</pdfrwt>
<pdfrwt beam="2">  1       -4 0.30234568E-02 0.12787280E+03</pdfrwt>
<totfact> 0.35374848E+04</totfact>
</mgrwt>
</event>
<event>
 6    3  0.3813045E-003  0.1301636E+03  0.7818608E-02  0.1227213E+00
         21   -1    0    0  501  502  0.00000000000E+00  0.00000000000E+00  0.39810818637E+02  0.39810818637E+02  0.00000000000E+00 0.  1.
          4   -1    0    0  502    0 -0.00000000000E+00 -0.00000000000E+00 -0.23401013778E+03  0.23401358397E+03  0.12700000000E+01 0.  1.
         25    2    1    2    0    0  0.34424337673E+02 -0.11561820368E+02 -0.19835698874E+03  0.23725105397E+03  0.12499542757E+03 0.  0.
    9000005    1    3    3    0    0  0.16949630140E+02 -0.66948275743E+02 -0.13262302953E+03  0.14953002892E+03  0.10000000000E+01 0.  0.
    9000005    1    3    3    0    0  0.17474707533E+02  0.55386455374E+02 -0.65733959208E+02  0.87721025048E+02  0.10000000000E+01 0.  0.
          4    1    1    2  501    0 -0.34424337673E+02  0.11561820368E+02  0.41576695961E+01  0.36573348643E+02  0.12700000000E+01 0. -1.
<mgrwt>
<rscale>  1 0.13016362E+03</rscale>
<asrwt>0</asrwt>
<pdfrwt beam="1">  1       21 0.61247414E-02 0.13016362E+03</pdfrwt>
<pdfrwt beam="2">  1        4 0.36003382E-01 0.13016362E+03</pdfrwt>
<totfact> 0.57190631E+04</totfact>
</mgrwt>
</event>
<event>
 6    3  0.3813045E-003  0.1845837E+03  0.7818608E-02  0.1163439E+00
         21   -1    0    0  501  502  0.00000000000E+00  0.00000000000E+00  0.31545943187E+02  0.31545943187E+02  0.00000000000E+00 0.  1.
         -4   -1    0    0    0  501 -0.00000000000E+00 -0.00000000000E+00 -0.88888814389E+03  0.88888905114E+03  0.12700000000E+01 0. -1.
         25    2    1    2    0    0 -0.59573880896E+02  0.12205318165E+03 -0.62092476282E+03  0.64777981967E+03  0.12500042900E+03 0.  0.
    9000005    1    3    3    0    0  0.94976324535E+01  0.10979880284E+03 -0.30913170948E+03  0.32819109667E+03  0.10000000000E+01 0.  0.
    9000005    1    3    3    0    0 -0.69071513350E+02  0.12254378809E+02 -0.31179305334E+03  0.31958872300E+03  0.10000000000E+01 0.  0.
         -4    1    1    2    0  502  0.59573880896E+02 -0.12205318165E+03 -0.23641743788E+03  0.27265517466E+03  0.12700000000E+01 0.  1.
<mgrwt>
<rscale>  1 0.18458368E+03</rscale>
<asrwt>0</asrwt>
<pdfrwt beam="1">  1       21 0.48532230E-02 0.18458368E+03</pdfrwt>
<pdfrwt beam="2">  1       -4 0.13675403E+00 0.18458368E+03</pdfrwt>
<totfact> 0.47689183E+03</totfact>
</mgrwt>
</event>
<event>
 6    3  0.3813045E-003  0.1304587E+03  0.7818608E-02  0.1226777E+00
         -4   -1    0    0    0  501 -0.00000000000E+00  0.00000000000E+00  0.36791936404E+03  0.36792155595E+03  0.12700000000E+01 0.  1.
         21   -1    0    0  501  502  0.00000000000E+00 -0.00000000000E+00 -0.19225541967E+02  0.19225541967E+02  0.00000000000E+00 0.  1.
         25    2    1    2    0    0 -0.43974207813E+01  0.37087540346E+02  0.28151267351E+03  0.31027224781E+03  0.12499863780E+03 0.  0.
    9000005    1    3    3    0    0 -0.14079366929E+02  0.82584603460E+02  0.18803454067E+03  0.20585537104E+03  0.10000000000E+01 0.  0.
    9000005    1    3    3    0    0  0.96819461476E+01 -0.45497063114E+02  0.93478132843E+02  0.10441687676E+03  0.10000000000E+01 0.  0.
         -4    1    1    2    0  502  0.43974207813E+01 -0.37087540346E+02  0.67181148554E+02  0.76874850111E+02  0.12700000000E+01 0. -1.
<mgrwt>
<rscale>  1 0.13045874E+03</rscale>
<asrwt>0</asrwt>
<pdfrwt beam="2">  1       21 0.29577760E-02 0.13045874E+03</pdfrwt>
<pdfrwt beam="1">  1       -4 0.56606369E-01 0.13045874E+03</pdfrwt>
<totfact> 0.77750783E+04</totfact>
</mgrwt>
</event>
<event>
 6    3  0.3813045E-003  0.1363916E+03  0.7818608E-02  0.1218269E+00
         -4   -1    0    0    0  501 -0.00000000000E+00  0.00000000000E+00  0.69011142701E+03  0.69011259559E+03  0.12700000000E+01 0.  1.
         21   -1    0    0  501  502  0.00000000000E+00 -0.00000000000E+00 -0.14322625667E+02  0.14322625667E+02  0.00000000000E+00 0. -1.
         25    2    1    2    0    0  0.43889344689E+02 -0.32409435872E+02  0.56088433726E+03  0.57722950253E+03  0.12500405071E+03 0.  0.
    9000005    1    3    3    0    0  0.42589627149E+02 -0.55260555629E+02  0.54476912516E+03  0.54921945074E+03  0.10000000000E+01 0.  0.
    9000005    1    3    3    0    0  0.12997175399E+01  0.22851119757E+02  0.16115212102E+02  0.28010051784E+02  0.10000000000E+01 0.  0.
         -4    1    1    2    0  502 -0.43889344689E+02  0.32409435872E+02  0.11490446408E+03  0.12720571873E+03  0.12700000000E+01 0. -1.
<mgrwt>
<rscale>  1 0.13639156E+03</rscale>
<asrwt>0</asrwt>
<pdfrwt beam="2">  1       21 0.22034814E-02 0.13639156E+03</pdfrwt>
<pdfrwt beam="1">  1       -4 0.10617538E+00 0.13639156E+03</pdfrwt>
<totfact> 0.31651008E+04</totfact>
</mgrwt>
</event>
<event>
 6    3  0.3813045E-003  0.1273063E+03  0.7818608E-02  0.1231508E+00
         21   -1    0    0  501  502  0.00000000000E+00  0.00000000000E+00  0.38466863137E+02  0.38466863137E+02  0.00000000000E+00 0.  1.
         -4   -1    0    0    0  501 -0.00000000000E+00 -0.00000000000E+00 -0.40502380836E+03  0.40502579947E+03  0.12700000000E+01 0. -1.
         25    2    1    2    0    0 -0.23921981664E+02 -0.30575770295E+01 -0.38974673201E+03  0.41001148737E+03  0.12500117870E+03 0.  0.
    9000005    1    3    3    0    0 -0.15007481273E+02  0.42280232393E+02 -0.33660832328E+03  0.33958652189E+03  0.10000000000E+01 0.  0.
    9000005    1    3    3    0    0 -0.89145003913E+01 -0.45337809423E+02 -0.53138408726E+02  0.70424965477E+02  0.10000000000E+01 0.  0.
         -4    1    1    2    0  502  0.23921981664E+02  0.30575770295E+01  0.23189786791E+02  0.33481175240E+02  0.12700000000E+01 0.  1.
<mgrwt>
<rscale>  1 0.12730634E+03</rscale>
<asrwt>0</asrwt>
<pdfrwt beam="1">  1       21 0.59179788E-02 0.12730634E+03</pdfrwt>
<pdfrwt beam="2">  1       -4 0.62313123E-01 0.12730634E+03</pdfrwt>
<totfact> 0.19969258E+04</totfact>
</mgrwt>
</event>
<event>
 6    3  0.3813045E-003  0.1274391E+03  0.7818608E-02  0.1231306E+00
         21   -1    0    0  501  502  0.00000000000E+00  0.00000000000E+00  0.11906380290E+02  0.11906380290E+02  0.00000000000E+00 0. -1.
          4   -1    0    0  502    0 -0.00000000000E+00 -0.00000000000E+00 -0.49356481649E+03  0.49356645041E+03  0.12700000000E+01 0. -1.
         25    2    1    2    0    0  0.11033885976E+02  0.22244175224E+02 -0.42251826278E+03  0.44131892994E+03  0.12499666224E+03 0.  0.
    9000005    1    3    3    0    0 -0.27767944428E+02  0.31531110594E+02 -0.44534152662E+02  0.61233654360E+02  0.10000000000E+01 0.  0.
    9000005    1    3    3    0    0  0.38801830404E+02 -0.92869353696E+01 -0.37798411012E+03  0.38008527558E+03  0.10000000000E+01 0.  0.
          4    1    1    2  501    0 -0.11033885976E+02 -0.22244175224E+02 -0.59140173417E+02  0.64153900762E+02  0.12700000000E+01 0.  1.
<mgrwt>
<rscale>  1 0.12743907E+03</rscale>
<asrwt>0</asrwt>
<pdfrwt beam="1">  1       21 0.18317510E-02 0.12743907E+03</pdfrwt>
<pdfrwt beam="2">  1        4 0.75938376E-01 0.12743907E+03</pdfrwt>
<totfact> 0.90178792E+04</totfact>
</mgrwt>
</event>
<event>
 6    3  0.3813045E-003  0.1270088E+03  0.7818608E-02  0.1231963E+00
         -4   -1    0    0    0  501 -0.00000000000E+00  0.00000000000E+00  0.29001495874E+03  0.29001773945E+03  0.12700000000E+01 0.  1.
         21   -1    0    0  501  502  0.00000000000E+00 -0.00000000000E+00 -0.21612647546E+02  0.21612647546E+02  0.00000000000E+00 0.  1.
         25    2    1    2    0    0 -0.77237279143E+01 -0.21147320466E+02  0.17934872246E+03  0.21976624980E+03  0.12499750064E+03 0.  0.
    9000005    1    3    3    0    0 -0.60679803319E+02 -0.31724864794E+02  0.12838301437E+03  0.14550499632E+03  0.10000000000E+01 0.  0.
    9000005    1    3    3    0    0  0.52956075405E+02  0.10577544328E+02  0.50965708093E+02  0.74261253475E+02  0.10000000000E+01 0.  0.
         -4    1    1    2    0  502  0.77237279143E+01  0.21147320466E+02  0.89053588738E+02  0.91864137197E+02  0.12700000000E+01 0. -1.
<mgrwt>
<rscale>  1 0.12700882E+03</rscale>
<asrwt>0</asrwt>
<pdfrwt beam="2">  1       21 0.33250229E-02 0.12700882E+03</pdfrwt>
<pdfrwt beam="1">  1       -4 0.44620767E-01 0.12700882E+03</pdfrwt>
<totfact> 0.10373436E+05</totfact>
</mgrwt>
</event>
<event>
 6    3  0.3813045E-003  0.1266548E+03  0.7818608E-02  0.1232506E+00
         21   -1    0    0  501  502  0.00000000000E+00  0.00000000000E+00  0.62181236845E+01  0.62181236845E+01  0.00000000000E+00 0.  1.
         -4   -1    0    0    0  501 -0.00000000000E+00 -0.00000000000E+00 -0.13027121576E+04  0.13027127767E+04  0.12700000000E+01 0.  1.
         25    2    1    2    0    0  0.19109754860E+02 -0.72341390788E+01 -0.12652720959E+04  0.12715954238E+04  0.12499571803E+03 0.  0.
    9000005    1    3    3    0    0  0.41700837533E+02  0.44696105339E+02 -0.41982244195E+03  0.42425061515E+03  0.10000000000E+01 0.  0.
    9000005    1    3    3    0    0 -0.22591082673E+02 -0.51930244418E+02 -0.84544965398E+03  0.84734480863E+03  0.10000000000E+01 0.  0.
         -4    1    1    2    0  502 -0.19109754860E+02  0.72341390788E+01 -0.31221938008E+02  0.37335476587E+02  0.12700000000E+01 0. -1.
<mgrwt>
<rscale>  1 0.12665483E+03</rscale>
<asrwt>0</asrwt>
<pdfrwt beam="1">  1       21 0.95663334E-03 0.12665483E+03</pdfrwt>
<pdfrwt beam="2">  1       -4 0.20042750E+00 0.12665483E+03</pdfrwt>
<totfact> 0.23554500E+04</totfact>
</mgrwt>
</event>
<event>
 6    3  0.3813045E-003  0.1268475E+03  0.7818608E-02  0.1232210E+00
         21   -1    0    0  501  502  0.00000000000E+00  0.00000000000E+00  0.50555594329E+02  0.50555594329E+02  0.00000000000E+00 0. -1.
         -4   -1    0    0    0  501 -0.00000000000E+00 -0.00000000000E+00 -0.11813907150E+03  0.11814589758E+03  0.12700000000E+01 0. -1.
         25    2    1    2    0    0  0.16566722591E+02 -0.13782341002E+02 -0.73122740901E+02  0.14641459971E+03  0.12500356216E+03 0.  0.
    9000005    1    3    3    0    0  0.90354679468E+01 -0.27326172888E+02 -0.10611334212E+03  0.10995181118E+03  0.10000000000E+01 0.  0.
    9000005    1    3    3    0    0  0.75312546443E+01  0.13543831886E+02  0.32990601221E+02  0.36462788533E+02  0.10000000000E+01 0.  0.
         -4    1    1    2    0  502 -0.16566722591E+02  0.13782341002E+02  0.55392637315E+01  0.22286892192E+02  0.12700000000E+01 0.  1.
<mgrwt>
<rscale>  1 0.12684755E+03</rscale>
<asrwt>0</asrwt>
<pdfrwt beam="1">  1       21 0.77777838E-02 0.12684755E+03</pdfrwt>
<pdfrwt beam="2">  1       -4 0.18176994E-01 0.12684755E+03</pdfrwt>
<totfact> 0.13429230E+05</totfact>
</mgrwt>
</event>
<event>
 6    3  0.3813045E-003  0.1539635E+03  0.7818608E-02  0.1195686E+00
         21   -1    0    0  501  502  0.00000000000E+00  0.00000000000E+00  0.21152089478E+02  0.21152089478E+02  0.00000000000E+00 0. -1.
          4   -1    0    0  502    0 -0.00000000000E+00 -0.00000000000E+00 -0.16307509939E+04  0.16307514885E+04  0.12700000000E+01 0.  1.
         25    2    1    2    0    0 -0.69356567703E+01 -0.89620526666E+02 -0.15096226573E+04  0.15174535686E+04  0.12499929224E+03 0.  0.
    9000005    1    3    3    0    0 -0.45235862856E+02 -0.23151246332E+02 -0.23072866066E+03  0.23626040367E+03  0.10000000000E+01 0.  0.
    9000005    1    3    3    0    0  0.38300206086E+02 -0.66469280334E+02 -0.12788939967E+04  0.12811931649E+04  0.10000000000E+01 0.  0.
          4    1    1    2  501    0  0.69356567703E+01  0.89620526666E+02 -0.99976247133E+02  0.13445000939E+03  0.12700000000E+01 0. -1.
<mgrwt>
<rscale>  1 0.15396352E+03</rscale>
<asrwt>0</asrwt>
<pdfrwt beam="1">  1       21 0.32541659E-02 0.15396352E+03</pdfrwt>
<pdfrwt beam="2">  1        4 0.25088787E+00 0.15396352E+03</pdfrwt>
<totfact> 0.16637196E+03</totfact>
</mgrwt>
</event>
<event>
 6    3  0.3813045E-003  0.1319455E+03  0.7818608E-02  0.1224597E+00
         -4   -1    0    0    0  501 -0.00000000000E+00  0.00000000000E+00  0.19717016718E+04  0.19717020808E+04  0.12700000000E+01 0. -1.
         21   -1    0    0  501  502  0.00000000000E+00 -0.00000000000E+00 -0.55325023375E+01  0.55325023375E+01  0.00000000000E+00 0.  1.
         25    2    1    2    0    0  0.26987598981E+02 -0.32473564452E+02  0.18279106783E+04  0.18326666539E+04  0.12500701426E+03 0.  0.
    9000005    1    3    3    0    0 -0.11130678907E+02 -0.47923827587E+02  0.28568112413E+03  0.28988840948E+03  0.10000000000E+01 0.  0.
    9000005    1    3    3    0    0  0.38118277888E+02  0.15450263135E+02  0.15422295541E+04  0.15427782444E+04  0.10000000000E+01 0.  0.
         -4    1    1    2    0  502 -0.26987598981E+02  0.32473564452E+02  0.13825849117E+03  0.14456792925E+03  0.12700000000E+01 0.  1.
<mgrwt>
<rscale>  1 0.13194551E+03</rscale>
<asrwt>0</asrwt>
<pdfrwt beam="2">  1       21 0.85115578E-03 0.13194551E+03</pdfrwt>
<pdfrwt beam="1">  1       -4 0.30334940E+00 0.13194551E+03</pdfrwt>
<totfact> 0.71279286E+03</totfact>
</mgrwt>
</event>
<event>
 6    3  0.3813045E-003  0.1346039E+03  0.7818608E-02  0.1220780E+00
         -4   -1    0    0    0  501 -0.00000000000E+00  0.00000000000E+00  0.35548900260E+03  0.35549127116E+03  0.12700000000E+01 0.  1.
         21   -1    0    0  501  502  0.00000000000E+00 -0.00000000000E+00 -0.24551907431E+02  0.24551907431E+02  0.00000000000E+00 0. -1.
         25    2    1    2    0    0 -0.16225969097E+02  0.47260387018E+02  0.26578501167E+03  0.29792598710E+03  0.12498557959E+03 0.  0.
    9000005    1    3    3    0    0  0.52722578647E+02  0.52839681095E+01  0.89048652320E+02  0.10362554269E+03  0.10000000000E+01 0.  0.
    9000005    1    3    3    0    0 -0.68948547743E+02  0.41976418908E+02  0.17673635935E+03  0.19430044440E+03  0.10000000000E+01 0.  0.
         -4    1    1    2    0  502  0.16225969097E+02 -0.47260387018E+02  0.65152083499E+02  0.82117191492E+02  0.12700000000E+01 0. -1.
<mgrwt>
<rscale>  1 0.13460394E+03</rscale>
<asrwt>0</asrwt>
<pdfrwt beam="2">  1       21 0.37772168E-02 0.13460394E+03</pdfrwt>
<pdfrwt beam="1">  1       -4 0.54693313E-01 0.13460394E+03</pdfrwt>
<totfact> 0.56022872E+04</totfact>
</mgrwt>
</event>
<event>
 6    3  0.3813045E-003  0.1278526E+03  0.7818608E-02  0.1230677E+00
         21   -1    0    0  501  502  0.00000000000E+00  0.00000000000E+00  0.34451268863E+02  0.34451268863E+02  0.00000000000E+00 0. -1.
          4   -1    0    0  502    0 -0.00000000000E+00 -0.00000000000E+00 -0.54024091552E+03  0.54024240828E+03  0.12700000000E+01 0.  1.
         25    2    1    2    0    0  0.49722943733E+01  0.26427402136E+02 -0.52581868633E+03  0.54113914504E+03  0.12499260822E+03 0.  0.
    9000005    1    3    3    0    0 -0.37179754069E+02 -0.91940211292E+01 -0.54613177165E+02  0.66711792490E+02  0.10000000000E+01 0.  0.
    9000005    1    3    3    0    0  0.42152048442E+02  0.35621423265E+02 -0.47120550916E+03  0.47442735255E+03  0.10000000000E+01 0.  0.
          4    1    1    2  501    0 -0.49722943733E+01 -0.26427402136E+02  0.20029039665E+02  0.33554532106E+02  0.12700000000E+01 0. -1.
<mgrwt>
<rscale>  1 0.12785258E+03</rscale>
<asrwt>0</asrwt>
<pdfrwt beam="1">  1       21 0.53001959E-02 0.12785258E+03</pdfrwt>
<pdfrwt beam="2">  1        4 0.83115891E-01 0.12785258E+03</pdfrwt>
<totfact> 0.12895705E+04</totfact>
</mgrwt>
</event>
<event>
 6    3  0.3813045E-003  0.1273509E+03  0.7818608E-02  0.1231440E+00
         -4   -1    0    0    0  501 -0.00000000000E+00  0.00000000000E+00  0.11783857117E+03  0.11784541466E+03  0.12700000000E+01 0. -1.
         21   -1    0    0  501  502  0.00000000000E+00 -0.00000000000E+00 -0.53687967216E+02  0.53687967216E+02  0.00000000000E+00 0.  1.
         25    2    1    2    0    0  0.13342421256E+02  0.20364371778E+02  0.71526866426E+02  0.14606281080E+03  0.12500209692E+03 0.  0.
    9000005    1    3    3    0    0  0.35398283711E+02 -0.44790055013E+02  0.43494077640E+02  0.71776892574E+02  0.10000000000E+01 0.  0.
    9000005    1    3    3    0    0 -0.22055862455E+02  0.65154426791E+02  0.28032788786E+02  0.74285918222E+02  0.10000000000E+01 0.  0.
         -4    1    1    2    0  502 -0.13342421256E+02 -0.20364371778E+02 -0.73762624716E+01  0.25470571076E+02  0.12700000000E+01 0.  1.
<mgrwt>
<rscale>  1 0.12735090E+03</rscale>
<asrwt>0</asrwt>
<pdfrwt beam="2">  1       21 0.82596873E-02 0.12735090E+03</pdfrwt>
<pdfrwt beam="1">  1       -4 0.18130693E-01 0.12735090E+03</pdfrwt>
<totfact> 0.12169666E+05</totfact>
</mgrwt>
</event>
<event>
 6    3  0.3813045E-003  0.1289059E+03  0.7818608E-02  0.1229088E+00
          4   -1    0    0  502    0 -0.00000000000E+00  0.00000000000E+00  0.23393975968E+03  0.23394320691E+03  0.12700000000E+01 0.  1.
         21   -1    0    0  501  502  0.00000000000E+00 -0.00000000000E+00 -0.39908008824E+02  0.39908008824E+02  0.00000000000E+00 0. -1.
         25    2    1    2    0    0  0.81439764581E+01 -0.30478746284E+02  0.20349689179E+03  0.24088941784E+03  0.12498579253E+03 0.  0.
    9000005    1    3    3    0    0 -0.47121342775E+02  0.13351663488E+02  0.41510702619E+02  0.64209238391E+02  0.10000000000E+01 0.  0.
    9000005    1    3    3    0    0  0.55265319233E+02 -0.43830409772E+02  0.16198618917E+03  0.17668017945E+03  0.10000000000E+01 0.  0.
          4    1    1    2  501    0 -0.81439764581E+01  0.30478746284E+02 -0.94651409264E+01  0.32961797893E+02  0.12700000000E+01 0. -1.
<mgrwt>
<rscale>  1 0.12890588E+03</rscale>
<asrwt>0</asrwt>
<pdfrwt beam="2">  1       21 0.61396938E-02 0.12890588E+03</pdfrwt>
<pdfrwt beam="1">  1        4 0.35992551E-01 0.12890588E+03</pdfrwt>
<totfact> 0.56913155E+04</totfact>
</mgrwt>
</event>
<event>
 6    3  0.3813045E-003  0.1271138E+03  0.7818608E-02  0.1231802E+00
          4   -1    0    0  502    0 -0.00000000000E+00  0.00000000000E+00  0.13431367873E+03  0.13431968282E+03  0.12700000000E+01 0. -1.
         21   -1    0    0  501  502  0.00000000000E+00 -0.00000000000E+00 -0.42078611247E+02  0.42078611247E+02  0.00000000000E+00 0. -1.
         25    2    1    2    0    0 -0.10374794374E+02 -0.20628792016E+02  0.75402745271E+02  0.14779543775E+03  0.12499893603E+03 0.  0.
    9000005    1    3    3    0    0 -0.62683005460E+02  0.75662918681E+01  0.58320861804E+02  0.85957727213E+02  0.10000000000E+01 0.  0.
    9000005    1    3    3    0    0  0.52308211086E+02 -0.28195083884E+02  0.17081883466E+02  0.61837710541E+02  0.10000000000E+01 0.  0.
          4    1    1    2  501    0  0.10374794374E+02  0.20628792016E+02  0.16832322211E+02  0.28602856314E+02  0.12700000000E+01 0.  1.
<mgrwt>
<rscale>  1 0.12711380E+03</rscale>
<asrwt>0</asrwt>
<pdfrwt beam="2">  1       21 0.64736326E-02 0.12711380E+03</pdfrwt>
<pdfrwt beam="1">  1        4 0.20665579E-01 0.12711380E+03</pdfrwt>
<totfact> 0.14616265E+05</totfact>
</mgrwt>
</event>
<event>
 6    3  0.3813045E-003  0.1270354E+03  0.7818608E-02  0.1231922E+00
         21   -1    0    0  501  502  0.00000000000E+00  0.00000000000E+00  0.17121372493E+03  0.17121372493E+03  0.00000000000E+00 0.  1.
         -4   -1    0    0    0  501 -0.00000000000E+00 -0.00000000000E+00 -0.32693833129E+02  0.32718490562E+02  0.12700000000E+01 0.  1.
         25    2    1    2    0    0 -0.13586837843E+02  0.18055429264E+02  0.11780354718E+03  0.17325029047E+03  0.12500954656E+03 0.  0.
    9000005    1    3    3    0    0  0.39265352323E+02 -0.13882682792E+02  0.16430084367E+01  0.41691680840E+02  0.10000000000E+01 0.  0.
    9000005    1    3    3    0    0 -0.52852190166E+02  0.31938112055E+02  0.11616053875E+03  0.13155860963E+03  0.10000000000E+01 0.  0.
         -4    1    1    2    0  502  0.13586837843E+02 -0.18055429264E+02  0.20716344617E+02  0.30681925017E+02  0.12700000000E+01 0. -1.
<mgrwt>
<rscale>  1 0.12703538E+03</rscale>
<asrwt>0</asrwt>
<pdfrwt beam="1">  1       21 0.26340572E-01 0.12703538E+03</pdfrwt>
<pdfrwt beam="2">  1       -4 0.50320797E-02 0.12703538E+03</pdfrwt>
<totfact> 0.12956903E+05</totfact>
</mgrwt>
</event>
<event>
 6    3  0.3813045E-003  0.1290513E+03  0.7818608E-02  0.1228870E+00
         -4   -1    0    0    0  501 -0.00000000000E+00  0.00000000000E+00  0.26812965628E+02  0.26843025645E+02  0.12700000000E+01 0.  1.
         21   -1    0    0  501  502  0.00000000000E+00 -0.00000000000E+00 -0.27022905154E+03  0.27022905154E+03  0.00000000000E+00 0.  1.
         25    2    1    2    0    0 -0.28142770782E+02 -0.15420876637E+02 -0.14782727055E+03  0.19623233549E+03  0.12499763433E+03 0.  0.
    9000005    1    3    3    0    0 -0.47708283741E+02  0.26022019311E+02 -0.13940329276E+03  0.14962454297E+03  0.10000000000E+01 0.  0.
    9000005    1    3    3    0    0  0.19565512958E+02 -0.41442895949E+02 -0.84239777961E+01  0.46607792523E+02  0.10000000000E+01 0.  0.
         -4    1    1    2    0  502  0.28142770782E+02  0.15420876637E+02 -0.95588815356E+02  0.10083974169E+03  0.12700000000E+01 0. -1.
<mgrwt>
<rscale>  1 0.12905126E+03</rscale>
<asrwt>0</asrwt>
<pdfrwt beam="2">  1       21 0.41573701E-01 0.12905126E+03</pdfrwt>
<pdfrwt beam="1">  1       -4 0.41276134E-02 0.12905126E+03</pdfrwt>
<totfact> 0.73111521E+04</totfact>
</mgrwt>
</event>
<event>
 6    3  0.3813045E-003  0.1273391E+03  0.7818608E-02  0.1231458E+00
         21   -1    0    0  501  502  0.00000000000E+00  0.00000000000E+00  0.11661319423E+02  0.11661319423E+02  0.00000000000E+00 0. -1.
          4   -1    0    0  502    0 -0.00000000000E+00 -0.00000000000E+00 -0.49440377206E+03  0.49440540322E+03  0.12700000000E+01 0. -1.
         25    2    1    2    0    0  0.18869611886E+02 -0.15306965855E+02 -0.39543123650E+03  0.41542883421E+03  0.12499955212E+03 0.  0.
    9000005    1    3    3    0    0 -0.51001480109E+02 -0.22139416719E+02 -0.20709057975E+03  0.21442670768E+03  0.10000000000E+01 0.  0.
    9000005    1    3    3    0    0  0.69871091995E+02  0.68324508637E+01 -0.18834065675E+03  0.20100212652E+03  0.10000000000E+01 0.  0.
          4    1    1    2  501    0 -0.18869611886E+02  0.15306965855E+02 -0.87311216137E+02  0.90637888434E+02  0.12700000000E+01 0.  1.
<mgrwt>
<rscale>  1 0.12733913E+03</rscale>
<asrwt>0</asrwt>
<pdfrwt beam="1">  1       21 0.17940491E-02 0.12733913E+03</pdfrwt>
<pdfrwt beam="2">  1        4 0.76067564E-01 0.12733913E+03</pdfrwt>
<totfact> 0.92886933E+04</totfact>
</mgrwt>
</event>
<event>
 6    3  0.3813045E-003  0.1365880E+03  0.7818608E-02  0.1217995E+00
         -4   -1    0    0    0  501 -0.00000000000E+00  0.00000000000E+00  0.27425159255E+03  0.27425453308E+03  0.12700000000E+01 0.  1.
         21   -1    0    0  501  502  0.00000000000E+00 -0.00000000000E+00 -0.76999780732E+02  0.76999780732E+02  0.00000000000E+00 0. -1.
         25    2    1    2    0    0  0.52219865479E+02 -0.17440684220E+02  0.24359754575E+03  0.27927770809E+03  0.12500072850E+03 0.  0.
    9000005    1    3    3    0    0  0.63527915652E+02 -0.39461095113E+02  0.65361904248E+02  0.99328508604E+02  0.10000000000E+01 0.  0.
    9000005    1    3    3    0    0 -0.11308050174E+02  0.22020410893E+02  0.17823564150E+03  0.17994919949E+03  0.10000000000E+01 0.  0.
         -4    1    1    2    0  502 -0.52219865479E+02  0.17440684220E+02 -0.46345733936E+02  0.71976605718E+02  0.12700000000E+01 0. -1.
<mgrwt>
<rscale>  1 0.13658797E+03</rscale>
<asrwt>0</asrwt>
<pdfrwt beam="2">  1       21 0.11846120E-01 0.13658797E+03</pdfrwt>
<pdfrwt beam="1">  1       -4 0.42193584E-01 0.13658797E+03</pdfrwt>
<totfact> 0.13428292E+04</totfact>
</mgrwt>
</event>
<event>
 6    3  0.3813045E-003  0.1272218E+03  0.7818608E-02  0.1231637E+00
          4   -1    0    0  502    0 -0.00000000000E+00  0.00000000000E+00  0.46799452896E+02  0.46816681764E+02  0.12700000000E+01 0. -1.
         21   -1    0    0  501  502  0.00000000000E+00 -0.00000000000E+00 -0.12216635868E+03  0.12216635868E+03  0.00000000000E+00 0. -1.
         25    2    1    2    0    0 -0.18196405013E+02 -0.15131021996E+02 -0.59392981216E+02  0.14040269496E+03  0.12500133420E+03 0.  0.
    9000005    1    3    3    0    0  0.53167561566E+02  0.27391090105E+01 -0.19474370502E+02  0.56696943723E+02  0.10000000000E+01 0.  0.
    9000005    1    3    3    0    0 -0.71363966579E+02 -0.17870131007E+02 -0.39918610714E+02  0.83705751233E+02  0.10000000000E+01 0.  0.
          4    1    1    2  501    0  0.18196405013E+02  0.15131021996E+02 -0.15973924565E+02  0.28580345485E+02  0.12700000000E+01 0.  1.
<mgrwt>
<rscale>  1 0.12722182E+03</rscale>
<asrwt>0</asrwt>
<pdfrwt beam="2">  1       21 0.18794824E-01 0.12722182E+03</pdfrwt>
<pdfrwt beam="1">  1        4 0.72017490E-02 0.12722182E+03</pdfrwt>
<totfact> 0.13600990E+05</totfact>
</mgrwt>
</event>
<event>
 6    3  0.3813045E-003  0.1348955E+03  0.7818608E-02  0.1220367E+00
          4   -1    0    0  502    0 -0.00000000000E+00  0.00000000000E+00  0.38128698374E+03  0.38128909881E+03  0.12700000000E+01 0.  1.
         21   -1    0    0  501  502  0.00000000000E+00 -0.00000000000E+00 -0.29076978801E+02  0.29076978801E+02  0.00000000000E+00 0.  1.
         25    2    1    2    0    0  0.39290255029E+02  0.32071726512E+02  0.32696367252E+03  0.35369765623E+03  0.12499787634E+03 0.  0.
    9000005    1    3    3    0    0  0.56530881258E+02  0.55694746093E+01  0.31467425536E+03  0.31976185916E+03  0.10000000000E+01 0.  0.
    9000005    1    3    3    0    0 -0.17240626228E+02  0.26502251903E+02  0.12289417160E+02  0.33935797070E+02  0.10000000000E+01 0.  0.
          4    1    1    2  501    0 -0.39290255029E+02 -0.32071726512E+02  0.25246332420E+02  0.56668421386E+02  0.12700000000E+01 0. -1.
<mgrwt>
<rscale>  1 0.13489547E+03</rscale>
<asrwt>0</asrwt>
<pdfrwt beam="2">  1       21 0.44733817E-02 0.13489547E+03</pdfrwt>
<pdfrwt beam="1">  1        4 0.58661828E-01 0.13489547E+03</pdfrwt>
<totfact> 0.36551562E+04</totfact>
</mgrwt>
</event>
<event>
 6    3  0.3813045E-003  0.1342428E+03  0.7818608E-02  0.1221293E+00
          4   -1    0    0  502    0 -0.00000000000E+00  0.00000000000E+00  0.27194254529E+02  0.27223893538E+02  0.12700000000E+01 0. -1.
         21   -1    0    0  501  502  0.00000000000E+00 -0.00000000000E+00 -0.32466096714E+03  0.32466096714E+03  0.00000000000E+00 0.  1.
         25    2    1    2    0    0  0.31297078571E+02 -0.37640194279E+02 -0.17939817928E+03  0.22406435052E+03  0.12499934038E+03 0.  0.
    9000005    1    3    3    0    0 -0.46760663692E+02 -0.93467248910E+01 -0.42140126700E+02  0.63645197881E+02  0.10000000000E+01 0.  0.
    9000005    1    3    3    0    0  0.78057742262E+02 -0.28293469388E+02 -0.13725805258E+03  0.16041915264E+03  0.10000000000E+01 0.  0.
          4    1    1    2  501    0 -0.31297078571E+02  0.37640194279E+02 -0.11806853333E+03  0.12782051015E+03  0.12700000000E+01 0.  1.
<mgrwt>
<rscale>  1 0.13424279E+03</rscale>
<asrwt>0</asrwt>
<pdfrwt beam="2">  1       21 0.49947845E-01 0.13424279E+03</pdfrwt>
<pdfrwt beam="1">  1        4 0.41862022E-02 0.13424279E+03</pdfrwt>
<totfact> 0.49415530E+04</totfact>
</mgrwt>
</event>
<event>
 6    3  0.3813045E-003  0.1267471E+03  0.7818608E-02  0.1232364E+00
         -4   -1    0    0    0  501 -0.00000000000E+00  0.00000000000E+00  0.26257342576E+03  0.26257649708E+03  0.12700000000E+01 0. -1.
         21   -1    0    0  501  502  0.00000000000E+00 -0.00000000000E+00 -0.25408110684E+02  0.25408110684E+02  0.00000000000E+00 0. -1.
         25    2    1    2    0    0  0.20645430480E+02 -0.36808100871E+01  0.23482203356E+03  0.26684492870E+03  0.12500018545E+03 0.  0.
    9000005    1    3    3    0    0  0.15169539933E+02  0.48680428887E+02  0.19293164059E+03  0.19955830486E+03  0.10000000000E+01 0.  0.
    9000005    1    3    3    0    0  0.54758905471E+01 -0.52361238974E+02  0.41890392974E+02  0.67286623840E+02  0.10000000000E+01 0.  0.
         -4    1    1    2    0  502 -0.20645430480E+02  0.36808100871E+01  0.23432815188E+01  0.21139679063E+02  0.12700000000E+01 0.  1.
<mgrwt>
<rscale>  1 0.12674710E+03</rscale>
<asrwt>0</asrwt>
<pdfrwt beam="2">  1       21 0.39089403E-02 0.12674710E+03</pdfrwt>
<pdfrwt beam="1">  1       -4 0.40398587E-01 0.12674710E+03</pdfrwt>
<totfact> 0.96664227E+04</totfact>
</mgrwt>
</event>
<event>
 6    3  0.3813045E-003  0.1356008E+03  0.7818608E-02  0.1219374E+00
         21   -1    0    0  501  502  0.00000000000E+00  0.00000000000E+00  0.34152576301E+02  0.34152576301E+02  0.00000000000E+00 0.  1.
         -4   -1    0    0    0  501 -0.00000000000E+00 -0.00000000000E+00 -0.26215308541E+03  0.26215616165E+03  0.12700000000E+01 0. -1.
         25    2    1    2    0    0 -0.36993274200E+02  0.37327003822E+02 -0.17792579666E+03  0.22370779252E+03  0.12500311903E+03 0.  0.
    9000005    1    3    3    0    0  0.36267818973E+02 -0.55528269677E+01 -0.10688520655E+03  0.11301166294E+03  0.10000000000E+01 0.  0.
    9000005    1    3    3    0    0 -0.73261093173E+02  0.42879830790E+02 -0.71040590102E+02  0.11069612958E+03  0.10000000000E+01 0.  0.
         -4    1    1    2    0  502  0.36993274200E+02 -0.37327003822E+02 -0.50074712455E+02  0.72600945434E+02  0.12700000000E+01 0.  1.
<mgrwt>
<rscale>  1 0.13560084E+03</rscale>
<asrwt>0</asrwt>
<pdfrwt beam="1">  1       21 0.52542427E-02 0.13560084E+03</pdfrwt>
<pdfrwt beam="2">  1       -4 0.40333295E-01 0.13560084E+03</pdfrwt>
<totfact> 0.59696470E+04</totfact>
</mgrwt>
</event>
<event>
 6    3  0.3813045E-003  0.1283269E+03  0.7818608E-02  0.1229960E+00
          4   -1    0    0  502    0 -0.00000000000E+00  0.00000000000E+00  0.19881135846E+04  0.19881139902E+04  0.12700000000E+01 0.  1.
         21   -1    0    0  501  502  0.00000000000E+00 -0.00000000000E+00 -0.59109644097E+01  0.59109644097E+01  0.00000000000E+00 0.  1.
         25    2    1    2    0    0  0.20069946978E+02  0.20976781111E+02  0.19301419226E+04  0.19344031696E+04  0.12499981237E+03 0.  0.
    9000005    1    3    3    0    0  0.54512247723E+02 -0.29860652161E+02  0.12311892015E+04  0.12327575161E+04  0.10000000000E+01 0.  0.
    9000005    1    3    3    0    0 -0.34442300745E+02  0.50837433272E+02  0.69895272110E+03  0.70164565347E+03  0.10000000000E+01 0.  0.
          4    1    1    2  501    0 -0.20069946978E+02 -0.20976781111E+02  0.52060697588E+02  0.59621785036E+02  0.12700000000E+01 0. -1.
<mgrwt>
<rscale>  1 0.12832685E+03</rscale>
<asrwt>0</asrwt>
<pdfrwt beam="2">  1       21 0.90938073E-03 0.12832685E+03</pdfrwt>
<pdfrwt beam="1">  1        4 0.30587362E+00 0.12832685E+03</pdfrwt>
<totfact> 0.62042401E+03</totfact>
</mgrwt>
</event>
<event>
 6    3  0.3813045E-003  0.1272417E+03  0.7818608E-02  0.1231607E+00
          4   -1    0    0  502    0 -0.00000000000E+00  0.00000000000E+00  0.98792307218E+02  0.98800469966E+02  0.12700000000E+01 0. -1.
         21   -1    0    0  501  502  0.00000000000E+00 -0.00000000000E+00 -0.60703862547E+02  0.60703862547E+02  0.00000000000E+00 0. -1.
         25    2    1    2    0    0  0.53542180848E+01  0.23154814181E+02  0.44596921736E+02  0.13483073843E+03  0.12500251808E+03 0.  0.
    9000005    1    3    3    0    0  0.82699616283E+01  0.67002571409E+02 -0.60267319320E+01  0.67786859631E+02  0.10000000000E+01 0.  0.
    9000005    1    3    3    0    0 -0.29157435435E+01 -0.43847757228E+02  0.50623653668E+02  0.67043878804E+02  0.10000000000E+01 0.  0.
          4    1    1    2  501    0 -0.53542180848E+01 -0.23154814181E+02 -0.65084770640E+01  0.24673594078E+02  0.12700000000E+01 0.  1.
<mgrwt>
<rscale>  1 0.12724167E+03</rscale>
<asrwt>0</asrwt>
<pdfrwt beam="2">  1       21 0.93390558E-02 0.12724167E+03</pdfrwt>
<pdfrwt beam="1">  1        4 0.15200466E-01 0.12724167E+03</pdfrwt>
<totfact> 0.13414794E+05</totfact>
</mgrwt>
</event>
<event>
 6    3  0.3813045E-003  0.1276636E+03  0.7818608E-02  0.1230964E+00
         21   -1    0    0  501  502  0.00000000000E+00  0.00000000000E+00  0.29419886584E+03  0.29419886584E+03  0.00000000000E+00 0. -1.
          4   -1    0    0  502    0 -0.00000000000E+00 -0.00000000000E+00 -0.40217952843E+02  0.40237999837E+02  0.12700000000E+01 0.  1.
         25    2    1    2    0    0  0.25802378351E+02  0.22743054450E+01  0.64209280894E+02  0.14290143698E+03  0.12500821471E+03 0.  0.
    9000005    1    3    3    0    0  0.59140353940E+02  0.44221389377E+02  0.33044106050E+02  0.80907513170E+02  0.10000000000E+01 0.  0.
    9000005    1    3    3    0    0 -0.33337975589E+02 -0.41947083932E+02  0.31165174844E+02  0.61993923814E+02  0.10000000000E+01 0.  0.
          4    1    1    2  501    0 -0.25802378351E+02 -0.22743054450E+01  0.18977163210E+03  0.19153542870E+03  0.12700000000E+01 0. -1.
<mgrwt>
<rscale>  1 0.12766358E+03</rscale>
<asrwt>0</asrwt>
<pdfrwt beam="1">  1       21 0.45261363E-01 0.12766358E+03</pdfrwt>
<pdfrwt beam="2">  1        4 0.61891305E-02 0.12766358E+03</pdfrwt>
<totfact> 0.32070995E+04</totfact>
</mgrwt>
</event>
<event>
 6    3  0.3813045E-003  0.1268214E+03  0.7818608E-02  0.1232250E+00
         21   -1    0    0  501  502  0.00000000000E+00  0.00000000000E+00  0.11079978606E+03  0.11079978606E+03  0.00000000000E+00 0.  1.
         -4   -1    0    0    0  501 -0.00000000000E+00 -0.00000000000E+00 -0.54929593002E+02  0.54944272562E+02  0.12700000000E+01 0.  1.
         25    2    1    2    0    0  0.21386046563E+02 -0.14932665005E+01  0.64881418298E+02  0.14245440614E+03  0.12499626617E+03 0.  0.
    9000005    1    3    3    0    0  0.14481917781E+02 -0.27862313994E+02 -0.30175548717E+02  0.43561430464E+02  0.10000000000E+01 0.  0.
    9000005    1    3    3    0    0  0.69041287821E+01  0.26369047494E+02  0.95056967015E+02  0.98892975676E+02  0.10000000000E+01 0.  0.
         -4    1    1    2    0  502 -0.21386046563E+02  0.14932665005E+01 -0.90112252391E+01  0.23289652483E+02  0.12700000000E+01 0. -1.
<mgrwt>
<rscale>  1 0.12682137E+03</rscale>
<asrwt>0</asrwt>
<pdfrwt beam="1">  1       21 0.17046121E-01 0.12682137E+03</pdfrwt>
<pdfrwt beam="2">  1       -4 0.84523957E-02 0.12682137E+03</pdfrwt>
<totfact> 0.12476491E+05</totfact>
</mgrwt>
</event>
<event>
 6    3  0.3813045E-003  0.1279908E+03  0.7818608E-02  0.1230468E+00
         -4   -1    0    0    0  501 -0.00000000000E+00  0.00000000000E+00  0.26191544184E+03  0.26191852087E+03  0.12700000000E+01 0. -1.
         21   -1    0    0  501  502  0.00000000000E+00 -0.00000000000E+00 -0.17836119790E+03  0.17836119790E+03  0.00000000000E+00 0.  1.
         25    2    1    2    0    0 -0.39625602424E+01  0.27288128249E+02  0.24503934537E+03  0.27645238676E+03  0.12498518928E+03 0.  0.
    9000005    1    3    3    0    0  0.12924499403E+02  0.73169768520E+02  0.10925277759E+03  0.13212882775E+03  0.10000000000E+01 0.  0.
    9000005    1    3    3    0    0 -0.16887059645E+02 -0.45881640271E+02  0.13578656778E+03  0.14432355902E+03  0.10000000000E+01 0.  0.
         -4    1    1    2    0  502  0.39625602424E+01 -0.27288128249E+02 -0.16148510143E+03  0.16382733200E+03  0.12700000000E+01 0.  1.
<mgrwt>
<rscale>  1 0.12799079E+03</rscale>
<asrwt>0</asrwt>
<pdfrwt beam="2">  1       21 0.27440184E-01 0.12799079E+03</pdfrwt>
<pdfrwt beam="1">  1       -4 0.40295268E-01 0.12799079E+03</pdfrwt>
<totfact> 0.31327426E+03</totfact>
</mgrwt>
</event>
<event>
 6    3  0.3813045E-003  0.1299490E+03  0.7818608E-02  0.1227531E+00
         -4   -1    0    0    0  501 -0.00000000000E+00  0.00000000000E+00  0.51468818756E+02  0.51484485082E+02  0.12700000000E+01 0. -1.
         21   -1    0    0  501  502  0.00000000000E+00 -0.00000000000E+00 -0.17553677491E+03  0.17553677491E+03  0.00000000000E+00 0.  1.
         25    2    1    2    0    0  0.11515811402E+02 -0.33606983366E+02 -0.40350927640E+02  0.13606964095E+03  0.12499882633E+03 0.  0.
    9000005    1    3    3    0    0  0.26243077423E+02 -0.78380311980E+02 -0.22623632936E+02  0.85702982363E+02  0.10000000000E+01 0.  0.
    9000005    1    3    3    0    0 -0.14727266021E+02  0.44773328615E+02 -0.17727294704E+02  0.50366658587E+02  0.10000000000E+01 0.  0.
         -4    1    1    2    0  502 -0.11515811402E+02  0.33606983366E+02 -0.83717028519E+02  0.90951619046E+02  0.12700000000E+01 0.  1.
<mgrwt>
<rscale>  1 0.12994903E+03</rscale>
<asrwt>0</asrwt>
<pdfrwt beam="2">  1       21 0.27005658E-01 0.12994903E+03</pdfrwt>
<pdfrwt beam="1">  1       -4 0.79198381E-02 0.12994903E+03</pdfrwt>
<totfact> 0.59199743E+04</totfact>
</mgrwt>
</event>
<event>
 6    3  0.3813045E-003  0.1288586E+03  0.7818608E-02  0.1229159E+00
         21   -1    0    0  501  502  0.00000000000E+00  0.00000000000E+00  0.58236425234E+02  0.58236425234E+02  0.00000000000E+00 0. -1.
         -4   -1    0    0    0  501 -0.00000000000E+00 -0.00000000000E+00 -0.24203539162E+03  0.24203872355E+03  0.12700000000E+01 0.  1.
         25    2    1    2    0    0  0.14715305026E+02  0.27588611048E+02 -0.21842583802E+03  0.25360283578E+03  0.12500751952E+03 0.  0.
    9000005    1    3    3    0    0  0.30819497525E+02 -0.31570246798E+01 -0.21662757293E+03  0.21883398636E+03  0.10000000000E+01 0.  0.
    9000005    1    3    3    0    0 -0.16104192498E+02  0.30745635728E+02 -0.17982650923E+01  0.34768849416E+02  0.10000000000E+01 0.  0.
         -4    1    1    2    0  502 -0.14715305026E+02 -0.27588611048E+02  0.34626871639E+02  0.46672313004E+02  0.12700000000E+01 0. -1.
<mgrwt>
<rscale>  1 0.12885865E+03</rscale>
<asrwt>0</asrwt>
<pdfrwt beam="1">  1       21 0.89594499E-02 0.12885865E+03</pdfrwt>
<pdfrwt beam="2">  1       -4 0.37237536E-01 0.12885865E+03</pdfrwt>
<totfact> 0.27847361E+04</totfact>
</mgrwt>
</event>
<event>
 6    3  0.3813045E-003  0.1301302E+03  0.7818608E-02  0.1227263E+00
         -4   -1    0    0    0  501 -0.00000000000E+00  0.00000000000E+00  0.17482119328E+04  0.17482123941E+04  0.12700000000E+01 0. -1.
         21   -1    0    0  501  502  0.00000000000E+00 -0.00000000000E+00 -0.53269764725E+01  0.53269764725E+01  0.00000000000E+00 0. -1.
         25    2    1    2    0    0  0.36100741393E+02  0.22441382335E+01  0.16255244810E+04  0.16307249018E+04  0.12500226854E+03 0.  0.
    9000005    1    3    3    0    0 -0.15484504502E+02  0.39779871562E+02  0.11671811449E+04  0.11679619142E+04  0.10000000000E+01 0.  0.
    9000005    1    3    3    0    0  0.51585245895E+02 -0.37535733329E+02  0.45834333612E+03  0.46276298754E+03  0.10000000000E+01 0.  0.
         -4    1    1    2    0  502 -0.36100741393E+02 -0.22441382335E+01  0.11736047534E+03  0.12281446885E+03  0.12700000000E+01 0.  1.
<mgrwt>
<rscale>  1 0.13013019E+03</rscale>
<asrwt>0</asrwt>
<pdfrwt beam="2">  1       21 0.81953624E-03 0.13013019E+03</pdfrwt>
<pdfrwt beam="1">  1       -4 0.26896690E+00 0.13013019E+03</pdfrwt>
<totfact> 0.11911612E+04</totfact>
</mgrwt>
</event>
<event>
 6    3  0.3813045E-003  0.1344882E+03  0.7818608E-02  0.1220944E+00
         -4   -1    0    0    0  501 -0.00000000000E+00  0.00000000000E+00  0.76338261356E+03  0.76338366997E+03  0.12700000000E+01 0.  1.
         21   -1    0    0  501  502  0.00000000000E+00 -0.00000000000E+00 -0.14070288671E+02  0.14070288671E+02  0.00000000000E+00 0. -1.
         25    2    1    2    0    0  0.34805065935E+01 -0.49494485339E+02  0.67379967319E+03  0.68709029631E+03  0.12500103072E+03 0.  0.
    9000005    1    3    3    0    0 -0.38737751754E+02 -0.72265675316E+02  0.33391202986E+03  0.34383307712E+03  0.10000000000E+01 0.  0.
    9000005    1    3    3    0    0  0.42218258347E+02  0.22771189978E+02  0.33988764334E+03  0.34325721919E+03  0.10000000000E+01 0.  0.
         -4    1    1    2    0  502 -0.34805065935E+01  0.49494485339E+02  0.75512651692E+02  0.90363662335E+02  0.12700000000E+01 0. -1.
<mgrwt>
<rscale>  1 0.13448820E+03</rscale>
<asrwt>0</asrwt>
<pdfrwt beam="2">  1       21 0.21646604E-02 0.13448820E+03</pdfrwt>
<pdfrwt beam="1">  1       -4 0.11744794E+00 0.13448820E+03</pdfrwt>
<totfact> 0.25628651E+04</totfact>
</mgrwt>
</event>
<event>
 6    3  0.3813045E-003  0.1536157E+03  0.7818608E-02  0.1196099E+00
         -4   -1    0    0    0  501 -0.00000000000E+00  0.00000000000E+00  0.26082892065E+03  0.26083201251E+03  0.12700000000E+01 0.  1.
         21   -1    0    0  501  502  0.00000000000E+00 -0.00000000000E+00 -0.86536288091E+02  0.86536288091E+02  0.00000000000E+00 0. -1.
         25    2    1    2    0    0  0.88771282564E+02 -0.96398182796E+01  0.20208370557E+03  0.25384170896E+03  0.12499808977E+03 0.  0.
    9000005    1    3    3    0    0 -0.15239806418E+02  0.31138330871E+02  0.19500322080E+02  0.39788313740E+02  0.10000000000E+01 0.  0.
    9000005    1    3    3    0    0  0.10401108898E+03 -0.40778149150E+02  0.18258338349E+03  0.21405339522E+03  0.10000000000E+01 0.  0.
         -4    1    1    2    0  502 -0.88771282564E+02  0.96398182796E+01 -0.27791073007E+02  0.93526591638E+02  0.12700000000E+01 0. -1.
<mgrwt>
<rscale>  1 0.15361572E+03</rscale>
<asrwt>0</asrwt>
<pdfrwt beam="2">  1       21 0.13313275E-01 0.15361572E+03</pdfrwt>
<pdfrwt beam="1">  1       -4 0.40128480E-01 0.15361572E+03</pdfrwt>
<totfact> 0.12168694E+04</totfact>
</mgrwt>
</event>
<event>
 6    3  0.3813045E-003  0.1294403E+03  0.7818608E-02  0.1228289E+00
         -4   -1    0    0    0  501 -0.00000000000E+00  0.00000000000E+00  0.27667653852E+03  0.27667945328E+03  0.12700000000E+01 0.  1.
         21   -1    0    0  501  502  0.00000000000E+00 -0.00000000000E+00 -0.36254876214E+02  0.36254876214E+02  0.00000000000E+00 0. -1.
         25    2    1    2    0    0 -0.50362979734E+01  0.33227666861E+02  0.24681788991E+03  0.27870032929E+03  0.12500144249E+03 0.  0.
    9000005    1    3    3    0    0  0.82447955162E+01  0.80060789864E+02  0.16222063390E+03  0.18109180210E+03  0.10000000000E+01 0.  0.
    9000005    1    3    3    0    0 -0.13281093490E+02 -0.46833123004E+02  0.84597256010E+02  0.97608527184E+02  0.10000000000E+01 0.  0.
         -4    1    1    2    0  502  0.50362979734E+01 -0.33227666861E+02 -0.63962276063E+01  0.34234000203E+02  0.12700000000E+01 0. -1.
<mgrwt>
<rscale>  1 0.12944034E+03</rscale>
<asrwt>0</asrwt>
<pdfrwt beam="2">  1       21 0.55776735E-02 0.12944034E+03</pdfrwt>
<pdfrwt beam="1">  1       -4 0.42567555E-01 0.12944034E+03</pdfrwt>
<totfact> 0.48224262E+04</totfact>
</mgrwt>
</event>
<event>
 6    3  0.3813045E-003  0.1331953E+03  0.7818608E-02  0.1222790E+00
          4   -1    0    0  502    0 -0.00000000000E+00  0.00000000000E+00  0.42527240955E+02  0.42546199868E+02  0.12700000000E+01 0.  1.
         21   -1    0    0  501  502  0.00000000000E+00 -0.00000000000E+00 -0.23646602233E+03  0.23646602233E+03  0.00000000000E+00 0.  1.
         25    2    1    2    0    0 -0.23834153281E+02  0.39344516449E+02 -0.78186159252E+02  0.15444761942E+03  0.12499973523E+03 0.  0.
    9000005    1    3    3    0    0  0.11749795386E+02  0.70783099836E+02 -0.79291835138E+02  0.10694157299E+03  0.10000000000E+01 0.  0.
    9000005    1    3    3    0    0 -0.35583948667E+02 -0.31438583387E+02  0.11056758860E+01  0.47506046429E+02  0.10000000000E+01 0.  0.
          4    1    1    2  501    0  0.23834153281E+02 -0.39344516449E+02 -0.11575262212E+03  0.12456460278E+03  0.12700000000E+01 0. -1.
<mgrwt>
<rscale>  1 0.13319531E+03</rscale>
<asrwt>0</asrwt>
<pdfrwt beam="2">  1       21 0.36379388E-01 0.13319531E+03</pdfrwt>
<pdfrwt beam="1">  1        4 0.65443731E-02 0.13319531E+03</pdfrwt>
<totfact> 0.45570271E+04</totfact>
</mgrwt>
</event>
<event>
 6    3  0.3813045E-003  0.1321733E+03  0.7818608E-02  0.1224266E+00
         21   -1    0    0  501  502  0.00000000000E+00  0.00000000000E+00  0.19709175004E+03  0.19709175004E+03  0.00000000000E+00 0. -1.
         -4   -1    0    0    0  501 -0.00000000000E+00 -0.00000000000E+00 -0.49363648801E+02  0.49379983019E+02  0.12700000000E+01 0.  1.
         25    2    1    2    0    0 -0.39467539211E+02  0.16954740823E+02  0.52910734578E+02  0.14237036031E+03  0.12499849509E+03 0.  0.
    9000005    1    3    3    0    0 -0.42343786355E+02  0.41539757450E+01 -0.33997983020E+02  0.54471227330E+02  0.10000000000E+01 0.  0.
    9000005    1    3    3    0    0  0.28762471449E+01  0.12800765078E+02  0.86908717598E+02  0.87899132980E+02  0.10000000000E+01 0.  0.
         -4    1    1    2    0  502  0.39467539211E+02 -0.16954740823E+02  0.94817366665E+02  0.10410137275E+03  0.12700000000E+01 0. -1.
<mgrwt>
<rscale>  1 0.13217327E+03</rscale>
<asrwt>0</asrwt>
<pdfrwt beam="1">  1       21 0.30321807E-01 0.13217327E+03</pdfrwt>
<pdfrwt beam="2">  1       -4 0.75959788E-02 0.13217327E+03</pdfrwt>
<totfact> 0.50886689E+04</totfact>
</mgrwt>
</event>
<event>
 6    3  0.3813045E-003  0.1327822E+03  0.7818608E-02  0.1223385E+00
          4   -1    0    0  502    0 -0.00000000000E+00  0.00000000000E+00  0.29358106004E+03  0.29358380697E+03  0.12700000000E+01 0.  1.
         21   -1    0    0  501  502  0.00000000000E+00 -0.00000000000E+00 -0.32520895548E+02  0.32520895548E+02  0.00000000000E+00 0.  1.
         25    2    1    2    0    0 -0.44697151547E+02 -0.17962508040E+01  0.24479691494E+03  0.27848991428E+03  0.12502016203E+03 0.  0.
    9000005    1    3    3    0    0 -0.21953894562E+02  0.60858009236E+02  0.10033603171E+03  0.11939007510E+03  0.10000000000E+01 0.  0.
    9000005    1    3    3    0    0 -0.22743256985E+02 -0.62654260040E+02  0.14446088324E+03  0.15909983918E+03  0.10000000000E+01 0.  0.
          4    1    1    2  501    0  0.44697151547E+02  0.17962508040E+01  0.16263249550E+02  0.47614788241E+02  0.12700000000E+01 0. -1.
<mgrwt>
<rscale>  1 0.13278216E+03</rscale>
<asrwt>0</asrwt>
<pdfrwt beam="2">  1       21 0.50032149E-02 0.13278216E+03</pdfrwt>
<pdfrwt beam="1">  1        4 0.45168434E-01 0.13278216E+03</pdfrwt>
<totfact> 0.51630127E+04</totfact>
</mgrwt>
</event>
<event>
 6    3  0.3813045E-003  0.1274428E+03  0.7818608E-02  0.1231300E+00
         21   -1    0    0  501  502  0.00000000000E+00  0.00000000000E+00  0.17213513502E+02  0.17213513502E+02  0.00000000000E+00 0. -1.
         -4   -1    0    0    0  501 -0.00000000000E+00 -0.00000000000E+00 -0.60536964916E+03  0.60537098132E+03  0.12700000000E+01 0.  1.
         25    2    1    2    0    0 -0.61180576828E+01 -0.24062794650E+02 -0.58354545220E+03  0.59729971644E+03  0.12500083103E+03 0.  0.
    9000005    1    3    3    0    0  0.18328554639E+02  0.23791829868E+02 -0.47718977763E+03  0.47813499240E+03  0.10000000000E+01 0.  0.
    9000005    1    3    3    0    0 -0.24446612321E+02 -0.47854624518E+02 -0.10635567456E+03  0.11916472403E+03  0.10000000000E+01 0.  0.
         -4    1    1    2    0  502  0.61180576828E+01  0.24062794650E+02 -0.46106834653E+01  0.25284778389E+02  0.12700000000E+01 0. -1.
<mgrwt>
<rscale>  1 0.12744276E+03</rscale>
<asrwt>0</asrwt>
<pdfrwt beam="1">  1       21 0.26482337E-02 0.12744276E+03</pdfrwt>
<pdfrwt beam="2">  1       -4 0.93137470E-01 0.12744276E+03</pdfrwt>
<totfact> 0.31501637E+04</totfact>
</mgrwt>
</event>
<event>
 6    3  0.3813045E-003  0.1282636E+03  0.7818608E-02  0.1230055E+00
         21   -1    0    0  501  502  0.00000000000E+00  0.00000000000E+00  0.76758715299E+02  0.76758715299E+02  0.00000000000E+00 0.  1.
         -4   -1    0    0    0  501 -0.00000000000E+00 -0.00000000000E+00 -0.88396942394E+02  0.88406064976E+02  0.12700000000E+01 0.  1.
         25    2    1    2    0    0 -0.17370108033E+02 -0.22904977157E+02  0.10740225082E+02  0.12871252858E+03  0.12500081579E+03 0.  0.
    9000005    1    3    3    0    0 -0.10034921187E+01 -0.60633998605E+02  0.44720470997E+02  0.75355220851E+02  0.10000000000E+01 0.  0.
    9000005    1    3    3    0    0 -0.16366615915E+02  0.37729021448E+02 -0.33980245916E+02  0.53357307732E+02  0.10000000000E+01 0.  0.
         -4    1    1    2    0  502  0.17370108033E+02  0.22904977157E+02 -0.22378452177E+02  0.36452251693E+02  0.12700000000E+01 0. -1.
<mgrwt>
<rscale>  1 0.12826364E+03</rscale>
<asrwt>0</asrwt>
<pdfrwt beam="1">  1       21 0.11809033E-01 0.12826364E+03</pdfrwt>
<pdfrwt beam="2">  1       -4 0.13601040E-01 0.12826364E+03</pdfrwt>
<totfact> 0.10792522E+05</totfact>
</mgrwt>
</event>
<event>
 6    3  0.3813045E-003  0.1802431E+03  0.7818608E-02  0.1167568E+00
         21   -1    0    0  501  502  0.00000000000E+00  0.00000000000E+00  0.40411588792E+03  0.40411588792E+03  0.00000000000E+00 0.  1.
         -4   -1    0    0    0  501 -0.00000000000E+00 -0.00000000000E+00 -0.94062213260E+02  0.94070786450E+02  0.12700000000E+01 0. -1.
         25    2    1    2    0    0 -0.11293880082E+03  0.64091381637E+02  0.21202710084E+02  0.18148591566E+03  0.12499881894E+03 0.  0.
    9000005    1    3    3    0    0  0.12953461531E+02  0.26726497013E+02  0.38924475932E+02  0.48971549238E+02  0.10000000000E+01 0.  0.
    9000005    1    3    3    0    0 -0.12589226235E+03  0.37364884624E+02 -0.17721765848E+02  0.13251436642E+03  0.10000000000E+01 0.  0.
         -4    1    1    2    0  502  0.11293880082E+03 -0.64091381637E+02  0.28885096457E+03  0.31670075871E+03  0.12700000000E+01 0.  1.
<mgrwt>
<rscale>  1 0.18024312E+03</rscale>
<asrwt>0</asrwt>
<pdfrwt beam="1">  1       21 0.62171674E-01 0.18024312E+03</pdfrwt>
<pdfrwt beam="2">  1       -4 0.14471923E-01 0.18024312E+03</pdfrwt>
<totfact> 0.40432310E+03</totfact>
</mgrwt>
</event>
<event>
 6    3  0.3813045E-003  0.1328234E+03  0.7818608E-02  0.1223325E+00
         -4   -1    0    0    0  501 -0.00000000000E+00  0.00000000000E+00  0.11083592971E+03  0.11084320554E+03  0.12700000000E+01 0. -1.
         21   -1    0    0  501  502  0.00000000000E+00 -0.00000000000E+00 -0.22093480983E+03  0.22093480983E+03  0.00000000000E+00 0.  1.
         25    2    1    2    0    0  0.78873493084E+01  0.44183449073E+02  0.67218931144E+02  0.14886380996E+03  0.12501064659E+03 0.  0.
    9000005    1    3    3    0    0  0.22920074369E+02 -0.39902674336E+02  0.33927989235E+02  0.57180955587E+02  0.10000000000E+01 0.  0.
    9000005    1    3    3    0    0 -0.15032725061E+02  0.84086123409E+02  0.33290941908E+02  0.91682854372E+02  0.10000000000E+01 0.  0.
         -4    1    1    2    0  502 -0.78873493084E+01 -0.44183449073E+02 -0.17731781126E+03  0.18291420541E+03  0.12700000000E+01 0.  1.
<mgrwt>
<rscale>  1 0.13282338E+03</rscale>
<asrwt>0</asrwt>
<pdfrwt beam="2">  1       21 0.33989970E-01 0.13282338E+03</pdfrwt>
<pdfrwt beam="1">  1       -4 0.17052522E-01 0.13282338E+03</pdfrwt>
<totfact> 0.10275305E+04</totfact>
</mgrwt>
</event>
<event>
 6    3  0.3813045E-003  0.1487837E+03  0.7818608E-02  0.1201976E+00
         21   -1    0    0  501  502  0.00000000000E+00  0.00000000000E+00  0.64134709366E+03  0.64134709366E+03  0.00000000000E+00 0. -1.
         -4   -1    0    0    0  501 -0.00000000000E+00 -0.00000000000E+00 -0.28941341670E+02  0.28969193252E+02  0.12700000000E+01 0.  1.
         25    2    1    2    0    0  0.80536392823E+02 -0.49854254284E+01  0.19552429277E+03  0.24569559856E+03  0.12500245219E+03 0.  0.
    9000005    1    3    3    0    0 -0.24047625965E+02 -0.13392320880E+02  0.10026088167E+03  0.10397541520E+03  0.10000000000E+01 0.  0.
    9000005    1    3    3    0    0  0.10458401879E+03  0.84068954512E+01  0.95263411105E+02  0.14172018336E+03  0.10000000000E+01 0.  0.
         -4    1    1    2    0  502 -0.80536392823E+02  0.49854254284E+01  0.41688145921E+03  0.42462068835E+03  0.12700000000E+01 0. -1.
<mgrwt>
<rscale>  1 0.14878366E+03</rscale>
<asrwt>0</asrwt>
<pdfrwt beam="1">  1       21 0.98668773E-01 0.14878366E+03</pdfrwt>
<pdfrwt beam="2">  1       -4 0.44547537E-02 0.14878366E+03</pdfrwt>
<totfact> 0.10144550E+04</totfact>
</mgrwt>
</event>
<event>
 6    3  0.3813045E-003  0.1339181E+03  0.7818608E-02  0.1221755E+00
          4   -1    0    0  502    0 -0.00000000000E+00  0.00000000000E+00  0.33846578831E+02  0.33870397083E+02  0.12700000000E+01 0.  1.
         21   -1    0    0  501  502  0.00000000000E+00 -0.00000000000E+00 -0.70962401464E+03  0.70962401464E+03  0.00000000000E+00 0. -1.
         25    2    1    2    0    0 -0.47905868041E+02 -0.36698469451E+01 -0.10362990146E+03  0.16933167004E+03  0.12500247211E+03 0.  0.
    9000005    1    3    3    0    0 -0.57487591376E+02  0.44887193189E+02 -0.26350987920E+02  0.77556803950E+02  0.10000000000E+01 0.  0.
    9000005    1    3    3    0    0  0.95817233357E+01 -0.48557040134E+02 -0.77278913536E+02  0.91774866090E+02  0.10000000000E+01 0.  0.
          4    1    1    2  501    0  0.47905868041E+02  0.36698469451E+01 -0.57214753435E+03  0.57416274168E+03  0.12700000000E+01 0. -1.
<mgrwt>
<rscale>  1 0.13391810E+03</rscale>
<asrwt>0</asrwt>
<pdfrwt beam="2">  1       21 0.10917291E+00 0.13391810E+03</pdfrwt>
<pdfrwt beam="1">  1        4 0.52090862E-02 0.13391810E+03</pdfrwt>
<totfact> 0.61746972E+03</totfact>
</mgrwt>
</event>
<event>
 6    3  0.3813045E-003  0.1281335E+03  0.7818608E-02  0.1230252E+00
         21   -1    0    0  501  502  0.00000000000E+00  0.00000000000E+00  0.84444664346E+02  0.84444664346E+02  0.00000000000E+00 0.  1.
          4   -1    0    0  502    0 -0.00000000000E+00 -0.00000000000E+00 -0.13457665665E+03  0.13458264901E+03  0.12700000000E+01 0. -1.
         25    2    1    2    0    0  0.23884674466E+02 -0.14880169032E+02 -0.99471928474E+02  0.16221235664E+03  0.12500514785E+03 0.  0.
    9000005    1    3    3    0    0  0.57081662574E+02  0.29486318448E+02 -0.24029579065E+02  0.68601602371E+02  0.10000000000E+01 0.  0.
    9000005    1    3    3    0    0 -0.33196988108E+02 -0.44366487480E+02 -0.75442349408E+02  0.93610754270E+02  0.10000000000E+01 0.  0.
          4    1    1    2  501    0 -0.23884674466E+02  0.14880169032E+02  0.49339936174E+02  0.56814956714E+02  0.12700000000E+01 0.  1.
<mgrwt>
<rscale>  1 0.12813346E+03</rscale>
<asrwt>0</asrwt>
<pdfrwt beam="1">  1       21 0.12991487E-01 0.12813346E+03</pdfrwt>
<pdfrwt beam="2">  1        4 0.20705296E-01 0.12813346E+03</pdfrwt>
<totfact> 0.43401242E+04</totfact>
</mgrwt>
</event>
<event>
 6    3  0.3813045E-003  0.1266901E+03  0.7818608E-02  0.1232451E+00
         21   -1    0    0  501  502  0.00000000000E+00  0.00000000000E+00  0.12439567849E+03  0.12439567849E+03  0.00000000000E+00 0. -1.
          4   -1    0    0  502    0 -0.00000000000E+00 -0.00000000000E+00 -0.49525404735E+02  0.49541685621E+02  0.12700000000E+01 0. -1.
         25    2    1    2    0    0  0.17622835904E+01  0.20523607604E+02  0.39006045506E+02  0.13255886872E+03  0.12500423184E+03 0.  0.
    9000005    1    3    3    0    0  0.43490919833E+02  0.38027684693E+02 -0.17301214405E+02  0.60314980982E+02  0.10000000000E+01 0.  0.
    9000005    1    3    3    0    0 -0.41728636243E+02 -0.17504077088E+02  0.56307259911E+02  0.72243887742E+02  0.10000000000E+01 0.  0.
          4    1    1    2  501    0 -0.17622835904E+01 -0.20523607604E+02  0.35864228248E+02  0.41378495386E+02  0.12700000000E+01 0.  1.
<mgrwt>
<rscale>  1 0.12669010E+03</rscale>
<asrwt>0</asrwt>
<pdfrwt beam="1">  1       21 0.19137797E-01 0.12669010E+03</pdfrwt>
<pdfrwt beam="2">  1        4 0.76210441E-02 0.12669010E+03</pdfrwt>
<totfact> 0.11979121E+05</totfact>
</mgrwt>
</event>
<event>
 6    3  0.3813045E-003  0.1458767E+03  0.7818608E-02  0.1205633E+00
         -4   -1    0    0    0  501 -0.00000000000E+00  0.00000000000E+00  0.34663800501E+02  0.34687057604E+02  0.12700000000E+01 0.  1.
         21   -1    0    0  501  502  0.00000000000E+00 -0.00000000000E+00 -0.37079543437E+03  0.37079543437E+03  0.00000000000E+00 0.  1.
         25    2    1    2    0    0  0.45440370663E+02 -0.59927189071E+02 -0.17622878127E+03  0.22877190812E+03  0.12499562921E+03 0.  0.
    9000005    1    3    3    0    0 -0.65664864732E+01  0.27297122808E+02 -0.33799777467E+01  0.28296217199E+02  0.10000000000E+01 0.  0.
    9000005    1    3    3    0    0  0.52006857136E+02 -0.87224311879E+02 -0.17284880352E+03  0.20047569092E+03  0.10000000000E+01 0.  0.
         -4    1    1    2    0  502 -0.45440370663E+02  0.59927189071E+02 -0.15990285260E+03  0.17671058385E+03  0.12700000000E+01 0. -1.
<mgrwt>
<rscale>  1 0.14587667E+03</rscale>
<asrwt>0</asrwt>
<pdfrwt beam="2">  1       21 0.57045454E-01 0.14587667E+03</pdfrwt>
<pdfrwt beam="1">  1       -4 0.53348484E-02 0.14587667E+03</pdfrwt>
<totfact> 0.25582915E+04</totfact>
</mgrwt>
</event>
<event>
 6    3  0.3813045E-003  0.1304421E+03  0.7818608E-02  0.1226801E+00
         -4   -1    0    0    0  501 -0.00000000000E+00  0.00000000000E+00  0.10325533521E+04  0.10325541331E+04  0.12700000000E+01 0. -1.
         21   -1    0    0  501  502  0.00000000000E+00 -0.00000000000E+00 -0.17575779447E+02  0.17575779447E+02  0.00000000000E+00 0.  1.
         25    2    1    2    0    0  0.23427485455E+02 -0.29011591481E+02  0.10022570512E+04  0.10107098151E+04  0.12499845696E+03 0.  0.
    9000005    1    3    3    0    0 -0.50071269011E+02  0.80144521015E+00  0.45156762748E+03  0.45433698560E+03  0.10000000000E+01 0.  0.
    9000005    1    3    3    0    0  0.73498754466E+02 -0.29813036692E+02  0.55068942369E+03  0.55637282952E+03  0.10000000000E+01 0.  0.
         -4    1    1    2    0  502 -0.23427485455E+02  0.29011591481E+02  0.12720521459E+02  0.39420097428E+02  0.12700000000E+01 0.  1.
<mgrwt>
<rscale>  1 0.13044207E+03</rscale>
<asrwt>0</asrwt>
<pdfrwt beam="2">  1       21 0.27039669E-02 0.13044207E+03</pdfrwt>
<pdfrwt beam="1">  1       -4 0.15885790E+00 0.13044207E+03</pdfrwt>
<totfact> 0.84044054E+03</totfact>
</mgrwt>
</event>
<event>
 6    3  0.3813045E-003  0.1310380E+03  0.7818608E-02  0.1225924E+00
         21   -1    0    0  501  502  0.00000000000E+00  0.00000000000E+00  0.48830005445E+02  0.48830005445E+02  0.00000000000E+00 0.  1.
          4   -1    0    0  502    0 -0.00000000000E+00 -0.00000000000E+00 -0.34522566437E+03  0.34522800037E+03  0.12700000000E+01 0. -1.
         25    2    1    2    0    0 -0.31907920215E+02  0.22970182094E+02 -0.32164638116E+03  0.34731448742E+03  0.12500085609E+03 0.  0.
    9000005    1    3    3    0    0  0.33212153098E+02 -0.51322521751E+01 -0.23937671898E+02  0.41272257773E+02  0.10000000000E+01 0.  0.
    9000005    1    3    3    0    0 -0.65120073313E+02  0.28102434269E+02 -0.29770870926E+03  0.30604222965E+03  0.10000000000E+01 0.  0.
          4    1    1    2  501    0  0.31907920215E+02 -0.22970182094E+02  0.25250722237E+02  0.46743518389E+02  0.12700000000E+01 0.  1.
<mgrwt>
<rscale>  1 0.13103800E+03</rscale>
<asrwt>0</asrwt>
<pdfrwt beam="1">  1       21 0.75123085E-02 0.13103800E+03</pdfrwt>
<pdfrwt beam="2">  1        4 0.53113091E-01 0.13103800E+03</pdfrwt>
<totfact> 0.18599858E+04</totfact>
</mgrwt>
</event>
<event>
 6    3  0.3813045E-003  0.1266384E+03  0.7818608E-02  0.1232531E+00
          4   -1    0    0  502    0 -0.00000000000E+00  0.00000000000E+00  0.45213738830E+02  0.45231571706E+02  0.12700000000E+01 0. -1.
         21   -1    0    0  501  502  0.00000000000E+00 -0.00000000000E+00 -0.96619621254E+03  0.96619621254E+03  0.00000000000E+00 0.  1.
         25    2    1    2    0    0  0.18609294426E+02  0.81168121769E+01 -0.43784381555E+02  0.13399385838E+03  0.12500037415E+03 0.  0.
    9000005    1    3    3    0    0 -0.31076741760E+02  0.34532431981E+02 -0.59561792482E+02  0.75543761229E+02  0.10000000000E+01 0.  0.
    9000005    1    3    3    0    0  0.49686036186E+02 -0.26415619804E+02  0.15777410927E+02  0.58450097152E+02  0.10000000000E+01 0.  0.
          4    1    1    2  501    0 -0.18609294426E+02 -0.81168121769E+01 -0.87719809215E+03  0.87743392586E+03  0.12700000000E+01 0.  1.
<mgrwt>
<rscale>  1 0.12663839E+03</rscale>
<asrwt>0</asrwt>
<pdfrwt beam="2">  1       21 0.14864556E+00 0.12663839E+03</pdfrwt>
<pdfrwt beam="1">  1        4 0.69573965E-02 0.12663839E+03</pdfrwt>
<totfact> 0.17925245E+03</totfact>
</mgrwt>
</event>
<event>
 6    3  0.3813045E-003  0.1281262E+03  0.7818608E-02  0.1230263E+00
          4   -1    0    0  502    0 -0.00000000000E+00  0.00000000000E+00  0.12929292134E+02  0.12991516274E+02  0.12700000000E+01 0.  1.
         21   -1    0    0  501  502  0.00000000000E+00 -0.00000000000E+00 -0.48890261854E+03  0.48890261854E+03  0.00000000000E+00 0.  1.
         25    2    1    2    0    0 -0.18535336584E+02  0.21188816487E+02 -0.34754448499E+03  0.37040989677E+03  0.12499519164E+03 0.  0.
    9000005    1    3    3    0    0  0.10940323956E+02 -0.42401587125E+02 -0.59052117359E+02  0.73523722998E+02  0.10000000000E+01 0.  0.
    9000005    1    3    3    0    0 -0.29475660539E+02  0.63590403612E+02 -0.28849236763E+03  0.29688617377E+03  0.10000000000E+01 0.  0.
          4    1    1    2  501    0  0.18535336584E+02 -0.21188816487E+02 -0.12842884142E+03  0.13148423804E+03  0.12700000000E+01 0. -1.
<mgrwt>
<rscale>  1 0.12812620E+03</rscale>
<asrwt>0</asrwt>
<pdfrwt beam="2">  1       21 0.75215777E-01 0.12812620E+03</pdfrwt>
<pdfrwt beam="1">  1        4 0.19940355E-02 0.12812620E+03</pdfrwt>
<totfact> 0.65451291E+04</totfact>
</mgrwt>
</event>
<event>
 6    3  0.3813045E-003  0.1427258E+03  0.7818608E-02  0.1209708E+00
          4   -1    0    0  502    0 -0.00000000000E+00  0.00000000000E+00  0.23146931632E+02  0.23181745922E+02  0.12700000000E+01 0. -1.
         21   -1    0    0  501  502  0.00000000000E+00 -0.00000000000E+00 -0.75810848409E+03  0.75810848409E+03  0.00000000000E+00 0.  1.
         25    2    1    2    0    0 -0.96583603958E+01 -0.68224213962E+02 -0.22335243250E+03  0.26506030854E+03  0.12499132276E+03 0.  0.
    9000005    1    3    3    0    0  0.11397908120E+02 -0.30553406594E+01 -0.18726978385E+03  0.18764386310E+03  0.10000000000E+01 0.  0.
    9000005    1    3    3    0    0 -0.21056268516E+02 -0.65168873303E+02 -0.36082648651E+02  0.77416445443E+02  0.10000000000E+01 0.  0.
          4    1    1    2  501    0  0.96583603958E+01  0.68224213962E+02 -0.51160911995E+03  0.51622992147E+03  0.12700000000E+01 0.  1.
<mgrwt>
<rscale>  1 0.14272581E+03</rscale>
<asrwt>0</asrwt>
<pdfrwt beam="2">  1       21 0.11663208E+00 0.14272581E+03</pdfrwt>
<pdfrwt beam="1">  1        4 0.35638260E-02 0.14272581E+03</pdfrwt>
<totfact> 0.96827098E+03</totfact>
</mgrwt>
</event>
<event>
 6    3  0.3813045E-003  0.1268919E+03  0.7818608E-02  0.1232142E+00
         -4   -1    0    0    0  501 -0.00000000000E+00  0.00000000000E+00  0.70125580697E+02  0.70137079838E+02  0.12700000000E+01 0. -1.
         21   -1    0    0  501  502  0.00000000000E+00 -0.00000000000E+00 -0.81146013463E+02  0.81146013463E+02  0.00000000000E+00 0. -1.
         25    2    1    2    0    0  0.12715704258E+02 -0.17727777490E+02 -0.18396243790E+02  0.12821842947E+03  0.12500232254E+03 0.  0.
    9000005    1    3    3    0    0  0.27955578714E+02 -0.47667064583E+02 -0.55382488212E+02  0.78242465629E+02  0.10000000000E+01 0.  0.
    9000005    1    3    3    0    0 -0.15239874456E+02  0.29939287093E+02  0.36986244422E+02  0.49975963837E+02  0.10000000000E+01 0.  0.
         -4    1    1    2    0  502 -0.12715704258E+02  0.17727777490E+02  0.73758110243E+01  0.23064663834E+02  0.12700000000E+01 0.  1.
<mgrwt>
<rscale>  1 0.12689186E+03</rscale>
<asrwt>0</asrwt>
<pdfrwt beam="2">  1       21 0.12484002E-01 0.12689186E+03</pdfrwt>
<pdfrwt beam="1">  1       -4 0.10790200E-01 0.12689186E+03</pdfrwt>
<totfact> 0.14506647E+05</totfact>
</mgrwt>
</event>
<event>
 6    3  0.3813045E-003  0.1266068E+03  0.7818608E-02  0.1232579E+00
         21   -1    0    0  501  502  0.00000000000E+00  0.00000000000E+00  0.61854188209E+02  0.61854188209E+02  0.00000000000E+00 0. -1.
          4   -1    0    0  502    0 -0.00000000000E+00 -0.00000000000E+00 -0.19545218701E+03  0.19545631304E+03  0.12700000000E+01 0.  1.
         25    2    1    2    0    0  0.19304374915E+02  0.55777852028E+01 -0.17222329853E+03  0.21375252542E+03  0.12500202794E+03 0.  0.
    9000005    1    3    3    0    0 -0.50229253033E+02  0.12609406659E+02 -0.10346397741E+03  0.11570552977E+03  0.10000000000E+01 0.  0.
    9000005    1    3    3    0    0  0.69533627949E+02 -0.70316214563E+01 -0.68759321117E+02  0.98046995653E+02  0.10000000000E+01 0.  0.
          4    1    1    2  501    0 -0.19304374915E+02 -0.55777852028E+01  0.38625299732E+02  0.43557975825E+02  0.12700000000E+01 0. -1.
<mgrwt>
<rscale>  1 0.12660678E+03</rscale>
<asrwt>0</asrwt>
<pdfrwt beam="1">  1       21 0.95160288E-02 0.12660678E+03</pdfrwt>
<pdfrwt beam="2">  1        4 0.30070888E-01 0.12660678E+03</pdfrwt>
<totfact> 0.37685890E+04</totfact>
</mgrwt>
</event>
<event>
 6    3  0.3813045E-003  0.1272416E+03  0.7818608E-02  0.1231607E+00
          4   -1    0    0  502    0 -0.00000000000E+00  0.00000000000E+00  0.24394390321E+03  0.24394720907E+03  0.12700000000E+01 0.  1.
         21   -1    0    0  501  502  0.00000000000E+00 -0.00000000000E+00 -0.26469173333E+02  0.26469173333E+02  0.00000000000E+00 0.  1.
         25    2    1    2    0    0  0.51204126535E+01 -0.23206947423E+02  0.20987354930E+03  0.24543295028E+03  0.12500258138E+03 0.  0.
    9000005    1    3    3    0    0 -0.28027362204E+02 -0.32564012185E+02  0.20637032845E+03  0.21079767642E+03  0.10000000000E+01 0.  0.
    9000005    1    3    3    0    0  0.33147774858E+02  0.93570647623E+01  0.35032208571E+01  0.34635273860E+02  0.10000000000E+01 0.  0.
          4    1    1    2  501    0 -0.51204126535E+01  0.23206947423E+02  0.76011805727E+01  0.24983432120E+02  0.12700000000E+01 0. -1.
<mgrwt>
<rscale>  1 0.12724161E+03</rscale>
<asrwt>0</asrwt>
<pdfrwt beam="2">  1       21 0.40721807E-02 0.12724161E+03</pdfrwt>
<pdfrwt beam="1">  1        4 0.37532427E-01 0.12724161E+03</pdfrwt>
<totfact> 0.10436848E+05</totfact>
</mgrwt>
</event>
<event>
 6    3  0.3813045E-003  0.1276155E+03  0.7818608E-02  0.1231037E+00
         -4   -1    0    0    0  501 -0.00000000000E+00  0.00000000000E+00  0.29840233485E+03  0.29840503739E+03  0.12700000000E+01 0.  1.
         21   -1    0    0  501  502  0.00000000000E+00 -0.00000000000E+00 -0.55327745413E+02  0.55327745413E+02  0.00000000000E+00 0. -1.
         25    2    1    2    0    0  0.30533713858E+01  0.25516424817E+02  0.28058675909E+03  0.30824446799E+03  0.12500124663E+03 0.  0.
    9000005    1    3    3    0    0  0.10745556115E+02 -0.47466745733E+02  0.70222460380E+02  0.85444443169E+02  0.10000000000E+01 0.  0.
    9000005    1    3    3    0    0 -0.76921847289E+01  0.72983170551E+02  0.21036429871E+03  0.22280002482E+03  0.10000000000E+01 0.  0.
         -4    1    1    2    0  502 -0.30533713858E+01 -0.25516424817E+02 -0.37512169656E+02  0.45488314814E+02  0.12700000000E+01 0. -1.
<mgrwt>
<rscale>  1 0.12761553E+03</rscale>
<asrwt>0</asrwt>
<pdfrwt beam="2">  1       21 0.85119610E-02 0.12761553E+03</pdfrwt>
<pdfrwt beam="1">  1       -4 0.45909380E-01 0.12761553E+03</pdfrwt>
<totfact> 0.20103192E+04</totfact>
</mgrwt>
</event>
<event>
 6    3  0.3813045E-003  0.1279594E+03  0.7818608E-02  0.1230515E+00
         -4   -1    0    0    0  501 -0.00000000000E+00  0.00000000000E+00  0.74335739281E+01  0.75412811474E+01  0.12700000000E+01 0.  1.
         21   -1    0    0  501  502  0.00000000000E+00 -0.00000000000E+00 -0.80809904813E+03  0.80809904813E+03  0.00000000000E+00 0.  1.
         25    2    1    2    0    0  0.21445694668E+02 -0.16979451499E+02 -0.64170202986E+03  0.65433562032E+03  0.12500155722E+03 0.  0.
    9000005    1    3    3    0    0  0.31454291666E+02 -0.34092357839E+02 -0.81493613965E+02  0.93775638864E+02  0.10000000000E+01 0.  0.
    9000005    1    3    3    0    0 -0.10008596998E+02  0.17112906340E+02 -0.56020841589E+03  0.56055998146E+03  0.10000000000E+01 0.  0.
         -4    1    1    2    0  502 -0.21445694668E+02  0.16979451499E+02 -0.15896344435E+03  0.16130470896E+03  0.12700000000E+01 0. -1.
<mgrwt>
<rscale>  1 0.12795940E+03</rscale>
<asrwt>0</asrwt>
<pdfrwt beam="2">  1       21 0.12432295E+00 0.12795940E+03</pdfrwt>
<pdfrwt beam="1">  1       -4 0.11519886E-02 0.12795940E+03</pdfrwt>
<totfact> 0.46919576E+04</totfact>
</mgrwt>
</event>
<event>
 6    3  0.3813045E-003  0.1319302E+03  0.7818608E-02  0.1224619E+00
         -4   -1    0    0    0  501 -0.00000000000E+00  0.00000000000E+00  0.41840749063E+03  0.41840941805E+03  0.12700000000E+01 0. -1.
         21   -1    0    0  501  502  0.00000000000E+00 -0.00000000000E+00 -0.18999399609E+02  0.18999399609E+02  0.00000000000E+00 0. -1.
         25    2    1    2    0    0 -0.40865368432E+02 -0.10478767948E+02  0.33854501172E+03  0.36334323701E+03  0.12500319999E+03 0.  0.
    9000005    1    3    3    0    0 -0.42518794019E+02  0.42275815691E+02  0.82965480216E+02  0.10236876157E+03  0.10000000000E+01 0.  0.
    9000005    1    3    3    0    0  0.16534255866E+01 -0.52754583639E+02  0.25557953150E+03  0.26097447545E+03  0.10000000000E+01 0.  0.
         -4    1    1    2    0  502  0.40865368432E+02  0.10478767948E+02  0.60863079297E+02  0.74065580645E+02  0.12700000000E+01 0.  1.
<mgrwt>
<rscale>  1 0.13193022E+03</rscale>
<asrwt>0</asrwt>
<pdfrwt beam="2">  1       21 0.29229849E-02 0.13193022E+03</pdfrwt>
<pdfrwt beam="1">  1       -4 0.64373789E-01 0.13193022E+03</pdfrwt>
<totfact> 0.60605507E+04</totfact>
</mgrwt>
</event>
<event>
 6    3  0.3813045E-003  0.1309733E+03  0.7818608E-02  0.1226019E+00
         21   -1    0    0  501  502  0.00000000000E+00  0.00000000000E+00  0.56111020751E+02  0.56111020751E+02  0.00000000000E+00 0. -1.
          4   -1    0    0  502    0 -0.00000000000E+00 -0.00000000000E+00 -0.13134046997E+03  0.13134660997E+03  0.12700000000E+01 0. -1.
         25    2    1    2    0    0 -0.35206999278E+02 -0.17099189627E+02 -0.46870623364E+02  0.13910733612E+03  0.12498832163E+03 0.  0.
    9000005    1    3    3    0    0 -0.28746408303E+02  0.36529535747E+02 -0.66915576956E+02  0.81482865754E+02  0.10000000000E+01 0.  0.
    9000005    1    3    3    0    0 -0.64605909754E+01 -0.53628725374E+02  0.20044953592E+02  0.57624470370E+02  0.10000000000E+01 0.  0.
          4    1    1    2  501    0  0.35206999278E+02  0.17099189627E+02 -0.28358825853E+02  0.48350294599E+02  0.12700000000E+01 0.  1.
<mgrwt>
<rscale>  1 0.13097326E+03</rscale>
<asrwt>0</asrwt>
<pdfrwt beam="1">  1       21 0.86324648E-02 0.13097326E+03</pdfrwt>
<pdfrwt beam="2">  1        4 0.20207804E-01 0.13097326E+03</pdfrwt>
<totfact> 0.93249742E+04</totfact>
</mgrwt>
</event>
<event>
 6    3  0.3813045E-003  0.1422373E+03  0.7818608E-02  0.1210350E+00
         -4   -1    0    0    0  501 -0.00000000000E+00  0.00000000000E+00  0.18349106892E+03  0.18349546390E+03  0.12700000000E+01 0.  1.
         21   -1    0    0  501  502  0.00000000000E+00 -0.00000000000E+00 -0.80579755776E+02  0.80579755776E+02  0.00000000000E+00 0. -1.
         25    2    1    2    0    0  0.62579226756E+02 -0.26271555008E+02  0.12834732130E+03  0.19158413309E+03  0.12500036378E+03 0.  0.
    9000005    1    3    3    0    0  0.67153695855E+01  0.46280638945E+02  0.65628131659E+02  0.80591844469E+02  0.10000000000E+01 0.  0.
    9000005    1    3    3    0    0  0.55863857170E+02 -0.72552193953E+02  0.62719189637E+02  0.11099228862E+03  0.10000000000E+01 0.  0.
         -4    1    1    2    0  502 -0.62579226756E+02  0.26271555008E+02 -0.25436008151E+02  0.72491086587E+02  0.12700000000E+01 0. -1.
<mgrwt>
<rscale>  1 0.14223728E+03</rscale>
<asrwt>0</asrwt>
<pdfrwt beam="2">  1       21 0.12396886E-01 0.14223728E+03</pdfrwt>
<pdfrwt beam="1">  1       -4 0.28230503E-01 0.14223728E+03</pdfrwt>
<totfact> 0.26991093E+04</totfact>
</mgrwt>
</event>
<event>
 6    3  0.3813045E-003  0.1310963E+03  0.7818608E-02  0.1225838E+00
          4   -1    0    0  502    0 -0.00000000000E+00  0.00000000000E+00  0.80044339071E+03  0.80044439821E+03  0.12700000000E+01 0.  1.
         21   -1    0    0  501  502  0.00000000000E+00 -0.00000000000E+00 -0.16978814918E+02  0.16978814918E+02  0.00000000000E+00 0. -1.
         25    2    1    2    0    0  0.21867584065E+02 -0.32902819146E+02  0.76048468309E+03  0.77170149937E+03  0.12500185667E+03 0.  0.
    9000005    1    3    3    0    0 -0.30903400477E+02  0.33919745985E+02  0.25667340185E+03  0.26074471145E+03  0.10000000000E+01 0.  0.
    9000005    1    3    3    0    0  0.52770984542E+02 -0.66822565130E+02  0.50381128124E+03  0.51095678793E+03  0.10000000000E+01 0.  0.
          4    1    1    2  501    0 -0.21867584065E+02  0.32902819146E+02  0.22979892696E+02  0.45721713757E+02  0.12700000000E+01 0. -1.
<mgrwt>
<rscale>  1 0.13109634E+03</rscale>
<asrwt>0</asrwt>
<pdfrwt beam="2">  1       21 0.26121260E-02 0.13109634E+03</pdfrwt>
<pdfrwt beam="1">  1        4 0.12314884E+00 0.13109634E+03</pdfrwt>
<totfact> 0.16801331E+04</totfact>
</mgrwt>
</event>
<event>
 6    3  0.3813045E-003  0.1610359E+03  0.7818608E-02  0.1187532E+00
         -4   -1    0    0    0  501 -0.00000000000E+00  0.00000000000E+00  0.63140598342E+02  0.63153369340E+02  0.12700000000E+01 0. -1.
         21   -1    0    0  501  502  0.00000000000E+00 -0.00000000000E+00 -0.27488534197E+03  0.27488534197E+03  0.00000000000E+00 0.  1.
         25    2    1    2    0    0 -0.82857694972E+02 -0.58668025377E+02 -0.11583647619E+03  0.19837001947E+03  0.12500096236E+03 0.  0.
    9000005    1    3    3    0    0 -0.41575204187E+02 -0.87146001370E+01  0.20675535668E+02  0.47253779044E+02  0.10000000000E+01 0.  0.
    9000005    1    3    3    0    0 -0.41282490785E+02 -0.49953425240E+02 -0.13651201186E+03  0.15111624043E+03  0.10000000000E+01 0.  0.
         -4    1    1    2    0  502  0.82857694972E+02  0.58668025377E+02 -0.95908267438E+02  0.13966869184E+03  0.12700000000E+01 0.  1.
<mgrwt>
<rscale>  1 0.16103594E+03</rscale>
<asrwt>0</asrwt>
<pdfrwt beam="2">  1       21 0.42290052E-01 0.16103594E+03</pdfrwt>
<pdfrwt beam="1">  1       -4 0.97151464E-02 0.16103594E+03</pdfrwt>
<totfact> 0.17818866E+04</totfact>
</mgrwt>
</event>
<event>
 6    3  0.3813045E-003  0.1476095E+03  0.7818608E-02  0.1203442E+00
         21   -1    0    0  501  502  0.00000000000E+00  0.00000000000E+00  0.28143175623E+03  0.28143175623E+03  0.00000000000E+00 0.  1.
         -4   -1    0    0    0  501 -0.00000000000E+00 -0.00000000000E+00 -0.34717867549E+03  0.34718099835E+03  0.12700000000E+01 0. -1.
         25    2    1    2    0    0  0.14172306144E+02 -0.77220608449E+02 -0.32541724319E+03  0.35733030647E+03  0.12499875649E+03 0.  0.
    9000005    1    3    3    0    0  0.15246963052E+02  0.26576739440E+02 -0.15327313804E+03  0.15630882191E+03  0.10000000000E+01 0.  0.
    9000005    1    3    3    0    0 -0.10746569076E+01 -0.10379734789E+03 -0.17214410515E+03  0.20102148456E+03  0.10000000000E+01 0.  0.
         -4    1    1    2    0  502 -0.14172306144E+02  0.77220608449E+02  0.25967032392E+03  0.27128244812E+03  0.12700000000E+01 0.  1.
<mgrwt>
<rscale>  1 0.14760950E+03</rscale>
<asrwt>0</asrwt>
<pdfrwt beam="1">  1       21 0.43297193E-01 0.14760950E+03</pdfrwt>
<pdfrwt beam="2">  1       -4 0.53412503E-01 0.14760950E+03</pdfrwt>
<totfact> 0.72836351E+02</totfact>
</mgrwt>
</event>
<event>
 6    3  0.3813045E-003  0.1266273E+03  0.7818608E-02  0.1232548E+00
         21   -1    0    0  501  502  0.00000000000E+00  0.00000000000E+00  0.79727799827E+02  0.79727799827E+02  0.00000000000E+00 0. -1.
         -4   -1    0    0    0  501 -0.00000000000E+00 -0.00000000000E+00 -0.22313954291E+03  0.22314315699E+03  0.12700000000E+01 0.  1.
         25    2    1    2    0    0  0.18672722864E+02 -0.77576802219E+01 -0.20337677007E+03  0.23957585793E+03  0.12500251565E+03 0.  0.
    9000005    1    3    3    0    0 -0.45489678736E+01 -0.60931427697E+02 -0.63448290354E+02  0.88090961731E+02  0.10000000000E+01 0.  0.
    9000005    1    3    3    0    0  0.23221690737E+02  0.53173747475E+02 -0.13992847971E+03  0.15148489620E+03  0.10000000000E+01 0.  0.
         -4    1    1    2    0  502 -0.18672722864E+02  0.77576802219E+01  0.59965026984E+02  0.63295098884E+02  0.12700000000E+01 0. -1.
<mgrwt>
<rscale>  1 0.12662733E+03</rscale>
<asrwt>0</asrwt>
<pdfrwt beam="1">  1       21 0.12265816E-01 0.12662733E+03</pdfrwt>
<pdfrwt beam="2">  1       -4 0.34330216E-01 0.12662733E+03</pdfrwt>
<totfact> 0.18742589E+04</totfact>
</mgrwt>
</event>
<event>
 6    3  0.3813045E-003  0.1274251E+03  0.7818608E-02  0.1231327E+00
          4   -1    0    0  502    0 -0.00000000000E+00  0.00000000000E+00  0.22459200245E+03  0.22459559316E+03  0.12700000000E+01 0.  1.
         21   -1    0    0  501  502  0.00000000000E+00 -0.00000000000E+00 -0.85559122196E+02  0.85559122196E+02  0.00000000000E+00 0. -1.
         25    2    1    2    0    0  0.18309584765E+02  0.16616229581E+02  0.20405788768E+03  0.24057595085E+03  0.12500330644E+03 0.  0.
    9000005    1    3    3    0    0  0.68245747412E+02  0.12304156116E+02  0.15777909115E+03  0.17234882043E+03  0.10000000000E+01 0.  0.
    9000005    1    3    3    0    0 -0.49936162647E+02  0.43120734652E+01  0.46278796526E+02  0.68227130420E+02  0.10000000000E+01 0.  0.
          4    1    1    2  501    0 -0.18309584765E+02 -0.16616229581E+02 -0.65025007423E+02  0.69578764505E+02  0.12700000000E+01 0. -1.
<mgrwt>
<rscale>  1 0.12742514E+03</rscale>
<asrwt>0</asrwt>
<pdfrwt beam="2">  1       21 0.13162942E-01 0.12742514E+03</pdfrwt>
<pdfrwt beam="1">  1        4 0.34553617E-01 0.12742514E+03</pdfrwt>
<totfact> 0.16337148E+04</totfact>
</mgrwt>
</event>
<event>
 6    3  0.3813045E-003  0.1266204E+03  0.7818608E-02  0.1232558E+00
          4   -1    0    0  502    0 -0.00000000000E+00  0.00000000000E+00  0.79606776077E+02  0.79616905852E+02  0.12700000000E+01 0.  1.
         21   -1    0    0  501  502  0.00000000000E+00 -0.00000000000E+00 -0.76417965417E+02  0.76417965417E+02  0.00000000000E+00 0.  1.
         25    2    1    2    0    0  0.12372386954E+01  0.20161161086E+02  0.21866348302E+02  0.12849460097E+03  0.12499888845E+03 0.  0.
    9000005    1    3    3    0    0 -0.47618896113E+02  0.21941492184E+02 -0.27326420926E+02  0.59133084031E+02  0.10000000000E+01 0.  0.
    9000005    1    3    3    0    0  0.48856134809E+02 -0.17803310980E+01  0.49192769228E+02  0.69361516936E+02  0.10000000000E+01 0.  0.
          4    1    1    2  501    0 -0.12372386954E+01 -0.20161161086E+02 -0.18677537642E+02  0.27540270302E+02  0.12700000000E+01 0. -1.
<mgrwt>
<rscale>  1 0.12662040E+03</rscale>
<asrwt>0</asrwt>
<pdfrwt beam="2">  1       21 0.11756610E-01 0.12662040E+03</pdfrwt>
<pdfrwt beam="1">  1        4 0.12248787E-01 0.12662040E+03</pdfrwt>
<totfact> 0.12999301E+05</totfact>
</mgrwt>
</event>
<event>
 6    3  0.3813045E-003  0.1278273E+03  0.7818608E-02  0.1230716E+00
          4   -1    0    0  502    0 -0.00000000000E+00  0.00000000000E+00  0.10310692301E+03  0.10311474420E+03  0.12700000000E+01 0.  1.
         21   -1    0    0  501  502  0.00000000000E+00 -0.00000000000E+00 -0.72077586554E+02  0.72077586554E+02  0.00000000000E+00 0. -1.
         25    2    1    2    0    0 -0.24287960960E+02  0.11192841588E+02  0.55093028318E+02  0.13919429030E+03  0.12499849573E+03 0.  0.
    9000005    1    3    3    0    0 -0.58733438506E+02 -0.30050451288E+02  0.54285709155E+02  0.85443458731E+02  0.10000000000E+01 0.  0.
    9000005    1    3    3    0    0  0.34445477546E+02  0.41243292877E+02  0.80731916286E+00  0.53750831574E+02  0.10000000000E+01 0.  0.
          4    1    1    2  501    0  0.24287960960E+02 -0.11192841588E+02 -0.24063691864E+02  0.35998040454E+02  0.12700000000E+01 0. -1.
<mgrwt>
<rscale>  1 0.12782726E+03</rscale>
<asrwt>0</asrwt>
<pdfrwt beam="2">  1       21 0.11088859E-01 0.12782726E+03</pdfrwt>
<pdfrwt beam="1">  1        4 0.15864066E-01 0.12782726E+03</pdfrwt>
<totfact> 0.92217243E+04</totfact>
</mgrwt>
</event>
<event>
 6    3  0.3813045E-003  0.1390313E+03  0.7818608E-02  0.1214638E+00
          4   -1    0    0  502    0 -0.00000000000E+00  0.00000000000E+00  0.19081207459E+03  0.19081630095E+03  0.12700000000E+01 0. -1.
         21   -1    0    0  501  502  0.00000000000E+00 -0.00000000000E+00 -0.26983221513E+03  0.26983221513E+03  0.00000000000E+00 0.  1.
         25    2    1    2    0    0  0.49843619356E+02 -0.34940099124E+02  0.16117653840E+03  0.21285575108E+03  0.12499798926E+03 0.  0.
    9000005    1    3    3    0    0  0.52017044032E+02 -0.49579114709E+02  0.17708040372E+03  0.19110816536E+03  0.10000000000E+01 0.  0.
    9000005    1    3    3    0    0 -0.21734246765E+01  0.14639015585E+02 -0.15903865327E+02  0.21747585716E+02  0.10000000000E+01 0.  0.
          4    1    1    2  501    0 -0.49843619356E+02  0.34940099124E+02 -0.24019667893E+03  0.24779276500E+03  0.12700000000E+01 0.  1.
<mgrwt>
<rscale>  1 0.13903127E+03</rscale>
<asrwt>0</asrwt>
<pdfrwt beam="2">  1       21 0.41512648E-01 0.13903127E+03</pdfrwt>
<pdfrwt beam="1">  1        4 0.29356259E-01 0.13903127E+03</pdfrwt>
<totfact> 0.25729017E+03</totfact>
</mgrwt>
</event>
<event>
 6    3  0.3813045E-003  0.1455105E+03  0.7818608E-02  0.1206101E+00
         -4   -1    0    0    0  501 -0.00000000000E+00  0.00000000000E+00  0.49078600116E+02  0.49095029172E+02  0.12700000000E+01 0.  1.
         21   -1    0    0  501  502  0.00000000000E+00 -0.00000000000E+00 -0.32282014749E+03  0.32282014749E+03  0.00000000000E+00 0. -1.
         25    2    1    2    0    0 -0.23695786635E+02  0.70622108719E+02 -0.83871999719E+02  0.16795186974E+03  0.12499738264E+03 0.  0.
    9000005    1    3    3    0    0 -0.67797216428E+02  0.23478033038E+02 -0.14539074598E+02  0.73212466704E+02  0.10000000000E+01 0.  0.
    9000005    1    3    3    0    0  0.44101429793E+02  0.47144075681E+02 -0.69332925121E+02  0.94739403035E+02  0.10000000000E+01 0.  0.
         -4    1    1    2    0  502  0.23695786635E+02 -0.70622108719E+02 -0.18986954765E+03  0.20396330692E+03  0.12700000000E+01 0. -1.
<mgrwt>
<rscale>  1 0.14551054E+03</rscale>
<asrwt>0</asrwt>
<pdfrwt beam="2">  1       21 0.49664636E-01 0.14551054E+03</pdfrwt>
<pdfrwt beam="1">  1       -4 0.75520101E-02 0.14551054E+03</pdfrwt>
<totfact> 0.19364125E+04</totfact>
</mgrwt>
</event>
<event>
 6    3  0.3813045E-003  0.1304768E+03  0.7818608E-02  0.1226750E+00
         -4   -1    0    0    0  501 -0.00000000000E+00  0.00000000000E+00  0.14336524989E+03  0.14337087493E+03  0.12700000000E+01 0.  1.
         21   -1    0    0  501  502  0.00000000000E+00 -0.00000000000E+00 -0.50151270101E+02  0.50151270101E+02  0.00000000000E+00 0.  1.
         25    2    1    2    0    0 -0.30213064396E+01  0.37288553558E+02  0.60549467167E+02  0.14384168806E+03  0.12499851492E+03 0.  0.
    9000005    1    3    3    0    0  0.54109220604E+02  0.44398616297E+02  0.18090942363E+02  0.72300256424E+02  0.10000000000E+01 0.  0.
    9000005    1    3    3    0    0 -0.57130527043E+02 -0.71100627389E+01  0.42458524804E+02  0.71541431639E+02  0.10000000000E+01 0.  0.
         -4    1    1    2    0  502  0.30213064396E+01 -0.37288553558E+02  0.32664512624E+02  0.49680456963E+02  0.12700000000E+01 0. -1.
<mgrwt>
<rscale>  1 0.13047679E+03</rscale>
<asrwt>0</asrwt>
<pdfrwt beam="2">  1       21 0.77155801E-02 0.13047679E+03</pdfrwt>
<pdfrwt beam="1">  1       -4 0.22057862E-01 0.13047679E+03</pdfrwt>
<totfact> 0.96563504E+04</totfact>
</mgrwt>
</event>
<event>
 6    3  0.3813045E-003  0.1267898E+03  0.7818608E-02  0.1232298E+00
         21   -1    0    0  501  502  0.00000000000E+00  0.00000000000E+00  0.78686522260E+02  0.78686522260E+02  0.00000000000E+00 0.  1.
          4   -1    0    0  502    0 -0.00000000000E+00 -0.00000000000E+00 -0.18871141118E+03  0.18871568459E+03  0.12700000000E+01 0. -1.
         25    2    1    2    0    0  0.17995049130E+02 -0.11268050436E+02 -0.16521311151E+03  0.20825710083E+03  0.12499942831E+03 0.  0.
    9000005    1    3    3    0    0 -0.32281596667E+02 -0.28885276190E+02 -0.14488899510E+03  0.15122923515E+03  0.10000000000E+01 0.  0.
    9000005    1    3    3    0    0  0.50276645797E+02  0.17617225753E+02 -0.20324116408E+02  0.57027865676E+02  0.10000000000E+01 0.  0.
          4    1    1    2  501    0 -0.17995049130E+02  0.11268050436E+02  0.55188222587E+02  0.59145106020E+02  0.12700000000E+01 0.  1.
<mgrwt>
<rscale>  1 0.12678978E+03</rscale>
<asrwt>0</asrwt>
<pdfrwt beam="1">  1       21 0.12105619E-01 0.12678978E+03</pdfrwt>
<pdfrwt beam="2">  1        4 0.29033642E-01 0.12678978E+03</pdfrwt>
<totfact> 0.26381478E+04</totfact>
</mgrwt>
</event>
<event>
 6    3  0.3813045E-003  0.1319772E+03  0.7818608E-02  0.1224551E+00
         -4   -1    0    0    0  501 -0.00000000000E+00  0.00000000000E+00  0.78129056827E+02  0.78139378169E+02  0.12700000000E+01 0. -1.
         21   -1    0    0  501  502  0.00000000000E+00 -0.00000000000E+00 -0.14421599320E+03  0.14421599320E+03  0.00000000000E+00 0.  1.
         25    2    1    2    0    0  0.18403489714E+02  0.38110276493E+02  0.13032594171E+02  0.13261912105E+03  0.12500760436E+03 0.  0.
    9000005    1    3    3    0    0  0.30453051046E+02  0.31390542930E+02  0.65273833442E+02  0.78577527549E+02  0.10000000000E+01 0.  0.
    9000005    1    3    3    0    0 -0.12049561332E+02  0.67197335630E+01 -0.52241239271E+02  0.54041593500E+02  0.10000000000E+01 0.  0.
         -4    1    1    2    0  502 -0.18403489714E+02 -0.38110276493E+02 -0.79119530542E+02  0.89736250319E+02  0.12700000000E+01 0.  1.
<mgrwt>
<rscale>  1 0.13197721E+03</rscale>
<asrwt>0</asrwt>
<pdfrwt beam="2">  1       21 0.22187076E-01 0.13197721E+03</pdfrwt>
<pdfrwt beam="1">  1       -4 0.12021079E-01 0.13197721E+03</pdfrwt>
<totfact> 0.42613260E+04</totfact>
</mgrwt>
</event>
<event>
 6    3  0.3813045E-003  0.1283656E+03  0.7818608E-02  0.1229901E+00
          4   -1    0    0  502    0 -0.00000000000E+00  0.00000000000E+00  0.11862992388E+03  0.11863672172E+03  0.12700000000E+01 0.  1.
         21   -1    0    0  501  502  0.00000000000E+00 -0.00000000000E+00 -0.55504169127E+02  0.55504169127E+02  0.00000000000E+00 0. -1.
         25    2    1    2    0    0 -0.95258068157E+01  0.27593099214E+02  0.66775462695E+02  0.14469512056E+03  0.12500238148E+03 0.  0.
    9000005    1    3    3    0    0 -0.32613928068E+02  0.37536969187E+02  0.94787583499E+02  0.10704381507E+03  0.10000000000E+01 0.  0.
    9000005    1    3    3    0    0  0.23088121253E+02 -0.99438699732E+01 -0.28012120804E+02  0.37651305488E+02  0.10000000000E+01 0.  0.
          4    1    1    2  501    0  0.95258068157E+01 -0.27593099214E+02 -0.36497079394E+01  0.29445770287E+02  0.12700000000E+01 0. -1.
<mgrwt>
<rscale>  1 0.12836555E+03</rscale>
<asrwt>0</asrwt>
<pdfrwt beam="2">  1       21 0.85391030E-02 0.12836555E+03</pdfrwt>
<pdfrwt beam="1">  1        4 0.18252398E-01 0.12836555E+03</pdfrwt>
<totfact> 0.11366975E+05</totfact>
</mgrwt>
</event>
<event>
 6    3  0.3813045E-003  0.1351154E+03  0.7818608E-02  0.1220057E+00
         21   -1    0    0  501  502  0.00000000000E+00  0.00000000000E+00  0.28171749676E+02  0.28171749676E+02  0.00000000000E+00 0.  1.
          4   -1    0    0  502    0 -0.00000000000E+00 -0.00000000000E+00 -0.57099898485E+03  0.57100039719E+03  0.12700000000E+01 0. -1.
         25    2    1    2    0    0  0.14264968113E+02 -0.49272605003E+02 -0.52906664716E+03  0.54604733533E+03  0.12499958545E+03 0.  0.
    9000005    1    3    3    0    0 -0.48479913627E+01 -0.75218292387E+02 -0.17537429309E+03  0.19088854656E+03  0.10000000000E+01 0.  0.
    9000005    1    3    3    0    0  0.19112959475E+02  0.25945687385E+02 -0.35369235407E+03  0.35515878877E+03  0.10000000000E+01 0.  0.
          4    1    1    2  501    0 -0.14264968113E+02  0.49272605003E+02 -0.13760588011E+02  0.53124811542E+02  0.12700000000E+01 0.  1.
<mgrwt>
<rscale>  1 0.13511541E+03</rscale>
<asrwt>0</asrwt>
<pdfrwt beam="1">  1       21 0.43341157E-02 0.13511541E+03</pdfrwt>
<pdfrwt beam="2">  1        4 0.87848302E-01 0.13511541E+03</pdfrwt>
<totfact> 0.16057662E+04</totfact>
</mgrwt>
</event>
<event>
 6    3  0.3813045E-003  0.1302729E+03  0.7818608E-02  0.1227051E+00
         21   -1    0    0  501  502  0.00000000000E+00  0.00000000000E+00  0.22341109067E+02  0.22341109067E+02  0.00000000000E+00 0. -1.
          4   -1    0    0  502    0 -0.00000000000E+00 -0.00000000000E+00 -0.71889036838E+03  0.71889149018E+03  0.12700000000E+01 0.  1.
         25    2    1    2    0    0 -0.34417847858E+02  0.12792195182E+02 -0.69206540178E+03  0.70421981244E+03  0.12499118123E+03 0.  0.
    9000005    1    3    3    0    0  0.25371883850E+02  0.15590453570E+01 -0.29869540478E+02  0.39234583735E+02  0.10000000000E+01 0.  0.
    9000005    1    3    3    0    0 -0.59789731708E+02  0.11233149825E+02 -0.66219586130E+03  0.66498522871E+03  0.10000000000E+01 0.  0.
          4    1    1    2  501    0  0.34417847858E+02 -0.12792195182E+02 -0.44838575379E+01  0.37012786806E+02  0.12700000000E+01 0. -1.
<mgrwt>
<rscale>  1 0.13027288E+03</rscale>
<asrwt>0</asrwt>
<pdfrwt beam="1">  1       21 0.34370933E-02 0.13027288E+03</pdfrwt>
<pdfrwt beam="2">  1        4 0.11060139E+00 0.13027288E+03</pdfrwt>
<totfact> 0.13828106E+04</totfact>
</mgrwt>
</event>
<event>
 6    3  0.3813045E-003  0.1292071E+03  0.7818608E-02  0.1228637E+00
         21   -1    0    0  501  502  0.00000000000E+00  0.00000000000E+00  0.18540831067E+02  0.18540831067E+02  0.00000000000E+00 0. -1.
          4   -1    0    0  502    0 -0.00000000000E+00 -0.00000000000E+00 -0.53718952331E+03  0.53719102455E+03  0.12700000000E+01 0.  1.
         25    2    1    2    0    0 -0.32667086582E+02  0.16633949439E+01 -0.50322195775E+03  0.51954480730E+03  0.12499825041E+03 0.  0.
    9000005    1    3    3    0    0 -0.79575244141E+02 -0.78540229212E+01 -0.27697493965E+03  0.28828808916E+03  0.10000000000E+01 0.  0.
    9000005    1    3    3    0    0  0.46908157559E+02  0.95174178651E+01 -0.22624701809E+03  0.23125671814E+03  0.10000000000E+01 0.  0.
          4    1    1    2  501    0  0.32667086582E+02 -0.16633949439E+01 -0.15426734497E+02  0.36187048314E+02  0.12700000000E+01 0. -1.
<mgrwt>
<rscale>  1 0.12920707E+03</rscale>
<asrwt>0</asrwt>
<pdfrwt beam="1">  1       21 0.28524354E-02 0.12920707E+03</pdfrwt>
<pdfrwt beam="2">  1        4 0.82648007E-01 0.12920707E+03</pdfrwt>
<totfact> 0.36553791E+04</totfact>
</mgrwt>
</event>
<event>
 6    3  0.3813045E-003  0.1277799E+03  0.7818608E-02  0.1230788E+00
          4   -1    0    0  502    0 -0.00000000000E+00  0.00000000000E+00  0.80793434958E+02  0.80803415970E+02  0.12700000000E+01 0.  1.
         21   -1    0    0  501  502  0.00000000000E+00 -0.00000000000E+00 -0.12950746697E+03  0.12950746697E+03  0.00000000000E+00 0. -1.
         25    2    1    2    0    0  0.25840720334E+02 -0.59105423378E+01  0.26546555403E+02  0.13050833752E+03  0.12500011688E+03 0.  0.
    9000005    1    3    3    0    0  0.87398976243E+01 -0.29946864214E+02  0.70765734635E+02  0.77343323469E+02  0.10000000000E+01 0.  0.
    9000005    1    3    3    0    0  0.17100822710E+02  0.24036321876E+02 -0.44219179232E+02  0.53165014047E+02  0.10000000000E+01 0.  0.
          4    1    1    2  501    0 -0.25840720334E+02  0.59105423378E+01 -0.75260587413E+02  0.79802545422E+02  0.12700000000E+01 0. -1.
<mgrwt>
<rscale>  1 0.12777991E+03</rscale>
<asrwt>0</asrwt>
<pdfrwt beam="2">  1       21 0.19924225E-01 0.12777991E+03</pdfrwt>
<pdfrwt beam="1">  1        4 0.12431006E-01 0.12777991E+03</pdfrwt>
<totfact> 0.48949512E+04</totfact>
</mgrwt>
</event>
<event>
 6    3  0.3813045E-003  0.1286894E+03  0.7818608E-02  0.1229413E+00
          4   -1    0    0  502    0 -0.00000000000E+00  0.00000000000E+00  0.35899837854E+03  0.35900062492E+03  0.12700000000E+01 0.  1.
         21   -1    0    0  501  502  0.00000000000E+00 -0.00000000000E+00 -0.22308799052E+03  0.22308799052E+03  0.00000000000E+00 0. -1.
         25    2    1    2    0    0  0.20130130732E+02  0.23022359528E+02  0.34632380234E+03  0.36946060921E+03  0.12500285793E+03 0.  0.
    9000005    1    3    3    0    0 -0.50364007396E+01  0.70136864520E+02  0.24528633149E+03  0.25516843362E+03  0.10000000000E+01 0.  0.
    9000005    1    3    3    0    0  0.25166531472E+02 -0.47114504992E+02  0.10103747085E+03  0.11429217560E+03  0.10000000000E+01 0.  0.
          4    1    1    2  501    0 -0.20130130732E+02 -0.23022359528E+02 -0.21041341433E+03  0.21262800623E+03  0.12700000000E+01 0. -1.
<mgrwt>
<rscale>  1 0.12868942E+03</rscale>
<asrwt>0</asrwt>
<pdfrwt beam="2">  1       21 0.34321229E-01 0.12868942E+03</pdfrwt>
<pdfrwt beam="1">  1        4 0.55230970E-01 0.12868942E+03</pdfrwt>
<totfact> 0.10764389E+03</totfact>
</mgrwt>
</event>
<event>
 6    3  0.3813045E-003  0.1374787E+03  0.7818608E-02  0.1216762E+00
          4   -1    0    0  502    0 -0.00000000000E+00  0.00000000000E+00  0.29546770892E+03  0.29547043831E+03  0.12700000000E+01 0. -1.
         21   -1    0    0  501  502  0.00000000000E+00 -0.00000000000E+00 -0.43637335837E+02  0.43637335837E+02  0.00000000000E+00 0.  1.
         25    2    1    2    0    0 -0.38833011543E+02  0.42040065110E+02  0.24568461222E+03  0.28153388131E+03  0.12500011114E+03 0.  0.
    9000005    1    3    3    0    0 -0.56751296169E+02  0.71728593509E+02  0.11846110486E+03  0.14966540718E+03  0.10000000000E+01 0.  0.
    9000005    1    3    3    0    0  0.17918284626E+02 -0.29688528399E+02  0.12722350736E+03  0.13186847413E+03  0.10000000000E+01 0.  0.
          4    1    1    2  501    0  0.38833011543E+02 -0.42040065110E+02  0.61457608666E+01  0.57573892839E+02  0.12700000000E+01 0.  1.
<mgrwt>
<rscale>  1 0.13747872E+03</rscale>
<asrwt>0</asrwt>
<pdfrwt beam="2">  1       21 0.67134365E-02 0.13747872E+03</pdfrwt>
<pdfrwt beam="1">  1        4 0.45458201E-01 0.13747872E+03</pdfrwt>
<totfact> 0.31096974E+04</totfact>
</mgrwt>
</event>
<event>
 6    3  0.3813045E-003  0.1635934E+03  0.7818608E-02  0.1184699E+00
          4   -1    0    0  502    0 -0.00000000000E+00  0.00000000000E+00  0.16498370226E+02  0.16547178615E+02  0.12700000000E+01 0.  1.
         21   -1    0    0  501  502  0.00000000000E+00 -0.00000000000E+00 -0.20813212140E+04  0.20813212140E+04  0.00000000000E+00 0. -1.
         25    2    1    2    0    0  0.10551665434E+03  0.17878404881E+01 -0.43683010688E+03  0.46645828936E+03  0.12500333084E+03 0.  0.
    9000005    1    3    3    0    0  0.10878092967E+03  0.15450000387E+02 -0.43870157747E+03  0.45225221641E+03  0.10000000000E+01 0.  0.
    9000005    1    3    3    0    0 -0.32642753342E+01 -0.13662159899E+02  0.18714705911E+01  0.14206072953E+02  0.10000000000E+01 0.  0.
          4    1    1    2  501    0 -0.10551665434E+03 -0.17878404881E+01 -0.16279927369E+04  0.16314101033E+04  0.12700000000E+01 0. -1.
<mgrwt>
<rscale>  1 0.16359338E+03</rscale>
<asrwt>0</asrwt>
<pdfrwt beam="2">  1       21 0.32020312E+00 0.16359338E+03</pdfrwt>
<pdfrwt beam="1">  1        4 0.25419962E-02 0.16359338E+03</pdfrwt>
<totfact> 0.78355013E+02</totfact>
</mgrwt>
</event>
<event>
 6    3  0.3813045E-003  0.1382168E+03  0.7818608E-02  0.1215749E+00
         21   -1    0    0  501  502  0.00000000000E+00  0.00000000000E+00  0.64041175841E+02  0.64041175841E+02  0.00000000000E+00 0. -1.
         -4   -1    0    0    0  501 -0.00000000000E+00 -0.00000000000E+00 -0.98867534754E+03  0.98867616322E+03  0.12700000000E+01 0.  1.
         25    2    1    2    0    0 -0.34724585340E+02  0.47679690330E+02 -0.96905750325E+03  0.97886481722E+03  0.12499894432E+03 0.  0.
    9000005    1    3    3    0    0 -0.73056394607E+02  0.48078308297E+02 -0.83069437909E+03  0.83528612581E+03  0.10000000000E+01 0.  0.
    9000005    1    3    3    0    0  0.38331809267E+02 -0.39861796680E+00 -0.13836312416E+03  0.14357869141E+03  0.10000000000E+01 0.  0.
         -4    1    1    2    0  502  0.34724585340E+02 -0.47679690330E+02  0.44423331554E+02  0.73852521849E+02  0.12700000000E+01 0. -1.
<mgrwt>
<rscale>  1 0.13821681E+03</rscale>
<asrwt>0</asrwt>
<pdfrwt beam="1">  1       21 0.98524892E-02 0.13821681E+03</pdfrwt>
<pdfrwt beam="2">  1       -4 0.15210492E+00 0.13821681E+03</pdfrwt>
<totfact> 0.10653606E+03</totfact>
</mgrwt>
</event>
<event>
 6    3  0.3813045E-003  0.1331161E+03  0.7818608E-02  0.1222904E+00
         21   -1    0    0  501  502  0.00000000000E+00  0.00000000000E+00  0.26962406556E+02  0.26962406556E+02  0.00000000000E+00 0.  1.
         -4   -1    0    0    0  501 -0.00000000000E+00 -0.00000000000E+00 -0.38710379843E+03  0.38710588172E+03  0.12700000000E+01 0. -1.
         25    2    1    2    0    0 -0.45726959909E+02 -0.18547968906E+01 -0.33788823479E+03  0.36316434899E+03  0.12500196013E+03 0.  0.
    9000005    1    3    3    0    0  0.54522602849E+01  0.34508784495E+02 -0.26354629431E+03  0.26585378047E+03  0.10000000000E+01 0.  0.
    9000005    1    3    3    0    0 -0.51179220194E+02 -0.36363581386E+02 -0.74341940484E+02  0.97310568521E+02  0.10000000000E+01 0.  0.
         -4    1    1    2    0  502  0.45726959909E+02  0.18547968906E+01 -0.22253157090E+02  0.50903939283E+02  0.12700000000E+01 0.  1.
<mgrwt>
<rscale>  1 0.13311606E+03</rscale>
<asrwt>0</asrwt>
<pdfrwt beam="1">  1       21 0.41480625E-02 0.13311606E+03</pdfrwt>
<pdfrwt beam="2">  1       -4 0.59556892E-01 0.13311606E+03</pdfrwt>
<totfact> 0.40102695E+04</totfact>
</mgrwt>
</event>
<event>
 6    3  0.3813045E-003  0.1289999E+03  0.7818608E-02  0.1228947E+00
         -4   -1    0    0    0  501 -0.00000000000E+00  0.00000000000E+00  0.10257092475E+02  0.10335417072E+02  0.12700000000E+01 0. -1.
         21   -1    0    0  501  502  0.00000000000E+00 -0.00000000000E+00 -0.15498467481E+04  0.15498467481E+04  0.00000000000E+00 0.  1.
         25    2    1    2    0    0  0.91104593971E+01  0.30544307760E+02 -0.40295766974E+03  0.42310264313E+03  0.12500003126E+03 0.  0.
    9000005    1    3    3    0    0 -0.30409622035E+02 -0.36471178399E+02 -0.20436882376E+03  0.20981541433E+03  0.10000000000E+01 0.  0.
    9000005    1    3    3    0    0  0.39520081432E+02  0.67015486159E+02 -0.19858884598E+03  0.21328722880E+03  0.10000000000E+01 0.  0.
         -4    1    1    2    0  502 -0.91104593971E+01 -0.30544307760E+02 -0.11366319859E+04  0.11370795220E+04  0.12700000000E+01 0.  1.
<mgrwt>
<rscale>  1 0.12899986E+03</rscale>
<asrwt>0</asrwt>
<pdfrwt beam="2">  1       21 0.23843801E+00 0.12899986E+03</pdfrwt>
<pdfrwt beam="1">  1       -4 0.15840789E-02 0.12899986E+03</pdfrwt>
<totfact> 0.48218767E+03</totfact>
</mgrwt>
</event>
<event>
 6    3  0.3813045E-003  0.1286580E+03  0.7818608E-02  0.1229461E+00
         21   -1    0    0  501  502  0.00000000000E+00  0.00000000000E+00  0.14362671150E+02  0.14362671150E+02  0.00000000000E+00 0. -1.
         -4   -1    0    0    0  501 -0.00000000000E+00 -0.00000000000E+00 -0.66093661386E+03  0.66093783402E+03  0.12700000000E+01 0. -1.
         25    2    1    2    0    0  0.26785806526E+02  0.14480497889E+02 -0.62463972347E+03  0.63775204150E+03  0.12500287218E+03 0.  0.
    9000005    1    3    3    0    0 -0.64101351900E+01  0.29616332408E+02 -0.32341735477E+02  0.44330630857E+02  0.10000000000E+01 0.  0.
    9000005    1    3    3    0    0  0.33195941716E+02 -0.15135834520E+02 -0.59229798799E+03  0.59342141064E+03  0.10000000000E+01 0.  0.
         -4    1    1    2    0  502 -0.26785806526E+02 -0.14480497889E+02 -0.21934219244E+02  0.37548463673E+02  0.12700000000E+01 0.  1.
<mgrwt>
<rscale>  1 0.12865801E+03</rscale>
<asrwt>0</asrwt>
<pdfrwt beam="1">  1       21 0.22096419E-02 0.12865801E+03</pdfrwt>
<pdfrwt beam="2">  1       -4 0.10168696E+00 0.12865801E+03</pdfrwt>
<totfact> 0.34604899E+04</totfact>
</mgrwt>
</event>
<event>
 6    3  0.3813045E-003  0.1278733E+03  0.7818608E-02  0.1230646E+00
         21   -1    0    0  501  502  0.00000000000E+00  0.00000000000E+00  0.65501030183E+02  0.65501030183E+02  0.00000000000E+00 0. -1.
          4   -1    0    0  502    0 -0.00000000000E+00 -0.00000000000E+00 -0.13299175548E+03  0.13299781925E+03  0.12700000000E+01 0.  1.
         25    2    1    2    0    0  0.26206985785E+02 -0.63781219495E+01 -0.95495926733E+02  0.15959652623E+03  0.12499637042E+03 0.  0.
    9000005    1    3    3    0    0  0.39219806706E+02  0.35861768844E+02  0.13141357322E+01  0.53169414661E+02  0.10000000000E+01 0.  0.
    9000005    1    3    3    0    0 -0.13012820921E+02 -0.42239890794E+02 -0.96810062465E+02  0.10642711157E+03  0.10000000000E+01 0.  0.
          4    1    1    2  501    0 -0.26206985785E+02  0.63781219495E+01  0.28005201434E+02  0.38902323206E+02  0.12700000000E+01 0. -1.
<mgrwt>
<rscale>  1 0.12787329E+03</rscale>
<asrwt>0</asrwt>
<pdfrwt beam="1">  1       21 0.10077082E-01 0.12787329E+03</pdfrwt>
<pdfrwt beam="2">  1        4 0.20461684E-01 0.12787329E+03</pdfrwt>
<totfact> 0.69408744E+04</totfact>
</mgrwt>
</event>
<event>
 6    3  0.3813045E-003  0.1377416E+03  0.7818608E-02  0.1216401E+00
         -4   -1    0    0    0  501 -0.00000000000E+00  0.00000000000E+00  0.12509533737E+03  0.12510178388E+03  0.12700000000E+01 0. -1.
         21   -1    0    0  501  502  0.00000000000E+00 -0.00000000000E+00 -0.16069157182E+03  0.16069157182E+03  0.00000000000E+00 0.  1.
         25    2    1    2    0    0  0.35997055039E+02  0.45301014762E+02  0.78007363028E+02  0.15829684528E+03  0.12499909051E+03 0.  0.
    9000005    1    3    3    0    0  0.54728053720E+02  0.55089183045E+02  0.19538439678E+00  0.77659617096E+02  0.10000000000E+01 0.  0.
    9000005    1    3    3    0    0 -0.18730998681E+02 -0.97881682831E+01  0.77811978631E+02  0.80637228179E+02  0.10000000000E+01 0.  0.
         -4    1    1    2    0  502 -0.35997055039E+02 -0.45301014762E+02 -0.11360359748E+03  0.12749651042E+03  0.12700000000E+01 0.  1.
<mgrwt>
<rscale>  1 0.13774158E+03</rscale>
<asrwt>0</asrwt>
<pdfrwt beam="2">  1       21 0.24721780E-01 0.13774158E+03</pdfrwt>
<pdfrwt beam="1">  1       -4 0.19246318E-01 0.13774158E+03</pdfrwt>
<totfact> 0.15331644E+04</totfact>
</mgrwt>
</event>
<event>
 6    3  0.3813045E-003  0.1270213E+03  0.7818608E-02  0.1231944E+00
         -4   -1    0    0    0  501 -0.00000000000E+00  0.00000000000E+00  0.34710796282E+02  0.34734021917E+02  0.12700000000E+01 0.  1.
         21   -1    0    0  501  502  0.00000000000E+00 -0.00000000000E+00 -0.29779328098E+03  0.29779328098E+03  0.00000000000E+00 0. -1.
         25    2    1    2    0    0  0.55907077444E+01 -0.21871422101E+02 -0.84594051560E+02  0.15261246532E+03  0.12499918357E+03 0.  0.
    9000005    1    3    3    0    0  0.39032221393E+02  0.31379664510E+02 -0.38117373133E+01  0.50236709615E+02  0.10000000000E+01 0.  0.
    9000005    1    3    3    0    0 -0.33441513649E+02 -0.53251086611E+02 -0.80782314247E+02  0.10237575570E+03  0.10000000000E+01 0.  0.
         -4    1    1    2    0  502 -0.55907077444E+01  0.21871422101E+02 -0.17848843314E+03  0.17991483759E+03  0.12700000000E+01 0. -1.
<mgrwt>
<rscale>  1 0.12702130E+03</rscale>
<asrwt>0</asrwt>
<pdfrwt beam="2">  1       21 0.45814352E-01 0.12702130E+03</pdfrwt>
<pdfrwt beam="1">  1       -4 0.53421173E-02 0.12702130E+03</pdfrwt>
<totfact> 0.39683855E+04</totfact>
</mgrwt>
</event>
<event>
 6    3  0.3813045E-003  0.1266794E+03  0.7818608E-02  0.1232468E+00
         21   -1    0    0  501  502  0.00000000000E+00  0.00000000000E+00  0.78938557334E+03  0.78938557334E+03  0.00000000000E+00 0.  1.
         -4   -1    0    0    0  501 -0.00000000000E+00 -0.00000000000E+00 -0.69670710501E+01  0.70818768005E+01  0.12700000000E+01 0.  1.
         25    2    1    2    0    0  0.19473895450E+02  0.68320518438E+01  0.62606775062E+03  0.63875543416E+03  0.12498706640E+03 0.  0.
    9000005    1    3    3    0    0  0.25304807659E+02  0.55473108073E+02  0.49652029039E+03  0.50025093481E+03  0.10000000000E+01 0.  0.
    9000005    1    3    3    0    0 -0.58309122088E+01 -0.48641056230E+02  0.12954746023E+03  0.13850449935E+03  0.10000000000E+01 0.  0.
         -4    1    1    2    0  502 -0.19473895450E+02 -0.68320518438E+01  0.15635075167E+03  0.15771201598E+03  0.12700000000E+01 0. -1.
<mgrwt>
<rscale>  1 0.12667942E+03</rscale>
<asrwt>0</asrwt>
<pdfrwt beam="1">  1       21 0.12144386E+00 0.12667942E+03</pdfrwt>
<pdfrwt beam="2">  1       -4 0.10807675E-02 0.12667942E+03</pdfrwt>
<totfact> 0.54673270E+04</totfact>
</mgrwt>
</event>
<event>
 6    3  0.3813045E-003  0.1270870E+03  0.7818608E-02  0.1231843E+00
         21   -1    0    0  501  502  0.00000000000E+00  0.00000000000E+00  0.10848213699E+04  0.10848213699E+04  0.00000000000E+00 0.  1.
         -4   -1    0    0    0  501 -0.00000000000E+00 -0.00000000000E+00 -0.57494167319E+01  0.58880126322E+01  0.12700000000E+01 0.  1.
         25    2    1    2    0    0 -0.21297465934E+02  0.86119723526E+01  0.73802103167E+03  0.74888326873E+03  0.12499343532E+03 0.  0.
    9000005    1    3    3    0    0 -0.64877451491E+01  0.53819875997E+02  0.60828759542E+03  0.61069916377E+03  0.10000000000E+01 0.  0.
    9000005    1    3    3    0    0 -0.14809720785E+02 -0.45207903644E+02  0.12973343625E+03  0.13818410496E+03  0.10000000000E+01 0.  0.
         -4    1    1    2    0  502  0.21297465934E+02 -0.86119723526E+01  0.34105092146E+03  0.34182611377E+03  0.12700000000E+01 0. -1.
<mgrwt>
<rscale>  1 0.12708701E+03</rscale>
<asrwt>0</asrwt>
<pdfrwt beam="1">  1       21 0.16689543E+00 0.12708701E+03</pdfrwt>
<pdfrwt beam="2">  1       -4 0.89524492E-03 0.12708701E+03</pdfrwt>
<totfact> 0.32211248E+04</totfact>
</mgrwt>
</event>
<event>
 6    3  0.3813045E-003  0.1273142E+03  0.7818608E-02  0.1231496E+00
         -4   -1    0    0    0  501 -0.00000000000E+00  0.00000000000E+00  0.82605371609E+01  0.83575938037E+01  0.12700000000E+01 0. -1.
         21   -1    0    0  501  502  0.00000000000E+00 -0.00000000000E+00 -0.86813906595E+03  0.86813906595E+03  0.00000000000E+00 0. -1.
         25    2    1    2    0    0  0.18209810297E+02 -0.15877002311E+02 -0.82021566557E+03  0.83003773152E+03  0.12500088526E+03 0.  0.
    9000005    1    3    3    0    0 -0.53140796083E+02  0.19579806410E+01 -0.38369932501E+03  0.38736797739E+03  0.10000000000E+01 0.  0.
    9000005    1    3    3    0    0  0.71350606380E+02 -0.17834982952E+02 -0.43651634056E+03  0.44266975413E+03  0.10000000000E+01 0.  0.
         -4    1    1    2    0  502 -0.18209810297E+02  0.15877002311E+02 -0.39662863224E+02  0.46458928233E+02  0.12700000000E+01 0.  1.
<mgrwt>
<rscale>  1 0.12731417E+03</rscale>
<asrwt>0</asrwt>
<pdfrwt beam="2">  1       21 0.13355985E+00 0.12731417E+03</pdfrwt>
<pdfrwt beam="1">  1       -4 0.12783893E-02 0.12731417E+03</pdfrwt>
<totfact> 0.33539899E+04</totfact>
</mgrwt>
</event>
<event>
 6    3  0.3813045E-003  0.1293474E+03  0.7818608E-02  0.1228427E+00
         21   -1    0    0  501  502  0.00000000000E+00  0.00000000000E+00  0.29553385819E+03  0.29553385819E+03  0.00000000000E+00 0. -1.
         -4   -1    0    0    0  501 -0.00000000000E+00 -0.00000000000E+00 -0.23440328682E+02  0.23474707852E+02  0.12700000000E+01 0. -1.
         25    2    1    2    0    0 -0.30964099932E+02  0.12097784189E+02  0.18462016059E+03  0.22542258933E+03  0.12500243285E+03 0.  0.
    9000005    1    3    3    0    0  0.47998552718E+02  0.12481316939E+02  0.59499304961E+02  0.77464905773E+02  0.10000000000E+01 0.  0.
    9000005    1    3    3    0    0 -0.78962652650E+02 -0.38353274922E+00  0.12512085563E+03  0.14795768356E+03  0.10000000000E+01 0.  0.
         -4    1    1    2    0  502  0.30964099932E+02 -0.12097784189E+02  0.87473368916E+02  0.93585976708E+02  0.12700000000E+01 0.  1.
<mgrwt>
<rscale>  1 0.12934736E+03</rscale>
<asrwt>0</asrwt>
<pdfrwt beam="1">  1       21 0.45466745E-01 0.12934736E+03</pdfrwt>
<pdfrwt beam="2">  1       -4 0.36090591E-02 0.12934736E+03</pdfrwt>
<totfact> 0.75478757E+04</totfact>
</mgrwt>
</event>
<event>
 6    3  0.3813045E-003  0.1272503E+03  0.7818608E-02  0.1231594E+00
          4   -1    0    0  502    0 -0.00000000000E+00  0.00000000000E+00  0.11555101968E+03  0.11555799863E+03  0.12700000000E+01 0. -1.
         21   -1    0    0  501  502  0.00000000000E+00 -0.00000000000E+00 -0.49573180025E+02  0.49573180025E+02  0.00000000000E+00 0. -1.
         25    2    1    2    0    0 -0.20984081450E+02  0.11284078146E+02  0.59067318196E+02  0.14029108404E+03  0.12499991235E+03 0.  0.
    9000005    1    3    3    0    0  0.34874570525E+02  0.30659160121E+02  0.66053105361E+02  0.80747956608E+02  0.10000000000E+01 0.  0.
    9000005    1    3    3    0    0 -0.55858651975E+02 -0.19375081975E+02 -0.69857871656E+01  0.59543127431E+02  0.10000000000E+01 0.  0.
          4    1    1    2  501    0  0.20984081450E+02 -0.11284078146E+02  0.69105214568E+01  0.24840094620E+02  0.12700000000E+01 0.  1.
<mgrwt>
<rscale>  1 0.12725031E+03</rscale>
<asrwt>0</asrwt>
<pdfrwt beam="2">  1       21 0.76266432E-02 0.12725031E+03</pdfrwt>
<pdfrwt beam="1">  1        4 0.17778868E-01 0.12725031E+03</pdfrwt>
<totfact> 0.14454116E+05</totfact>
</mgrwt>
</event>
<event>
 6    3  0.3813045E-003  0.1300108E+03  0.7818608E-02  0.1227440E+00
          4   -1    0    0  502    0 -0.00000000000E+00  0.00000000000E+00  0.66883206133E+02  0.66895262633E+02  0.12700000000E+01 0. -1.
         21   -1    0    0  501  502  0.00000000000E+00 -0.00000000000E+00 -0.10295169329E+03  0.10295169329E+03  0.00000000000E+00 0. -1.
         25    2    1    2    0    0 -0.27458266416E+02  0.22871566667E+02 -0.24800807762E+02  0.13235511074E+03  0.12500292123E+03 0.  0.
    9000005    1    3    3    0    0 -0.16249530432E+02  0.14298922595E+02 -0.76108510994E+02  0.79132874789E+02  0.10000000000E+01 0.  0.
    9000005    1    3    3    0    0 -0.11208735984E+02  0.85726440714E+01  0.51307703232E+02  0.53222235952E+02  0.10000000000E+01 0.  0.
          4    1    1    2  501    0  0.27458266416E+02 -0.22871566667E+02 -0.11267679397E+02  0.37491845184E+02  0.12700000000E+01 0.  1.
<mgrwt>
<rscale>  1 0.13001075E+03</rscale>
<asrwt>0</asrwt>
<pdfrwt beam="2">  1       21 0.15838722E-01 0.13001075E+03</pdfrwt>
<pdfrwt beam="1">  1        4 0.10291254E-01 0.13001075E+03</pdfrwt>
<totfact> 0.10291110E+05</totfact>
</mgrwt>
</event>
<event>
 6    3  0.3813045E-003  0.1363092E+03  0.7818608E-02  0.1218383E+00
          4   -1    0    0  502    0 -0.00000000000E+00  0.00000000000E+00  0.68921540802E+02  0.68933240796E+02  0.12700000000E+01 0.  1.
         21   -1    0    0  501  502  0.00000000000E+00 -0.00000000000E+00 -0.20734774445E+03  0.20734774445E+03  0.00000000000E+00 0. -1.
         25    2    1    2    0    0 -0.54356638536E+02  0.77984498820E+00 -0.98329786711E+01  0.13666335484E+03  0.12499973110E+03 0.  0.
    9000005    1    3    3    0    0 -0.87663863205E+00  0.38348534779E+01 -0.61853697066E+02  0.61986727912E+02  0.10000000000E+01 0.  0.
    9000005    1    3    3    0    0 -0.53479999904E+02 -0.30550084897E+01  0.52020718395E+02  0.74676626925E+02  0.10000000000E+01 0.  0.
          4    1    1    2  501    0  0.54356638536E+02 -0.77984498820E+00 -0.12859322498E+03  0.13961763041E+03  0.12700000000E+01 0. -1.
<mgrwt>
<rscale>  1 0.13630915E+03</rscale>
<asrwt>0</asrwt>
<pdfrwt beam="2">  1       21 0.31899653E-01 0.13630915E+03</pdfrwt>
<pdfrwt beam="1">  1        4 0.10604513E-01 0.13630915E+03</pdfrwt>
<totfact> 0.26496062E+04</totfact>
</mgrwt>
</event>
<event>
 6    3  0.3813045E-003  0.1331097E+03  0.7818608E-02  0.1222913E+00
          4   -1    0    0  502    0 -0.00000000000E+00  0.00000000000E+00  0.19235297953E+03  0.19235717204E+03  0.12700000000E+01 0. -1.
         21   -1    0    0  501  502  0.00000000000E+00 -0.00000000000E+00 -0.66003196640E+02  0.66003196640E+02  0.00000000000E+00 0.  1.
         25    2    1    2    0    0  0.41738666551E+02 -0.18727460114E+02  0.15504304887E+03  0.20434416314E+03  0.12500142382E+03 0.  0.
    9000005    1    3    3    0    0 -0.10520773304E+02  0.29978782845E+02  0.12118157270E+03  0.12528123424E+03  0.10000000000E+01 0.  0.
    9000005    1    3    3    0    0  0.52259439855E+02 -0.48706242959E+02  0.33861476177E+02  0.79062928898E+02  0.10000000000E+01 0.  0.
          4    1    1    2  501    0 -0.41738666551E+02  0.18727460114E+02 -0.28693265984E+02  0.54016205537E+02  0.12700000000E+01 0.  1.
<mgrwt>
<rscale>  1 0.13310969E+03</rscale>
<asrwt>0</asrwt>
<pdfrwt beam="2">  1       21 0.10154338E-01 0.13310969E+03</pdfrwt>
<pdfrwt beam="1">  1        4 0.29594028E-01 0.13310969E+03</pdfrwt>
<totfact> 0.34884130E+04</totfact>
</mgrwt>
</event>
<event>
 6    3  0.3813045E-003  0.1464847E+03  0.7818608E-02  0.1204860E+00
         21   -1    0    0  501  502  0.00000000000E+00  0.00000000000E+00  0.48828347211E+02  0.48828347211E+02  0.00000000000E+00 0.  1.
          4   -1    0    0  502    0 -0.00000000000E+00 -0.00000000000E+00 -0.26004262905E+03  0.26004573025E+03  0.12700000000E+01 0. -1.
         25    2    1    2    0    0 -0.71512836879E+02  0.26833455989E+02 -0.11631510027E+03  0.18704802212E+03  0.12499455920E+03 0.  0.
    9000005    1    3    3    0    0  0.25521006644E+02  0.33148982876E+02 -0.64431696580E+02  0.76828512742E+02  0.10000000000E+01 0.  0.
    9000005    1    3    3    0    0 -0.97033843523E+02 -0.63155268867E+01 -0.51883403690E+02  0.11021950938E+03  0.10000000000E+01 0.  0.
          4    1    1    2  501    0  0.71512836879E+02 -0.26833455989E+02 -0.94899181564E+02  0.12182605534E+03  0.12700000000E+01 0.  1.
<mgrwt>
<rscale>  1 0.14648468E+03</rscale>
<asrwt>0</asrwt>
<pdfrwt beam="1">  1       21 0.75120534E-02 0.14648468E+03</pdfrwt>
<pdfrwt beam="2">  1        4 0.40008068E-01 0.14648468E+03</pdfrwt>
<totfact> 0.33291334E+04</totfact>
</mgrwt>
</event>
<event>
 6    3  0.3813045E-003  0.1360009E+03  0.7818608E-02  0.1218814E+00
         21   -1    0    0  501  502  0.00000000000E+00  0.00000000000E+00  0.22189938565E+03  0.22189938565E+03  0.00000000000E+00 0.  1.
         -4   -1    0    0    0  501 -0.00000000000E+00 -0.00000000000E+00 -0.46476558206E+02  0.46493906726E+02  0.12700000000E+01 0. -1.
         25    2    1    2    0    0 -0.35967191732E+02  0.39716543712E+02  0.76903140894E+02  0.15623811299E+03  0.12500084858E+03 0.  0.
    9000005    1    3    3    0    0 -0.50513764096E+00  0.78176651977E+02  0.23891910176E+02  0.81753699918E+02  0.10000000000E+01 0.  0.
    9000005    1    3    3    0    0 -0.35462054091E+02 -0.38460108265E+02  0.53011230718E+02  0.74484413070E+02  0.10000000000E+01 0.  0.
         -4    1    1    2    0  502  0.35967191732E+02 -0.39716543712E+02  0.98519686550E+02  0.11215517939E+03  0.12700000000E+01 0.  1.
<mgrwt>
<rscale>  1 0.13600094E+03</rscale>
<asrwt>0</asrwt>
<pdfrwt beam="1">  1       21 0.34138366E-01 0.13600094E+03</pdfrwt>
<pdfrwt beam="2">  1       -4 0.71518539E-02 0.13600094E+03</pdfrwt>
<totfact> 0.44752762E+04</totfact>
</mgrwt>
</event>
<event>
 6    3  0.3813045E-003  0.1292033E+03  0.7818608E-02  0.1228643E+00
          4   -1    0    0  502    0 -0.00000000000E+00  0.00000000000E+00  0.22373836950E+03  0.22374197390E+03  0.12700000000E+01 0.  1.
         21   -1    0    0  501  502  0.00000000000E+00 -0.00000000000E+00 -0.59087007016E+02  0.59087007016E+02  0.00000000000E+00 0. -1.
         25    2    1    2    0    0 -0.67097715227E+01  0.31989887894E+02  0.19779960554E+03  0.23625868052E+03  0.12500042483E+03 0.  0.
    9000005    1    3    3    0    0 -0.21677546425E+02 -0.45363946510E+02  0.82085076341E+02  0.96264029731E+02  0.10000000000E+01 0.  0.
    9000005    1    3    3    0    0  0.14967774903E+02  0.77353834404E+02  0.11571452920E+03  0.13999465079E+03  0.10000000000E+01 0.  0.
          4    1    1    2  501    0  0.67097715227E+01 -0.31989887894E+02 -0.33148243057E+02  0.46570300397E+02  0.12700000000E+01 0. -1.
<mgrwt>
<rscale>  1 0.12920325E+03</rscale>
<asrwt>0</asrwt>
<pdfrwt beam="2">  1       21 0.90903089E-02 0.12920325E+03</pdfrwt>
<pdfrwt beam="1">  1        4 0.34422614E-01 0.12920325E+03</pdfrwt>
<totfact> 0.31623105E+04</totfact>
</mgrwt>
</event>
<event>
 6    3  0.3813045E-003  0.1283372E+03  0.7818608E-02  0.1229944E+00
         -4   -1    0    0    0  501 -0.00000000000E+00  0.00000000000E+00  0.50146775831E+03  0.50146936649E+03  0.12700000000E+01 0.  1.
         21   -1    0    0  501  502  0.00000000000E+00 -0.00000000000E+00 -0.12355973188E+02  0.12355973188E+02  0.00000000000E+00 0.  1.
         25    2    1    2    0    0 -0.13725423493E+02 -0.25620042461E+02  0.40049192267E+03  0.42055226346E+03  0.12500260937E+03 0.  0.
    9000005    1    3    3    0    0  0.19628380309E+02  0.43023614415E+02  0.21161782346E+03  0.21683959029E+03  0.10000000000E+01 0.  0.
    9000005    1    3    3    0    0 -0.33353803801E+02 -0.68643656876E+02  0.18887409921E+03  0.20371267317E+03  0.10000000000E+01 0.  0.
         -4    1    1    2    0  502  0.13725423493E+02  0.25620042461E+02  0.88619862450E+02  0.93273076214E+02  0.12700000000E+01 0. -1.
<mgrwt>
<rscale>  1 0.12833716E+03</rscale>
<asrwt>0</asrwt>
<pdfrwt beam="2">  1       21 0.19009193E-02 0.12833716E+03</pdfrwt>
<pdfrwt beam="1">  1       -4 0.77154014E-01 0.12833716E+03</pdfrwt>
<totfact> 0.82139427E+04</totfact>
</mgrwt>
</event>
<event>
 6    3  0.3813045E-003  0.1267628E+03  0.7818608E-02  0.1232340E+00
         21   -1    0    0  501  502  0.00000000000E+00  0.00000000000E+00  0.85827546640E+02  0.85827546640E+02  0.00000000000E+00 0.  1.
         -4   -1    0    0    0  501 -0.00000000000E+00 -0.00000000000E+00 -0.22377025156E+03  0.22377385545E+03  0.12700000000E+01 0. -1.
         25    2    1    2    0    0  0.18286812294E+02  0.10480174684E+02 -0.20404150759E+03  0.24021187709E+03  0.12499827003E+03 0.  0.
    9000005    1    3    3    0    0 -0.40412941642E+02  0.31817988759E+02 -0.14654638348E+03  0.15531398125E+03  0.10000000000E+01 0.  0.
    9000005    1    3    3    0    0  0.58699753935E+02 -0.21337814075E+02 -0.57495124108E+02  0.84897895838E+02  0.10000000000E+01 0.  0.
         -4    1    1    2    0  502 -0.18286812294E+02 -0.10480174684E+02  0.66098802670E+02  0.69389524999E+02  0.12700000000E+01 0.  1.
<mgrwt>
<rscale>  1 0.12676281E+03</rscale>
<asrwt>0</asrwt>
<pdfrwt beam="1">  1       21 0.13204238E-01 0.12676281E+03</pdfrwt>
<pdfrwt beam="2">  1       -4 0.34427192E-01 0.12676281E+03</pdfrwt>
<totfact> 0.16352320E+04</totfact>
</mgrwt>
</event>
<event>
 6    3  0.3813045E-003  0.1268338E+03  0.7818608E-02  0.1232231E+00
         -4   -1    0    0    0  501 -0.00000000000E+00  0.00000000000E+00  0.16430066917E+03  0.16430557747E+03  0.12700000000E+01 0. -1.
         21   -1    0    0  501  502  0.00000000000E+00 -0.00000000000E+00 -0.21896888967E+03  0.21896888967E+03  0.00000000000E+00 0.  1.
         25    2    1    2    0    0 -0.21182409469E+02  0.37455622039E+01  0.13913935782E+03  0.18827263633E+03  0.12499640390E+03 0.  0.
    9000005    1    3    3    0    0  0.62673902646E+01  0.42324569623E+02  0.13396147138E+03  0.14063187828E+03  0.10000000000E+01 0.  0.
    9000005    1    3    3    0    0 -0.27449799734E+02 -0.38579007419E+02  0.51778864328E+01  0.47640758041E+02  0.10000000000E+01 0.  0.
         -4    1    1    2    0  502  0.21182409469E+02 -0.37455622039E+01 -0.19380757832E+03  0.19500183081E+03  0.12700000000E+01 0.  1.
<mgrwt>
<rscale>  1 0.12683385E+03</rscale>
<asrwt>0</asrwt>
<pdfrwt beam="2">  1       21 0.33687521E-01 0.12683385E+03</pdfrwt>
<pdfrwt beam="1">  1       -4 0.25277687E-01 0.12683385E+03</pdfrwt>
<totfact> 0.51198653E+03</totfact>
</mgrwt>
</event>
<event>
 6    3  0.3813045E-003  0.1292785E+03  0.7818608E-02  0.1228530E+00
         -4   -1    0    0    0  501 -0.00000000000E+00  0.00000000000E+00  0.50071324989E+02  0.50087428424E+02  0.12700000000E+01 0. -1.
         21   -1    0    0  501  502  0.00000000000E+00 -0.00000000000E+00 -0.55921611593E+03  0.55921611593E+03  0.00000000000E+00 0.  1.
         25    2    1    2    0    0  0.24042987887E+02 -0.22568505016E+02 -0.34892466489E+02  0.13390446691E+03  0.12500207741E+03 0.  0.
    9000005    1    3    3    0    0  0.78348993364E+01  0.17779047632E+02  0.41592916802E+02  0.45917871362E+02  0.10000000000E+01 0.  0.
    9000005    1    3    3    0    0  0.16208088551E+02 -0.40347552648E+02 -0.76485383292E+02  0.87986595550E+02  0.10000000000E+01 0.  0.
         -4    1    1    2    0  502 -0.24042987887E+02  0.22568505016E+02 -0.47425232445E+03  0.47539907744E+03  0.12700000000E+01 0.  1.
<mgrwt>
<rscale>  1 0.12927847E+03</rscale>
<asrwt>0</asrwt>
<pdfrwt beam="2">  1       21 0.86033256E-01 0.12927847E+03</pdfrwt>
<pdfrwt beam="1">  1       -4 0.77046297E-02 0.12927847E+03</pdfrwt>
<totfact> 0.56684545E+03</totfact>
</mgrwt>
</event>
<event>
 6    3  0.3813045E-003  0.1288174E+03  0.7818608E-02  0.1229221E+00
         21   -1    0    0  501  502  0.00000000000E+00  0.00000000000E+00  0.39019681739E+03  0.39019681739E+03  0.00000000000E+00 0.  1.
          4   -1    0    0  502    0 -0.00000000000E+00 -0.00000000000E+00 -0.42903786972E+02  0.42922579565E+02  0.12700000000E+01 0. -1.
         25    2    1    2    0    0  0.20717602191E+02 -0.23232986644E+02  0.56501866277E+02  0.14066409310E+03  0.12499974195E+03 0.  0.
    9000005    1    3    3    0    0 -0.44272987566E+02 -0.90409165161E+00 -0.95844701378E+01  0.45318615133E+02  0.10000000000E+01 0.  0.
    9000005    1    3    3    0    0  0.64990589756E+02 -0.22328894992E+02  0.66086336415E+02  0.95345477969E+02  0.10000000000E+01 0.  0.
          4    1    1    2  501    0 -0.20717602191E+02  0.23232986644E+02  0.29079116414E+03  0.29245530386E+03  0.12700000000E+01 0.  1.
<mgrwt>
<rscale>  1 0.12881741E+03</rscale>
<asrwt>0</asrwt>
<pdfrwt beam="1">  1       21 0.60030277E-01 0.12881741E+03</pdfrwt>
<pdfrwt beam="2">  1        4 0.66021874E-02 0.12881741E+03</pdfrwt>
<totfact> 0.16072189E+04</totfact>
</mgrwt>
</event>
<event>
 6    3  0.3813045E-003  0.1281359E+03  0.7818608E-02  0.1230248E+00
         -4   -1    0    0    0  501 -0.00000000000E+00  0.00000000000E+00  0.69999120732E+02  0.70010640643E+02  0.12700000000E+01 0. -1.
         21   -1    0    0  501  502  0.00000000000E+00 -0.00000000000E+00 -0.88760475129E+02  0.88760475129E+02  0.00000000000E+00 0. -1.
         25    2    1    2    0    0 -0.24007087458E+02 -0.14732463406E+02 -0.73274093066E+01  0.12834524312E+03  0.12500169910E+03 0.  0.
    9000005    1    3    3    0    0 -0.45458510080E+02 -0.44709911515E+02  0.34565744464E+02  0.72534426424E+02  0.10000000000E+01 0.  0.
    9000005    1    3    3    0    0  0.21451422622E+02  0.29977448109E+02 -0.41893153770E+02  0.55810816697E+02  0.10000000000E+01 0.  0.
         -4    1    1    2    0  502  0.24007087458E+02  0.14732463406E+02 -0.11433945090E+02  0.30425872650E+02  0.12700000000E+01 0.  1.
<mgrwt>
<rscale>  1 0.12813591E+03</rscale>
<asrwt>0</asrwt>
<pdfrwt beam="2">  1       21 0.13655458E-01 0.12813591E+03</pdfrwt>
<pdfrwt beam="1">  1       -4 0.10770680E-01 0.12813591E+03</pdfrwt>
<totfact> 0.12419039E+05</totfact>
</mgrwt>
</event>
<event>
 6    3  0.3813045E-003  0.1267620E+03  0.7818608E-02  0.1232341E+00
         21   -1    0    0  501  502  0.00000000000E+00  0.00000000000E+00  0.42666729350E+02  0.42666729350E+02  0.00000000000E+00 0.  1.
         -4   -1    0    0    0  501 -0.00000000000E+00 -0.00000000000E+00 -0.31802944570E+03  0.31803198146E+03  0.12700000000E+01 0. -1.
         25    2    1    2    0    0  0.20968667223E+02 -0.18140057253E+01 -0.30153104079E+03  0.32709261426E+03  0.12500253646E+03 0.  0.
    9000005    1    3    3    0    0 -0.28000871495E+02  0.24763900663E+02 -0.24949577056E+02  0.44953097510E+02  0.10000000000E+01 0.  0.
    9000005    1    3    3    0    0  0.48969538717E+02 -0.26577906388E+02 -0.27658146373E+03  0.28213951675E+03  0.10000000000E+01 0.  0.
         -4    1    1    2    0  502 -0.20968667223E+02  0.18140057253E+01  0.26168324437E+02  0.33606096556E+02  0.12700000000E+01 0.  1.
<mgrwt>
<rscale>  1 0.12676202E+03</rscale>
<asrwt>0</asrwt>
<pdfrwt beam="1">  1       21 0.65641125E-02 0.12676202E+03</pdfrwt>
<pdfrwt beam="2">  1       -4 0.48929254E-01 0.12676202E+03</pdfrwt>
<totfact> 0.27596900E+04</totfact>
</mgrwt>
</event>
<event>
 6    3  0.3813045E-003  0.1301281E+03  0.7818608E-02  0.1227266E+00
         21   -1    0    0  501  502  0.00000000000E+00  0.00000000000E+00  0.15423489707E+02  0.15423489707E+02  0.00000000000E+00 0. -1.
          4   -1    0    0  502    0 -0.00000000000E+00 -0.00000000000E+00 -0.77937182086E+03  0.77937285560E+03  0.12700000000E+01 0. -1.
         25    2    1    2    0    0  0.35403970546E+02 -0.74225932235E+01 -0.74009387603E+03  0.75144678995E+03  0.12499918709E+03 0.  0.
    9000005    1    3    3    0    0  0.41823582956E+02 -0.19953527087E+01 -0.74165650279E+03  0.74283817999E+03  0.10000000000E+01 0.  0.
    9000005    1    3    3    0    0 -0.64196124102E+01 -0.54272405147E+01  0.15626267583E+01  0.86086099625E+01  0.10000000000E+01 0.  0.
          4    1    1    2  501    0 -0.35403970546E+02  0.74225932235E+01 -0.23854455128E+02  0.43349555361E+02  0.12700000000E+01 0.  1.
<mgrwt>
<rscale>  1 0.13012814E+03</rscale>
<asrwt>0</asrwt>
<pdfrwt beam="1">  1       21 0.23728451E-02 0.13012814E+03</pdfrwt>
<pdfrwt beam="2">  1        4 0.11990743E+00 0.13012814E+03</pdfrwt>
<totfact> 0.20934453E+04</totfact>
</mgrwt>
</event>
<event>
 6    3  0.3813045E-003  0.1299680E+03  0.7818608E-02  0.1227503E+00
         21   -1    0    0  501  502  0.00000000000E+00  0.00000000000E+00  0.20027603163E+02  0.20027603163E+02  0.00000000000E+00 0. -1.
         -4   -1    0    0    0  501 -0.00000000000E+00 -0.00000000000E+00 -0.34298122273E+03  0.34298357401E+03  0.12700000000E+01 0. -1.
         25    2    1    2    0    0  0.32545181671E+02 -0.14418728286E+02 -0.24636626851E+03  0.27854625063E+03  0.12499834761E+03 0.  0.
    9000005    1    3    3    0    0 -0.39470997875E+01  0.29144828046E+02 -0.41120138124E+01  0.29713788990E+02  0.10000000000E+01 0.  0.
    9000005    1    3    3    0    0  0.36492281458E+02 -0.43563556332E+02 -0.24225425469E+03  0.24883246164E+03  0.10000000000E+01 0.  0.
         -4    1    1    2    0  502 -0.32545181671E+02  0.14418728286E+02 -0.76587351057E+02  0.84464926551E+02  0.12700000000E+01 0.  1.
<mgrwt>
<rscale>  1 0.12996798E+03</rscale>
<asrwt>0</asrwt>
<pdfrwt beam="1">  1       21 0.30811699E-02 0.12996798E+03</pdfrwt>
<pdfrwt beam="2">  1       -4 0.52769617E-01 0.12996798E+03</pdfrwt>
<totfact> 0.84001518E+04</totfact>
</mgrwt>
</event>
<event>
 6    3  0.3813045E-003  0.1287192E+03  0.7818608E-02  0.1229369E+00
          4   -1    0    0  502    0 -0.00000000000E+00  0.00000000000E+00  0.40066031197E+03  0.40066232476E+03  0.12700000000E+01 0. -1.
         21   -1    0    0  501  502  0.00000000000E+00 -0.00000000000E+00 -0.69628591211E+02  0.69628591211E+02  0.00000000000E+00 0.  1.
         25    2    1    2    0    0  0.30491975250E+02  0.20975449826E+01  0.38626748907E+03  0.40715009518E+03  0.12503786085E+03 0.  0.
    9000005    1    3    3    0    0  0.14179221742E+02  0.63521578157E+02  0.18893798443E+03  0.19983644108E+03  0.10000000000E+01 0.  0.
    9000005    1    3    3    0    0  0.16312753508E+02 -0.61424033174E+02  0.19732950464E+03  0.20731365410E+03  0.10000000000E+01 0.  0.
          4    1    1    2  501    0 -0.30491975250E+02 -0.20975449826E+01 -0.55235768312E+02  0.63140820795E+02  0.12700000000E+01 0.  1.
<mgrwt>
<rscale>  1 0.12871918E+03</rscale>
<asrwt>0</asrwt>
<pdfrwt beam="2">  1       21 0.10712091E-01 0.12871918E+03</pdfrwt>
<pdfrwt beam="1">  1        4 0.61641092E-01 0.12871918E+03</pdfrwt>
<totfact> 0.73527133E+03</totfact>
</mgrwt>
</event>
<event>
 6    3  0.3813045E-003  0.1395212E+03  0.7818608E-02  0.1213975E+00
         21   -1    0    0  501  502  0.00000000000E+00  0.00000000000E+00  0.45461521090E+02  0.45461521090E+02  0.00000000000E+00 0. -1.
         -4   -1    0    0    0  501 -0.00000000000E+00 -0.00000000000E+00 -0.37863216778E+03  0.37863429768E+03  0.12700000000E+01 0.  1.
         25    2    1    2    0    0 -0.24771706764E+02  0.56840231821E+02 -0.33411077715E+03  0.36207206401E+03  0.12498687419E+03 0.  0.
    9000005    1    3    3    0    0 -0.24056333461E+02 -0.32478601590E+02 -0.50291463510E+02  0.64527498346E+02  0.10000000000E+01 0.  0.
    9000005    1    3    3    0    0 -0.71537330235E+00  0.89318833411E+02 -0.28381931364E+03  0.29754456566E+03  0.10000000000E+01 0.  0.
         -4    1    1    2    0  502  0.24771706764E+02 -0.56840231821E+02  0.94013045586E+00  0.62023754761E+02  0.12700000000E+01 0. -1.
<mgrwt>
<rscale>  1 0.13952121E+03</rscale>
<asrwt>0</asrwt>
<pdfrwt beam="1">  1       21 0.69940798E-02 0.13952121E+03</pdfrwt>
<pdfrwt beam="2">  1       -4 0.58252635E-01 0.13952121E+03</pdfrwt>
<totfact> 0.17473814E+04</totfact>
</mgrwt>
</event>
<event>
 6    3  0.3813045E-003  0.1277595E+03  0.7818608E-02  0.1230819E+00
         -4   -1    0    0    0  501 -0.00000000000E+00  0.00000000000E+00  0.55394820620E+02  0.55409376928E+02  0.12700000000E+01 0. -1.
         21   -1    0    0  501  502  0.00000000000E+00 -0.00000000000E+00 -0.47753536185E+03  0.47753536185E+03  0.00000000000E+00 0.  1.
         25    2    1    2    0    0 -0.30287213717E+01  0.26228691546E+02 -0.19266049625E+02  0.12920399734E+03  0.12500149938E+03 0.  0.
    9000005    1    3    3    0    0 -0.45888220310E+02 -0.12762536344E+02  0.27259438207E+02  0.54887959231E+02  0.10000000000E+01 0.  0.
    9000005    1    3    3    0    0  0.42859498939E+02  0.38991227890E+02 -0.46525487832E+02  0.74316038105E+02  0.10000000000E+01 0.  0.
         -4    1    1    2    0  502  0.30287213717E+01 -0.26228691546E+02 -0.40287449160E+03  0.40374074144E+03  0.12700000000E+01 0.  1.
<mgrwt>
<rscale>  1 0.12775951E+03</rscale>
<asrwt>0</asrwt>
<pdfrwt beam="2">  1       21 0.73466976E-01 0.12775951E+03</pdfrwt>
<pdfrwt beam="1">  1       -4 0.85235300E-02 0.12775951E+03</pdfrwt>
<totfact> 0.68161453E+03</totfact>
</mgrwt>
</event>
<event>
 6    3  0.3813045E-003  0.1299229E+03  0.7818608E-02  0.1227570E+00
          4   -1    0    0  502    0 -0.00000000000E+00  0.00000000000E+00  0.90696579798E+02  0.90705471098E+02  0.12700000000E+01 0.  1.
         21   -1    0    0  501  502  0.00000000000E+00 -0.00000000000E+00 -0.78611545131E+02  0.78611545131E+02  0.00000000000E+00 0.  1.
         25    2    1    2    0    0  0.55855963631E+01 -0.34985334849E+02  0.23587096952E+02  0.13204661406E+03  0.12499913840E+03 0.  0.
    9000005    1    3    3    0    0  0.41175774204E+02  0.13862842679E+02 -0.28735972564E+02  0.52099701608E+02  0.10000000000E+01 0.  0.
    9000005    1    3    3    0    0 -0.35590177841E+02 -0.48848177528E+02  0.52323069516E+02  0.79946912449E+02  0.10000000000E+01 0.  0.
          4    1    1    2  501    0 -0.55855963631E+01  0.34985334849E+02 -0.11502062285E+02  0.37270402171E+02  0.12700000000E+01 0. -1.
<mgrwt>
<rscale>  1 0.12992289E+03</rscale>
<asrwt>0</asrwt>
<pdfrwt beam="2">  1       21 0.12094084E-01 0.12992289E+03</pdfrwt>
<pdfrwt beam="1">  1        4 0.13954793E-01 0.12992289E+03</pdfrwt>
<totfact> 0.99146564E+04</totfact>
</mgrwt>
</event>
<event>
 6    3  0.3813045E-003  0.1275464E+03  0.7818608E-02  0.1231143E+00
          4   -1    0    0  502    0 -0.00000000000E+00  0.00000000000E+00  0.12507429999E+03  0.12508074760E+03  0.12700000000E+01 0. -1.
         21   -1    0    0  501  502  0.00000000000E+00 -0.00000000000E+00 -0.80821695137E+02  0.80821695137E+02  0.00000000000E+00 0.  1.
         25    2    1    2    0    0  0.23178125598E+02 -0.10317982625E+02  0.88248448390E+02  0.15509955482E+03  0.12499758794E+03 0.  0.
    9000005    1    3    3    0    0 -0.48891853041E+02  0.91625095968E+01  0.18971499261E+02  0.53247372330E+02  0.10000000000E+01 0.  0.
    9000005    1    3    3    0    0  0.72069978639E+02 -0.19480492222E+02  0.69276949129E+02  0.10185218249E+03  0.10000000000E+01 0.  0.
          4    1    1    2  501    0 -0.23178125598E+02  0.10317982625E+02 -0.43995843533E+02  0.50802887908E+02  0.12700000000E+01 0.  1.
<mgrwt>
<rscale>  1 0.12754640E+03</rscale>
<asrwt>0</asrwt>
<pdfrwt beam="2">  1       21 0.12434107E-01 0.12754640E+03</pdfrwt>
<pdfrwt beam="1">  1        4 0.19243463E-01 0.12754640E+03</pdfrwt>
<totfact> 0.53486785E+04</totfact>
</mgrwt>
</event>
<event>
 6    3  0.3813045E-003  0.1308704E+03  0.7818608E-02  0.1226170E+00
          4   -1    0    0  502    0 -0.00000000000E+00  0.00000000000E+00  0.59560165408E+02  0.59573703960E+02  0.12700000000E+01 0. -1.
         21   -1    0    0  501  502  0.00000000000E+00 -0.00000000000E+00 -0.12133294103E+03  0.12133294103E+03  0.00000000000E+00 0. -1.
         25    2    1    2    0    0  0.28492600267E+02 -0.26325210928E+02 -0.52449946216E+02  0.14098956783E+03  0.12498886502E+03 0.  0.
    9000005    1    3    3    0    0  0.66230740044E+02  0.12679071068E+02 -0.54439575939E+02  0.86671432424E+02  0.10000000000E+01 0.  0.
    9000005    1    3    3    0    0 -0.37738139778E+02 -0.39004281996E+02  0.19896297229E+01  0.54318135409E+02  0.10000000000E+01 0.  0.
          4    1    1    2  501    0 -0.28492600267E+02  0.26325210928E+02 -0.93228294021E+01  0.39917077153E+02  0.12700000000E+01 0.  1.
<mgrwt>
<rscale>  1 0.13087040E+03</rscale>
<asrwt>0</asrwt>
<pdfrwt beam="2">  1       21 0.18666606E-01 0.13087040E+03</pdfrwt>
<pdfrwt beam="1">  1        4 0.91646552E-02 0.13087040E+03</pdfrwt>
<totfact> 0.92750087E+04</totfact>
</mgrwt>
</event>
<event>
 6    3  0.3813045E-003  0.1270739E+03  0.7818608E-02  0.1231863E+00
          4   -1    0    0  502    0 -0.00000000000E+00  0.00000000000E+00  0.75872754537E+03  0.75872860827E+03  0.12700000000E+01 0.  1.
         21   -1    0    0  501  502  0.00000000000E+00 -0.00000000000E+00 -0.79999722159E+01  0.79999722159E+01  0.00000000000E+00 0.  1.
         25    2    1    2    0    0  0.79722371534E+01 -0.21407337591E+02  0.69440836755E+03  0.70593963010E+03  0.12500379900E+03 0.  0.
    9000005    1    3    3    0    0 -0.35470087081E+02  0.34062241114E+02  0.40966244710E+03  0.41260475508E+03  0.10000000000E+01 0.  0.
    9000005    1    3    3    0    0  0.43442324234E+02 -0.55469578705E+02  0.28474592044E+03  0.29333487502E+03  0.10000000000E+01 0.  0.
          4    1    1    2  501    0 -0.79722371534E+01  0.21407337591E+02  0.56319205605E+02  0.60788950377E+02  0.12700000000E+01 0. -1.
<mgrwt>
<rscale>  1 0.12707392E+03</rscale>
<asrwt>0</asrwt>
<pdfrwt beam="2">  1       21 0.12307656E-02 0.12707392E+03</pdfrwt>
<pdfrwt beam="1">  1        4 0.11673509E+00 0.12707392E+03</pdfrwt>
<totfact> 0.63798629E+04</totfact>
</mgrwt>
</event>
<event>
 6    3  0.3813045E-003  0.1274663E+03  0.7818608E-02  0.1231264E+00
         21   -1    0    0  501  502  0.00000000000E+00  0.00000000000E+00  0.10400981581E+03  0.10400981581E+03  0.00000000000E+00 0. -1.
          4   -1    0    0  502    0 -0.00000000000E+00 -0.00000000000E+00 -0.55927177469E+02  0.55941595255E+02  0.12700000000E+01 0. -1.
         25    2    1    2    0    0  0.24897049560E+02 -0.10875377062E+01  0.42663532576E+02  0.13441662259E+03  0.12500642224E+03 0.  0.
    9000005    1    3    3    0    0  0.50423638606E+02  0.48684085749E+02  0.13718513112E+02  0.71427453668E+02  0.10000000000E+01 0.  0.
    9000005    1    3    3    0    0 -0.25526589045E+02 -0.49771623455E+02  0.28945019464E+02  0.62989168921E+02  0.10000000000E+01 0.  0.
          4    1    1    2  501    0 -0.24897049560E+02  0.10875377062E+01  0.54191057622E+01  0.25534788472E+02  0.12700000000E+01 0.  1.
<mgrwt>
<rscale>  1 0.12746628E+03</rscale>
<asrwt>0</asrwt>
<pdfrwt beam="1">  1       21 0.16001510E-01 0.12746628E+03</pdfrwt>
<pdfrwt beam="2">  1        4 0.86058866E-02 0.12746628E+03</pdfrwt>
<totfact> 0.13592689E+05</totfact>
</mgrwt>
</event>
<event>
 6    3  0.3813045E-003  0.1295042E+03  0.7818608E-02  0.1228193E+00
         -4   -1    0    0    0  501 -0.00000000000E+00  0.00000000000E+00  0.22795079372E+04  0.22795082910E+04  0.12700000000E+01 0. -1.
         21   -1    0    0  501  502  0.00000000000E+00 -0.00000000000E+00 -0.29564704135E+01  0.29564704135E+01  0.00000000000E+00 0. -1.
         25    2    1    2    0    0  0.19982584308E+02 -0.27330155065E+02  0.18898211233E+04  0.18942532050E+04  0.12500034202E+03 0.  0.
    9000005    1    3    3    0    0 -0.21768121117E+02 -0.47484893747E+02  0.36429252431E+03  0.36801998519E+03  0.10000000000E+01 0.  0.
    9000005    1    3    3    0    0  0.41750705425E+02  0.20154738681E+02  0.15255285990E+04  0.15262332198E+04  0.10000000000E+01 0.  0.
         -4    1    1    2    0  502 -0.19982584308E+02  0.27330155065E+02  0.38673034350E+03  0.38821155642E+03  0.12700000000E+01 0.  1.
<mgrwt>
<rscale>  1 0.12950416E+03</rscale>
<asrwt>0</asrwt>
<pdfrwt beam="2">  1       21 0.45484343E-03 0.12950416E+03</pdfrwt>
<pdfrwt beam="1">  1       -4 0.35071313E+00 0.12950416E+03</pdfrwt>
<totfact> 0.98931020E+03</totfact>
</mgrwt>
</event>
<event>
 6    3  0.3813045E-003  0.1344858E+03  0.7818608E-02  0.1220947E+00
          4   -1    0    0  502    0 -0.00000000000E+00  0.00000000000E+00  0.25428834509E+03  0.25429151647E+03  0.12700000000E+01 0.  1.
         21   -1    0    0  501  502  0.00000000000E+00 -0.00000000000E+00 -0.54197373927E+02  0.54197373927E+02  0.00000000000E+00 0. -1.
         25    2    1    2    0    0 -0.42269735384E+02  0.25983012827E+02  0.21764464178E+03  0.25584298137E+03  0.12499837412E+03 0.  0.
    9000005    1    3    3    0    0 -0.37298104803E+02  0.59930128702E+02  0.20878061572E+03  0.22039309075E+03  0.10000000000E+01 0.  0.
    9000005    1    3    3    0    0 -0.49716305810E+01 -0.33947115875E+02  0.88640260588E+01  0.35449890618E+02  0.10000000000E+01 0.  0.
          4    1    1    2  501    0  0.42269735384E+02 -0.25983012827E+02 -0.17553670622E+02  0.52645909027E+02  0.12700000000E+01 0. -1.
<mgrwt>
<rscale>  1 0.13448584E+03</rscale>
<asrwt>0</asrwt>
<pdfrwt beam="2">  1       21 0.83380577E-02 0.13448584E+03</pdfrwt>
<pdfrwt beam="1">  1        4 0.39122672E-01 0.13448584E+03</pdfrwt>
<totfact> 0.28782209E+04</totfact>
</mgrwt>
</event>
<event>
 6    3  0.3813045E-003  0.1282075E+03  0.7818608E-02  0.1230140E+00
          4   -1    0    0  502    0 -0.00000000000E+00  0.00000000000E+00  0.59559577847E+01  0.60898549353E+01  0.12700000000E+01 0. -1.
         21   -1    0    0  501  502  0.00000000000E+00 -0.00000000000E+00 -0.11751529698E+04  0.11751529698E+04  0.00000000000E+00 0. -1.
         25    2    1    2    0    0  0.94283481203E+01  0.26886804115E+02 -0.73404412111E+03  0.74515631342E+03  0.12500146286E+03 0.  0.
    9000005    1    3    3    0    0  0.19491881040E+02  0.25675374538E+02 -0.73426065586E+03  0.73496861772E+03  0.10000000000E+01 0.  0.
    9000005    1    3    3    0    0 -0.10063532920E+02  0.12114295776E+01  0.21653475431E+00  0.10187695704E+02  0.10000000000E+01 0.  0.
          4    1    1    2  501    0 -0.94283481203E+01 -0.26886804115E+02 -0.43515289092E+03  0.43608651132E+03  0.12700000000E+01 0.  1.
<mgrwt>
<rscale>  1 0.12820749E+03</rscale>
<asrwt>0</asrwt>
<pdfrwt beam="2">  1       21 0.18079273E+00 0.12820749E+03</pdfrwt>
<pdfrwt beam="1">  1        4 0.92665395E-03 0.12820749E+03</pdfrwt>
<totfact> 0.24607419E+04</totfact>
</mgrwt>
</event>
<event>
 6    3  0.3813045E-003  0.1506533E+03  0.7818608E-02  0.1199673E+00
          4   -1    0    0  502    0 -0.00000000000E+00  0.00000000000E+00  0.29496425009E+02  0.29523752951E+02  0.12700000000E+01 0. -1.
         21   -1    0    0  501  502  0.00000000000E+00 -0.00000000000E+00 -0.11268160527E+04  0.11268160527E+04  0.00000000000E+00 0.  1.
         25    2    1    2    0    0  0.52976237367E+02 -0.65311620858E+02 -0.17806519527E+03  0.23324587004E+03  0.12499733028E+03 0.  0.
    9000005    1    3    3    0    0  0.61585345126E+02  0.19977851822E+02 -0.82171092433E+02  0.10461815201E+03  0.10000000000E+01 0.  0.
    9000005    1    3    3    0    0 -0.86091077592E+01 -0.85289472681E+02 -0.95894102840E+02  0.12862771803E+03  0.10000000000E+01 0.  0.
          4    1    1    2  501    0 -0.52976237367E+02  0.65311620858E+02 -0.91925443240E+03  0.92309393559E+03  0.12700000000E+01 0.  1.
<mgrwt>
<rscale>  1 0.15065332E+03</rscale>
<asrwt>0</asrwt>
<pdfrwt beam="2">  1       21 0.17335628E+00 0.15065332E+03</pdfrwt>
<pdfrwt beam="1">  1        4 0.45400696E-02 0.15065332E+03</pdfrwt>
<totfact> 0.23803622E+03</totfact>
</mgrwt>
</event>
<event>
 6    3  0.3813045E-003  0.1279665E+03  0.7818608E-02  0.1230505E+00
          4   -1    0    0  502    0 -0.00000000000E+00  0.00000000000E+00  0.71813382119E+03  0.71813494417E+03  0.12700000000E+01 0.  1.
         21   -1    0    0  501  502  0.00000000000E+00 -0.00000000000E+00 -0.85150408197E+01  0.85150408197E+01  0.00000000000E+00 0.  1.
         25    2    1    2    0    0 -0.20046729986E+02  0.18661488590E+02  0.54974307690E+03  0.56444031820E+03  0.12500119868E+03 0.  0.
    9000005    1    3    3    0    0  0.27194228281E+02  0.29435255881E+02  0.46572010268E+03  0.46744216154E+03  0.10000000000E+01 0.  0.
    9000005    1    3    3    0    0 -0.47240958267E+02 -0.10773767291E+02  0.84022974218E+02  0.96998156663E+02  0.10000000000E+01 0.  0.
          4    1    1    2  501    0  0.20046729986E+02 -0.18661488590E+02  0.15987570347E+03  0.16220966679E+03  0.12700000000E+01 0. -1.
<mgrwt>
<rscale>  1 0.12796649E+03</rscale>
<asrwt>0</asrwt>
<pdfrwt beam="2">  1       21 0.13100069E-02 0.12796649E+03</pdfrwt>
<pdfrwt beam="1">  1        4 0.11048945E+00 0.12796649E+03</pdfrwt>
<totfact> 0.65868390E+04</totfact>
</mgrwt>
</event>
<event>
 6    3  0.3813045E-003  0.1320668E+03  0.7818608E-02  0.1224421E+00
         21   -1    0    0  501  502  0.00000000000E+00  0.00000000000E+00  0.41320453435E+02  0.41320453435E+02  0.00000000000E+00 0.  1.
         -4   -1    0    0    0  501 -0.00000000000E+00 -0.00000000000E+00 -0.18502864233E+03  0.18503300079E+03  0.12700000000E+01 0. -1.
         25    2    1    2    0    0  0.39058620701E+02  0.17078444491E+02 -0.11281359617E+03  0.17369096400E+03  0.12499757748E+03 0.  0.
    9000005    1    3    3    0    0  0.97394876063E+01  0.59409949012E+02 -0.10577144578E+03  0.12170866199E+03  0.10000000000E+01 0.  0.
    9000005    1    3    3    0    0  0.29319133094E+02 -0.42331504521E+02 -0.70421503915E+01  0.51982302013E+02  0.10000000000E+01 0.  0.
         -4    1    1    2    0  502 -0.39058620701E+02 -0.17078444491E+02 -0.30894592722E+02  0.52662490225E+02  0.12700000000E+01 0.  1.
<mgrwt>
<rscale>  1 0.13206681E+03</rscale>
<asrwt>0</asrwt>
<pdfrwt beam="1">  1       21 0.63569929E-02 0.13206681E+03</pdfrwt>
<pdfrwt beam="2">  1       -4 0.28467781E-01 0.13206681E+03</pdfrwt>
<totfact> 0.84146837E+04</totfact>
</mgrwt>
</event>
<event>
 6    3  0.3813045E-003  0.1266159E+03  0.7818608E-02  0.1232565E+00
         21   -1    0    0  501  502  0.00000000000E+00  0.00000000000E+00  0.34021158590E+03  0.34021158590E+03  0.00000000000E+00 0.  1.
          4   -1    0    0  502    0 -0.00000000000E+00 -0.00000000000E+00 -0.15847235497E+02  0.15898043052E+02  0.12700000000E+01 0.  1.
         25    2    1    2    0    0 -0.19592103711E+02  0.46368710791E+01  0.27330680451E+03  0.30121120462E+03  0.12500491709E+03 0.  0.
    9000005    1    3    3    0    0  0.12045800924E+02 -0.15509471905E+02 -0.50786510528E+01  0.20308563100E+02  0.10000000000E+01 0.  0.
    9000005    1    3    3    0    0 -0.31637904635E+02  0.20146342984E+02  0.27838545556E+03  0.28090264152E+03  0.10000000000E+01 0.  0.
          4    1    1    2  501    0  0.19592103711E+02 -0.46368710791E+01  0.51057545892E+02  0.54898424328E+02  0.12700000000E+01 0. -1.
<mgrwt>
<rscale>  1 0.12661588E+03</rscale>
<asrwt>0</asrwt>
<pdfrwt beam="1">  1       21 0.52340239E-01 0.12661588E+03</pdfrwt>
<pdfrwt beam="2">  1        4 0.24421271E-02 0.12661588E+03</pdfrwt>
<totfact> 0.10382818E+05</totfact>
</mgrwt>
</event>
<event>
 6    3  0.3813045E-003  0.1268524E+03  0.7818608E-02  0.1232202E+00
         21   -1    0    0  501  502  0.00000000000E+00  0.00000000000E+00  0.15194579858E+03  0.15194579858E+03  0.00000000000E+00 0. -1.
          4   -1    0    0  502    0 -0.00000000000E+00 -0.00000000000E+00 -0.66157141150E+02  0.66169329944E+02  0.12700000000E+01 0.  1.
         25    2    1    2    0    0  0.20946071163E+02  0.51968783771E+01 -0.28438251909E+01  0.12688423837E+03  0.12500310862E+03 0.  0.
    9000005    1    3    3    0    0  0.58952159476E+02 -0.34627324973E+02  0.12977803074E+02  0.69597644460E+02  0.10000000000E+01 0.  0.
    9000005    1    3    3    0    0 -0.38006088313E+02  0.39824203350E+02 -0.15821628265E+02  0.57286593914E+02  0.10000000000E+01 0.  0.
          4    1    1    2  501    0 -0.20946071163E+02 -0.51968783771E+01  0.88632482618E+02  0.91230890147E+02  0.12700000000E+01 0. -1.
<mgrwt>
<rscale>  1 0.12685237E+03</rscale>
<asrwt>0</asrwt>
<pdfrwt beam="1">  1       21 0.23376277E-01 0.12685237E+03</pdfrwt>
<pdfrwt beam="2">  1        4 0.10179368E-01 0.12685237E+03</pdfrwt>
<totfact> 0.51004522E+04</totfact>
</mgrwt>
</event>
<event>
 6    3  0.3813045E-003  0.3327612E+03  0.7818608E-02  0.1069922E+00
         21   -1    0    0  501  502  0.00000000000E+00  0.00000000000E+00  0.98467901195E+03  0.98467901195E+03  0.00000000000E+00 0.  1.
          4   -1    0    0  502    0 -0.00000000000E+00 -0.00000000000E+00 -0.13557544505E+03  0.13558139327E+03  0.12700000000E+01 0. -1.
         25    2    1    2    0    0  0.17887767644E+03  0.25121176479E+03  0.16837725316E+03  0.37293550867E+03  0.12500168139E+03 0.  0.
    9000005    1    3    3    0    0  0.91247961712E+02  0.11689343866E+03  0.11744612482E+02  0.14875887349E+03  0.10000000000E+01 0.  0.
    9000005    1    3    3    0    0  0.87629714724E+02  0.13431832613E+03  0.15663264068E+03  0.22417663518E+03  0.10000000000E+01 0.  0.
          4    1    1    2  501    0 -0.17887767644E+03 -0.25121176479E+03  0.68072631374E+03  0.74732489655E+03  0.12700000000E+01 0.  1.
<mgrwt>
<rscale>  1 0.33276117E+03</rscale>
<asrwt>0</asrwt>
<pdfrwt beam="1">  1       21 0.15148907E+00 0.33276117E+03</pdfrwt>
<pdfrwt beam="2">  1        4 0.20858282E-01 0.33276117E+03</pdfrwt>
<totfact> 0.24796263E+02</totfact>
</mgrwt>
</event>
<event>
 6    3  0.3813045E-003  0.1301487E+03  0.7818608E-02  0.1227235E+00
         -4   -1    0    0    0  501 -0.00000000000E+00  0.00000000000E+00  0.36713251317E+03  0.36713470978E+03  0.12700000000E+01 0. -1.
         21   -1    0    0  501  502  0.00000000000E+00 -0.00000000000E+00 -0.19205290830E+02  0.19205290830E+02  0.00000000000E+00 0. -1.
         25    2    1    2    0    0  0.33466220723E+02 -0.13914940844E+02  0.24875883685E+03  0.28074835753E+03  0.12500027134E+03 0.  0.
    9000005    1    3    3    0    0  0.54791907820E+02 -0.48960315211E+02  0.21625218144E+03  0.22839717950E+03  0.10000000000E+01 0.  0.
    9000005    1    3    3    0    0 -0.21325687097E+02  0.35045374366E+02  0.32506655410E+02  0.52351178025E+02  0.10000000000E+01 0.  0.
         -4    1    1    2    0  502 -0.33466220723E+02  0.13914940844E+02  0.99168385493E+02  0.10559164309E+03  0.12700000000E+01 0.  1.
<mgrwt>
<rscale>  1 0.13014869E+03</rscale>
<asrwt>0</asrwt>
<pdfrwt beam="2">  1       21 0.29546604E-02 0.13014869E+03</pdfrwt>
<pdfrwt beam="1">  1       -4 0.56485319E-01 0.13014869E+03</pdfrwt>
<totfact> 0.78205376E+04</totfact>
</mgrwt>
</event>
<event>
 6    3  0.3813045E-003  0.1642199E+03  0.7818608E-02  0.1184013E+00
         21   -1    0    0  501  502  0.00000000000E+00  0.00000000000E+00  0.38798692182E+02  0.38798692182E+02  0.00000000000E+00 0.  1.
          4   -1    0    0  502    0 -0.00000000000E+00 -0.00000000000E+00 -0.48842061334E+03  0.48842226448E+03  0.12700000000E+01 0. -1.
         25    2    1    2    0    0  0.56378768039E+02 -0.90350099711E+02 -0.22424679289E+03  0.27794747764E+03  0.12500588065E+03 0.  0.
    9000005    1    3    3    0    0  0.23770170187E+02  0.27393655406E+02 -0.24443764808E+02  0.43748496948E+02  0.10000000000E+01 0.  0.
    9000005    1    3    3    0    0  0.32608597852E+02 -0.11774375512E+03 -0.19980302809E+03  0.23419898069E+03  0.10000000000E+01 0.  0.
          4    1    1    2  501    0 -0.56378768039E+02  0.90350099711E+02 -0.22537512827E+03  0.24927347903E+03  0.12700000000E+01 0.  1.
<mgrwt>
<rscale>  1 0.16421990E+03</rscale>
<asrwt>0</asrwt>
<pdfrwt beam="1">  1       21 0.59690293E-02 0.16421990E+03</pdfrwt>
<pdfrwt beam="2">  1        4 0.75143363E-01 0.16421990E+03</pdfrwt>
<totfact> 0.13485938E+04</totfact>
</mgrwt>
</event>
<event>
 6    3  0.3813045E-003  0.1268597E+03  0.7818608E-02  0.1232191E+00
          4   -1    0    0  502    0 -0.00000000000E+00  0.00000000000E+00  0.60458595717E+02  0.60471933126E+02  0.12700000000E+01 0. -1.
         21   -1    0    0  501  502  0.00000000000E+00 -0.00000000000E+00 -0.12116361033E+03  0.12116361033E+03  0.00000000000E+00 0. -1.
         25    2    1    2    0    0 -0.26977037370E+01  0.21475335180E+02 -0.10913497136E+02  0.12732830877E+03  0.12499970467E+03 0.  0.
    9000005    1    3    3    0    0 -0.50182215001E+02 -0.26163074092E+02  0.86796926196E+01  0.57263410764E+02  0.10000000000E+01 0.  0.
    9000005    1    3    3    0    0  0.47484511264E+02  0.47638409272E+02 -0.19593189756E+02  0.70064898007E+02  0.10000000000E+01 0.  0.
          4    1    1    2  501    0  0.26977037370E+01 -0.21475335180E+02 -0.49791517479E+02  0.54307234687E+02  0.12700000000E+01 0.  1.
<mgrwt>
<rscale>  1 0.12685974E+03</rscale>
<asrwt>0</asrwt>
<pdfrwt beam="2">  1       21 0.18640555E-01 0.12685974E+03</pdfrwt>
<pdfrwt beam="1">  1        4 0.93028605E-02 0.12685974E+03</pdfrwt>
<totfact> 0.90306598E+04</totfact>
</mgrwt>
</event>
<event>
 6    3  0.3813045E-003  0.1297419E+03  0.7818608E-02  0.1227839E+00
         21   -1    0    0  501  502  0.00000000000E+00  0.00000000000E+00  0.11568276127E+02  0.11568276127E+02  0.00000000000E+00 0.  1.
         -4   -1    0    0    0  501 -0.00000000000E+00 -0.00000000000E+00 -0.13567344709E+04  0.13567350653E+04  0.12700000000E+01 0. -1.
         25    2    1    2    0    0  0.13597220528E+02 -0.31990459343E+02 -0.13174627567E+04  0.13238357434E+04  0.12499874500E+03 0.  0.
    9000005    1    3    3    0    0 -0.63675165048E+01 -0.42393676529E+02 -0.12753676816E+04  0.12760883560E+04  0.10000000000E+01 0.  0.
    9000005    1    3    3    0    0  0.19964737032E+02  0.10403217186E+02 -0.42095075109E+02  0.47747387374E+02  0.10000000000E+01 0.  0.
         -4    1    1    2    0  502 -0.13597220528E+02  0.31990459343E+02 -0.27703438050E+02  0.44467598033E+02  0.12700000000E+01 0.  1.
<mgrwt>
<rscale>  1 0.12974190E+03</rscale>
<asrwt>0</asrwt>
<pdfrwt beam="1">  1       21 0.17797341E-02 0.12974190E+03</pdfrwt>
<pdfrwt beam="2">  1       -4 0.20873386E+00 0.12974190E+03</pdfrwt>
<totfact> 0.78268846E+03</totfact>
</mgrwt>
</event>
<event>
 6    3  0.3813045E-003  0.1316914E+03  0.7818608E-02  0.1224967E+00
         -4   -1    0    0    0  501 -0.00000000000E+00  0.00000000000E+00  0.55077852160E+02  0.55092492216E+02  0.12700000000E+01 0.  1.
         21   -1    0    0  501  502  0.00000000000E+00 -0.00000000000E+00 -0.13787470551E+03  0.13787470551E+03  0.00000000000E+00 0.  1.
         25    2    1    2    0    0  0.33754105181E+02  0.24064481204E+02 -0.53274132877E+02  0.14205901767E+03  0.12499676954E+03 0.  0.
    9000005    1    3    3    0    0  0.22384484619E+01 -0.22873495241E+02  0.32200240294E+02  0.39573512746E+02  0.10000000000E+01 0.  0.
    9000005    1    3    3    0    0  0.31515656719E+02  0.46937976446E+02 -0.85474373170E+02  0.10248550493E+03  0.10000000000E+01 0.  0.
         -4    1    1    2    0  502 -0.33754105181E+02 -0.24064481204E+02 -0.29522720476E+02  0.50908180055E+02  0.12700000000E+01 0. -1.
<mgrwt>
<rscale>  1 0.13169142E+03</rscale>
<asrwt>0</asrwt>
<pdfrwt beam="2">  1       21 0.21211493E-01 0.13169142E+03</pdfrwt>
<pdfrwt beam="1">  1       -4 0.84750919E-02 0.13169142E+03</pdfrwt>
<totfact> 0.83499886E+04</totfact>
</mgrwt>
</event>
<event>
 6    3  0.3813045E-003  0.1275950E+03  0.7818608E-02  0.1231069E+00
         21   -1    0    0  501  502  0.00000000000E+00  0.00000000000E+00  0.39364740781E+02  0.39364740781E+02  0.00000000000E+00 0.  1.
          4   -1    0    0  502    0 -0.00000000000E+00 -0.00000000000E+00 -0.15220234748E+03  0.15220764593E+03  0.12700000000E+01 0.  1.
         25    2    1    2    0    0  0.66457609488E+01  0.24719130885E+02 -0.82888095503E+02  0.15215427296E+03  0.12500113933E+03 0.  0.
    9000005    1    3    3    0    0 -0.48999446342E+02  0.45000805005E+02 -0.30982995597E+02  0.73395941367E+02  0.10000000000E+01 0.  0.
    9000005    1    3    3    0    0  0.55645207291E+02 -0.20281674120E+02 -0.51905099906E+02  0.78758331596E+02  0.10000000000E+01 0.  0.
          4    1    1    2  501    0 -0.66457609488E+01 -0.24719130885E+02 -0.29949511196E+02  0.39418113744E+02  0.12700000000E+01 0. -1.
<mgrwt>
<rscale>  1 0.12759501E+03</rscale>
<asrwt>0</asrwt>
<pdfrwt beam="1">  1       21 0.60561140E-02 0.12759501E+03</pdfrwt>
<pdfrwt beam="2">  1        4 0.23417729E-01 0.12759501E+03</pdfrwt>
<totfact> 0.13052234E+05</totfact>
</mgrwt>
</event>
<event>
 6    3  0.3813045E-003  0.1285481E+03  0.7818608E-02  0.1229626E+00
         -4   -1    0    0    0  501 -0.00000000000E+00  0.00000000000E+00  0.59759183324E+02  0.59772676797E+02  0.12700000000E+01 0.  1.
         21   -1    0    0  501  502  0.00000000000E+00 -0.00000000000E+00 -0.13567132115E+03  0.13567132115E+03  0.00000000000E+00 0.  1.
         25    2    1    2    0    0  0.39908316715E+01  0.29708100184E+02 -0.17442203041E+02  0.12972608465E+03  0.12500451447E+03 0.  0.
    9000005    1    3    3    0    0 -0.24278859586E+01  0.46892494223E+02  0.44753236077E+02  0.64874130314E+02  0.10000000000E+01 0.  0.
    9000005    1    3    3    0    0  0.64187176301E+01 -0.17184394039E+02 -0.62195439118E+02  0.64851954339E+02  0.10000000000E+01 0.  0.
         -4    1    1    2    0  502 -0.39908316715E+01 -0.29708100184E+02 -0.58469934782E+02  0.65717913292E+02  0.12700000000E+01 0. -1.
<mgrwt>
<rscale>  1 0.12854815E+03</rscale>
<asrwt>0</asrwt>
<pdfrwt beam="2">  1       21 0.20872511E-01 0.12854815E+03</pdfrwt>
<pdfrwt beam="1">  1       -4 0.91952158E-02 0.12854815E+03</pdfrwt>
<totfact> 0.74862385E+04</totfact>
</mgrwt>
</event>
<event>
 6    3  0.3813045E-003  0.1413540E+03  0.7818608E-02  0.1211519E+00
         21   -1    0    0  501  502  0.00000000000E+00  0.00000000000E+00  0.59390796936E+02  0.59390796936E+02  0.00000000000E+00 0. -1.
         -4   -1    0    0    0  501 -0.00000000000E+00 -0.00000000000E+00 -0.25352101320E+03  0.25352419418E+03  0.12700000000E+01 0.  1.
         25    2    1    2    0    0  0.52150787544E+02 -0.40449011974E+02 -0.20188317046E+03  0.24645035082E+03  0.12500053477E+03 0.  0.
    9000005    1    3    3    0    0 -0.32872000157E+02  0.41891561660E+01 -0.10469817746E+03  0.10982179104E+03  0.10000000000E+01 0.  0.
    9000005    1    3    3    0    0  0.85022787701E+02 -0.44638168140E+02 -0.97184992995E+02  0.13662855978E+03  0.10000000000E+01 0.  0.
         -4    1    1    2    0  502 -0.52150787544E+02  0.40449011974E+02  0.77529541929E+01  0.66464640297E+02  0.12700000000E+01 0. -1.
<mgrwt>
<rscale>  1 0.14135403E+03</rscale>
<asrwt>0</asrwt>
<pdfrwt beam="1">  1       21 0.91370456E-02 0.14135403E+03</pdfrwt>
<pdfrwt beam="2">  1       -4 0.39004522E-01 0.14135403E+03</pdfrwt>
<totfact> 0.24831372E+04</totfact>
</mgrwt>
</event>
<event>
 6    3  0.3813045E-003  0.1270371E+03  0.7818608E-02  0.1231920E+00
         21   -1    0    0  501  502  0.00000000000E+00  0.00000000000E+00  0.46134339722E+02  0.46134339722E+02  0.00000000000E+00 0. -1.
          4   -1    0    0  502    0 -0.00000000000E+00 -0.00000000000E+00 -0.21807308759E+03  0.21807678563E+03  0.12700000000E+01 0.  1.
         25    2    1    2    0    0 -0.15704828061E+02  0.16301609159E+02 -0.19444490582E+03  0.23226548196E+03  0.12500419443E+03 0.  0.
    9000005    1    3    3    0    0  0.34930124134E+02  0.23099538762E+02 -0.17097971297E+03  0.17603625908E+03  0.10000000000E+01 0.  0.
    9000005    1    3    3    0    0 -0.50634952196E+02 -0.67979296030E+01 -0.23465192855E+02  0.56229222887E+02  0.10000000000E+01 0.  0.
          4    1    1    2  501    0  0.15704828061E+02 -0.16301609159E+02  0.22506157955E+02  0.31945643389E+02  0.12700000000E+01 0. -1.
<mgrwt>
<rscale>  1 0.12703713E+03</rscale>
<asrwt>0</asrwt>
<pdfrwt beam="1">  1       21 0.70975908E-02 0.12703713E+03</pdfrwt>
<pdfrwt beam="2">  1        4 0.33551334E-01 0.12703713E+03</pdfrwt>
<totfact> 0.50789414E+04</totfact>
</mgrwt>
</event>
<event>
 6    3  0.3813045E-003  0.1297817E+03  0.7818608E-02  0.1227780E+00
          4   -1    0    0  502    0 -0.00000000000E+00  0.00000000000E+00  0.37937056565E+02  0.37958308192E+02  0.12700000000E+01 0.  1.
         21   -1    0    0  501  502  0.00000000000E+00 -0.00000000000E+00 -0.20767347867E+03  0.20767347867E+03  0.00000000000E+00 0.  1.
         25    2    1    2    0    0 -0.37555915826E+01 -0.34696531503E+02 -0.88155952494E+02  0.15689092993E+03  0.12500135267E+03 0.  0.
    9000005    1    3    3    0    0  0.12288986772E+02  0.29357111625E+02  0.14372366700E+02  0.34934569175E+02  0.10000000000E+01 0.  0.
    9000005    1    3    3    0    0 -0.16044578355E+02 -0.64053643128E+02 -0.10252831919E+03  0.12195636076E+03  0.10000000000E+01 0.  0.
          4    1    1    2  501    0  0.37555915826E+01  0.34696531503E+02 -0.81580469611E+02  0.88740856929E+02  0.12700000000E+01 0. -1.
<mgrwt>
<rscale>  1 0.12978171E+03</rscale>
<asrwt>0</asrwt>
<pdfrwt beam="2">  1       21 0.31949766E-01 0.12978171E+03</pdfrwt>
<pdfrwt beam="1">  1        4 0.58384037E-02 0.12978171E+03</pdfrwt>
<totfact> 0.70550891E+04</totfact>
</mgrwt>
</event>
<event>
 6    3  0.3813045E-003  0.1269919E+03  0.7818608E-02  0.1231989E+00
         21   -1    0    0  501  502  0.00000000000E+00  0.00000000000E+00  0.23262992389E+02  0.23262992389E+02  0.00000000000E+00 0. -1.
          4   -1    0    0  502    0 -0.00000000000E+00 -0.00000000000E+00 -0.39881023858E+03  0.39881226071E+03  0.12700000000E+01 0.  1.
         25    2    1    2    0    0 -0.55010777308E+01 -0.21726080109E+02 -0.37868335182E+03  0.39940958586E+03  0.12499860765E+03 0.  0.
    9000005    1    3    3    0    0  0.60844569900E+01  0.33749095150E+02 -0.30257526973E+03  0.30451406518E+03  0.10000000000E+01 0.  0.
    9000005    1    3    3    0    0 -0.11585534721E+02 -0.55475175259E+02 -0.76108082088E+02  0.94895520674E+02  0.10000000000E+01 0.  0.
          4    1    1    2  501    0  0.55010777308E+01  0.21726080109E+02  0.31361056319E+01  0.22665667245E+02  0.12700000000E+01 0. -1.
<mgrwt>
<rscale>  1 0.12699188E+03</rscale>
<asrwt>0</asrwt>
<pdfrwt beam="1">  1       21 0.35789221E-02 0.12699188E+03</pdfrwt>
<pdfrwt beam="2">  1        4 0.61358240E-01 0.12699188E+03</pdfrwt>
<totfact> 0.47821250E+04</totfact>
</mgrwt>
</event>
<event>
 6    3  0.3813045E-003  0.1409309E+03  0.7818608E-02  0.1212082E+00
         21   -1    0    0  501  502  0.00000000000E+00  0.00000000000E+00  0.28450767859E+03  0.28450767859E+03  0.00000000000E+00 0. -1.
          4   -1    0    0  502    0 -0.00000000000E+00 -0.00000000000E+00 -0.11033234871E+04  0.11033242180E+04  0.12700000000E+01 0.  1.
         25    2    1    2    0    0 -0.54336212481E+02  0.35827890525E+02 -0.10950242373E+04  0.11040559801E+04  0.12500186064E+03 0.  0.
    9000005    1    3    3    0    0 -0.77859735992E+02  0.63355248262E+02 -0.66832205481E+03  0.67581905487E+03  0.10000000000E+01 0.  0.
    9000005    1    3    3    0    0  0.23523523511E+02 -0.27527357737E+02 -0.42670218253E+03  0.42823692527E+03  0.10000000000E+01 0.  0.
          4    1    1    2  501    0  0.54336212481E+02 -0.35827890525E+02  0.27620842883E+03  0.28377591649E+03  0.12700000000E+01 0. -1.
<mgrwt>
<rscale>  1 0.14093093E+03</rscale>
<asrwt>0</asrwt>
<pdfrwt beam="1">  1       21 0.43770412E-01 0.14093093E+03</pdfrwt>
<pdfrwt beam="2">  1        4 0.16974235E+00 0.14093093E+03</pdfrwt>
<totfact> 0.49265230E+01</totfact>
</mgrwt>
</event>
<event>
 6    3  0.3813045E-003  0.1430501E+03  0.7818608E-02  0.1209283E+00
         -4   -1    0    0    0  501 -0.00000000000E+00  0.00000000000E+00  0.37389646823E+02  0.37411209411E+02  0.12700000000E+01 0.  1.
         21   -1    0    0  501  502  0.00000000000E+00 -0.00000000000E+00 -0.35691369798E+03  0.35691369798E+03  0.00000000000E+00 0. -1.
         25    2    1    2    0    0  0.66208355106E+02 -0.21357897999E+02 -0.13331535309E+03  0.19554110969E+03  0.12499454435E+03 0.  0.
    9000005    1    3    3    0    0 -0.48517074483E+01 -0.60864668838E+02 -0.47883134139E+02  0.77600525210E+02  0.10000000000E+01 0.  0.
    9000005    1    3    3    0    0  0.71060062554E+02  0.39506770839E+02 -0.85432218947E+02  0.11794058448E+03  0.10000000000E+01 0.  0.
         -4    1    1    2    0  502 -0.66208355106E+02  0.21357897999E+02 -0.18620869807E+03  0.19878379771E+03  0.12700000000E+01 0. -1.
<mgrwt>
<rscale>  1 0.14305014E+03</rscale>
<asrwt>0</asrwt>
<pdfrwt beam="2">  1       21 0.54909801E-01 0.14305014E+03</pdfrwt>
<pdfrwt beam="1">  1       -4 0.57540857E-02 0.14305014E+03</pdfrwt>
<totfact> 0.24484537E+04</totfact>
</mgrwt>
</event>
<event>
 6    3  0.3813045E-003  0.1324773E+03  0.7818608E-02  0.1223825E+00
          4   -1    0    0  502    0 -0.00000000000E+00  0.00000000000E+00  0.66076046538E+03  0.66076168587E+03  0.12700000000E+01 0.  1.
         21   -1    0    0  501  502  0.00000000000E+00 -0.00000000000E+00 -0.19546979364E+02  0.19546979364E+02  0.00000000000E+00 0. -1.
         25    2    1    2    0    0  0.23885936254E+02  0.36808450761E+02  0.61515689319E+03  0.62926007144E+03  0.12499933710E+03 0.  0.
    9000005    1    3    3    0    0 -0.90819225412E+01 -0.25204602269E+02  0.43604453880E+03  0.43686793554E+03  0.10000000000E+01 0.  0.
    9000005    1    3    3    0    0  0.32967858795E+02  0.62013053030E+02  0.17911235439E+03  0.19239213590E+03  0.10000000000E+01 0.  0.
          4    1    1    2  501    0 -0.23885936254E+02 -0.36808450761E+02  0.26056592831E+02  0.51048593791E+02  0.12700000000E+01 0. -1.
<mgrwt>
<rscale>  1 0.13247730E+03</rscale>
<asrwt>0</asrwt>
<pdfrwt beam="2">  1       21 0.30072281E-02 0.13247730E+03</pdfrwt>
<pdfrwt beam="1">  1        4 0.10165871E+00 0.13247730E+03</pdfrwt>
<totfact> 0.21026296E+04</totfact>
</mgrwt>
</event>
<event>
 6    3  0.3813045E-003  0.1297465E+03  0.7818608E-02  0.1227832E+00
         21   -1    0    0  501  502  0.00000000000E+00  0.00000000000E+00  0.22263713416E+03  0.22263713416E+03  0.00000000000E+00 0.  1.
          4   -1    0    0  502    0 -0.00000000000E+00 -0.00000000000E+00 -0.38020695293E+03  0.38020907401E+03  0.12700000000E+01 0. -1.
         25    2    1    2    0    0 -0.33843114483E+02 -0.80035560469E+01 -0.36766585706E+03  0.38988759362E+03  0.12499895960E+03 0.  0.
    9000005    1    3    3    0    0 -0.74194882138E+02  0.20353183626E+02 -0.17812121153E+03  0.19402911796E+03  0.10000000000E+01 0.  0.
    9000005    1    3    3    0    0  0.40351767655E+02 -0.28356739673E+02 -0.18954464552E+03  0.19585847565E+03  0.10000000000E+01 0.  0.
          4    1    1    2  501    0  0.33843114483E+02  0.80035560469E+01  0.21009603829E+03  0.21295861455E+03  0.12700000000E+01 0.  1.
<mgrwt>
<rscale>  1 0.12974650E+03</rscale>
<asrwt>0</asrwt>
<pdfrwt beam="1">  1       21 0.34251867E-01 0.12974650E+03</pdfrwt>
<pdfrwt beam="2">  1        4 0.58493819E-01 0.12974650E+03</pdfrwt>
<totfact> 0.95944231E+02</totfact>
</mgrwt>
</event>
<event>
 6    3  0.3813045E-003  0.1267020E+03  0.7818608E-02  0.1232433E+00
         -4   -1    0    0    0  501 -0.00000000000E+00  0.00000000000E+00  0.12220858047E+03  0.12221517926E+03  0.12700000000E+01 0.  1.
         21   -1    0    0  501  502  0.00000000000E+00 -0.00000000000E+00 -0.50655625105E+02  0.50655625105E+02  0.00000000000E+00 0.  1.
         25    2    1    2    0    0  0.25768693208E+01  0.20561812149E+02  0.80661847238E+02  0.15019894547E+03  0.12499584492E+03 0.  0.
    9000005    1    3    3    0    0  0.17834836912E+02  0.55156109545E+02  0.93704956796E+02  0.11019027523E+03  0.10000000000E+01 0.  0.
    9000005    1    3    3    0    0 -0.15257967592E+02 -0.34594297396E+02 -0.13043109558E+02  0.40008670239E+02  0.10000000000E+01 0.  0.
         -4    1    1    2    0  502 -0.25768693208E+01 -0.20561812149E+02 -0.91088918734E+01  0.22671858889E+02  0.12700000000E+01 0. -1.
<mgrwt>
<rscale>  1 0.12670197E+03</rscale>
<asrwt>0</asrwt>
<pdfrwt beam="2">  1       21 0.77931731E-02 0.12670197E+03</pdfrwt>
<pdfrwt beam="1">  1       -4 0.18803052E-01 0.12670197E+03</pdfrwt>
<totfact> 0.12598287E+05</totfact>
</mgrwt>
</event>
<event>
 6    3  0.3813045E-003  0.1280612E+03  0.7818608E-02  0.1230361E+00
         21   -1    0    0  501  502  0.00000000000E+00  0.00000000000E+00  0.81604263806E+01  0.81604263806E+01  0.00000000000E+00 0. -1.
          4   -1    0    0  502    0 -0.00000000000E+00 -0.00000000000E+00 -0.74795373200E+03  0.74795481020E+03  0.12700000000E+01 0. -1.
         25    2    1    2    0    0  0.20979780075E+02 -0.18285203370E+02 -0.58755862170E+03  0.60135247710E+03  0.12500067181E+03 0.  0.
    9000005    1    3    3    0    0 -0.25564127446E+02  0.31902171260E+02 -0.86963635002E+02  0.96098631394E+02  0.10000000000E+01 0.  0.
    9000005    1    3    3    0    0  0.46543907520E+02 -0.50187374630E+02 -0.50059498670E+03  0.50525384571E+03  0.10000000000E+01 0.  0.
          4    1    1    2  501    0 -0.20979780075E+02  0.18285203370E+02 -0.15223468392E+03  0.15476275948E+03  0.12700000000E+01 0.  1.
<mgrwt>
<rscale>  1 0.12806119E+03</rscale>
<asrwt>0</asrwt>
<pdfrwt beam="1">  1       21 0.12554504E-02 0.12806119E+03</pdfrwt>
<pdfrwt beam="2">  1        4 0.11507747E+00 0.12806119E+03</pdfrwt>
<totfact> 0.64022235E+04</totfact>
</mgrwt>
</event>
<event>
 6    3  0.3813045E-003  0.1308662E+03  0.7818608E-02  0.1226176E+00
          4   -1    0    0  502    0 -0.00000000000E+00  0.00000000000E+00  0.44052241451E+02  0.44070544322E+02  0.12700000000E+01 0.  1.
         21   -1    0    0  501  502  0.00000000000E+00 -0.00000000000E+00 -0.19153828100E+03  0.19153828100E+03  0.00000000000E+00 0.  1.
         25    2    1    2    0    0 -0.38338075477E+02  0.55714702520E+01 -0.68697205936E+02  0.14780140813E+03  0.12500040332E+03 0.  0.
    9000005    1    3    3    0    0 -0.61837567889E+01 -0.46719462772E-01  0.36818537342E+02  0.37347633429E+02  0.10000000000E+01 0.  0.
    9000005    1    3    3    0    0 -0.32154318688E+02  0.56181897148E+01 -0.10551574328E+03  0.11045377470E+03  0.10000000000E+01 0.  0.
          4    1    1    2  501    0  0.38338075477E+02 -0.55714702520E+01 -0.78788833608E+02  0.87807417189E+02  0.12700000000E+01 0. -1.
<mgrwt>
<rscale>  1 0.13086615E+03</rscale>
<asrwt>0</asrwt>
<pdfrwt beam="2">  1       21 0.29467427E-01 0.13086615E+03</pdfrwt>
<pdfrwt beam="1">  1        4 0.67789998E-02 0.13086615E+03</pdfrwt>
<totfact> 0.64749549E+04</totfact>
</mgrwt>
</event>
<event>
 6    3  0.3813045E-003  0.1607155E+03  0.7818608E-02  0.1187891E+00
         21   -1    0    0  501  502  0.00000000000E+00  0.00000000000E+00  0.21945626726E+03  0.21945626726E+03  0.00000000000E+00 0. -1.
         -4   -1    0    0    0  501 -0.00000000000E+00 -0.00000000000E+00 -0.87176678115E+02  0.87185928378E+02  0.12700000000E+01 0. -1.
         25    2    1    2    0    0 -0.76188259629E+02 -0.66333175891E+02  0.12811341728E+03  0.20552982737E+03  0.12499888449E+03 0.  0.
    9000005    1    3    3    0    0 -0.52829650427E+02 -0.10281111977E+03  0.78864265038E+02  0.13993452259E+03  0.10000000000E+01 0.  0.
    9000005    1    3    3    0    0 -0.23358609201E+02  0.36477943877E+02  0.49249152239E+02  0.65595304783E+02  0.10000000000E+01 0.  0.
         -4    1    1    2    0  502  0.76188259629E+02  0.66333175891E+02  0.41661718711E+01  0.10111236827E+03  0.12700000000E+01 0.  1.
<mgrwt>
<rscale>  1 0.16071547E+03</rscale>
<asrwt>0</asrwt>
<pdfrwt beam="1">  1       21 0.33762503E-01 0.16071547E+03</pdfrwt>
<pdfrwt beam="2">  1       -4 0.13412791E-01 0.16071547E+03</pdfrwt>
<totfact> 0.16089790E+04</totfact>
</mgrwt>
</event>
<event>
 6    3  0.3813045E-003  0.1273719E+03  0.7818608E-02  0.1231408E+00
          4   -1    0    0  502    0 -0.00000000000E+00  0.00000000000E+00  0.14899876770E+03  0.14900418007E+03  0.12700000000E+01 0.  1.
         21   -1    0    0  501  502  0.00000000000E+00 -0.00000000000E+00 -0.39398500608E+02  0.39398500608E+02  0.00000000000E+00 0.  1.
         25    2    1    2    0    0  0.66913827384E+01  0.23592658911E+02  0.82121392049E+02  0.15155041302E+03  0.12498886549E+03 0.  0.
    9000005    1    3    3    0    0  0.30426406106E+02  0.44134378947E+02  0.10139826957E+03  0.11470056087E+03  0.10000000000E+01 0.  0.
    9000005    1    3    3    0    0 -0.23735023368E+02 -0.20541720036E+02 -0.19276877518E+02  0.36849852145E+02  0.10000000000E+01 0.  0.
          4    1    1    2  501    0 -0.66913827384E+01 -0.23592658911E+02  0.27478875048E+02  0.36852267655E+02  0.12700000000E+01 0. -1.
<mgrwt>
<rscale>  1 0.12737191E+03</rscale>
<asrwt>0</asrwt>
<pdfrwt beam="2">  1       21 0.60613079E-02 0.12737191E+03</pdfrwt>
<pdfrwt beam="1">  1        4 0.22924878E-01 0.12737191E+03</pdfrwt>
<totfact> 0.13546112E+05</totfact>
</mgrwt>
</event>
<event>
 6    3  0.3813045E-003  0.1287679E+03  0.7818608E-02  0.1229296E+00
         21   -1    0    0  501  502  0.00000000000E+00  0.00000000000E+00  0.67605335989E+02  0.67605335989E+02  0.00000000000E+00 0. -1.
          4   -1    0    0  502    0 -0.00000000000E+00 -0.00000000000E+00 -0.29233359479E+03  0.29233635344E+03  0.12700000000E+01 0.  1.
         25    2    1    2    0    0 -0.12917519231E+02  0.28123980145E+02 -0.27342471733E+03  0.30222879195E+03  0.12499338414E+03 0.  0.
    9000005    1    3    3    0    0  0.49166535586E+02  0.37064068072E+02 -0.96125551812E+02  0.11415872755E+03  0.10000000000E+01 0.  0.
    9000005    1    3    3    0    0 -0.62084054818E+02 -0.89400879273E+01 -0.17729916551E+03  0.18807006441E+03  0.10000000000E+01 0.  0.
          4    1    1    2  501    0  0.12917519231E+02 -0.28123980145E+02  0.48696458524E+02  0.57712897476E+02  0.12700000000E+01 0. -1.
<mgrwt>
<rscale>  1 0.12876788E+03</rscale>
<asrwt>0</asrwt>
<pdfrwt beam="1">  1       21 0.10400821E-01 0.12876788E+03</pdfrwt>
<pdfrwt beam="2">  1        4 0.44975529E-01 0.12876788E+03</pdfrwt>
<totfact> 0.14789115E+04</totfact>
</mgrwt>
</event>
<event>
 6    3  0.3813045E-003  0.1289653E+03  0.7818608E-02  0.1228999E+00
         21   -1    0    0  501  502  0.00000000000E+00  0.00000000000E+00  0.10954316230E+03  0.10954316230E+03  0.00000000000E+00 0. -1.
          4   -1    0    0  502    0 -0.00000000000E+00 -0.00000000000E+00 -0.90721652818E+02  0.90730541660E+02  0.12700000000E+01 0.  1.
         25    2    1    2    0    0 -0.10743899463E+02  0.29889846606E+02 -0.38619635888E+02  0.13462362866E+03  0.12499284304E+03 0.  0.
    9000005    1    3    3    0    0 -0.23107211032E+02 -0.12087116547E+01  0.41647194548E+02  0.47653887557E+02  0.10000000000E+01 0.  0.
    9000005    1    3    3    0    0  0.12363311569E+02  0.31098558260E+02 -0.80266830436E+02  0.86969741101E+02  0.10000000000E+01 0.  0.
          4    1    1    2  501    0  0.10743899463E+02 -0.29889846606E+02  0.57441145366E+02  0.65650075299E+02  0.12700000000E+01 0. -1.
<mgrwt>
<rscale>  1 0.12896529E+03</rscale>
<asrwt>0</asrwt>
<pdfrwt beam="1">  1       21 0.16852794E-01 0.12896529E+03</pdfrwt>
<pdfrwt beam="2">  1        4 0.13958428E-01 0.12896529E+03</pdfrwt>
<totfact> 0.54556743E+04</totfact>
</mgrwt>
</event>
<event>
 6    3  0.3813045E-003  0.1353474E+03  0.7818608E-02  0.1219730E+00
         21   -1    0    0  501  502  0.00000000000E+00  0.00000000000E+00  0.54514003184E+03  0.54514003184E+03  0.00000000000E+00 0. -1.
         -4   -1    0    0    0  501 -0.00000000000E+00 -0.00000000000E+00 -0.49445714961E+02  0.49462022078E+02  0.12700000000E+01 0.  1.
         25    2    1    2    0    0  0.51709686488E+02 -0.44801407681E+01  0.47545121313E+02  0.14345542839E+03  0.12499983214E+03 0.  0.
    9000005    1    3    3    0    0  0.75115168853E+01  0.57680106325E+02  0.12460190060E+02  0.59495158525E+02  0.10000000000E+01 0.  0.
    9000005    1    3    3    0    0  0.44198169603E+02 -0.62160247093E+02  0.35084931253E+02  0.83960269866E+02  0.10000000000E+01 0.  0.
         -4    1    1    2    0  502 -0.51709686488E+02  0.44801407681E+01  0.44814919556E+03  0.45114662552E+03  0.12700000000E+01 0. -1.
<mgrwt>
<rscale>  1 0.13534741E+03</rscale>
<asrwt>0</asrwt>
<pdfrwt beam="1">  1       21 0.83867693E-01 0.13534741E+03</pdfrwt>
<pdfrwt beam="2">  1       -4 0.76084016E-02 0.13534741E+03</pdfrwt>
<totfact> 0.61461087E+03</totfact>
</mgrwt>
</event>
<event>
 6    3  0.3813045E-003  0.1328128E+03  0.7818608E-02  0.1223341E+00
         21   -1    0    0  501  502  0.00000000000E+00  0.00000000000E+00  0.28552810600E+02  0.28552810600E+02  0.00000000000E+00 0.  1.
         -4   -1    0    0    0  501 -0.00000000000E+00 -0.00000000000E+00 -0.34438549771E+03  0.34438783941E+03  0.12700000000E+01 0.  1.
         25    2    1    2    0    0 -0.38383735815E+02  0.23257146846E+02 -0.14642973295E+03  0.19768888872E+03  0.12500009592E+03 0.  0.
    9000005    1    3    3    0    0  0.27257329155E+02 -0.90436699613E+00  0.77601128296E+01  0.28372508233E+02  0.10000000000E+01 0.  0.
    9000005    1    3    3    0    0 -0.65641064970E+02  0.24161513843E+02 -0.15418984578E+03  0.16931638049E+03  0.10000000000E+01 0.  0.
         -4    1    1    2    0  502  0.38383735815E+02 -0.23257146846E+02 -0.16940295417E+03  0.17525176129E+03  0.12700000000E+01 0. -1.
<mgrwt>
<rscale>  1 0.13281276E+03</rscale>
<asrwt>0</asrwt>
<pdfrwt beam="1">  1       21 0.43927403E-02 0.13281276E+03</pdfrwt>
<pdfrwt beam="2">  1       -4 0.52984735E-01 0.13281276E+03</pdfrwt>
<totfact> 0.46446107E+04</totfact>
</mgrwt>
</event>
<event>
 6    3  0.3813045E-003  0.1271187E+03  0.7818608E-02  0.1231795E+00
         -4   -1    0    0    0  501 -0.00000000000E+00  0.00000000000E+00  0.11269727859E+04  0.11269735015E+04  0.12700000000E+01 0.  1.
         21   -1    0    0  501  502  0.00000000000E+00 -0.00000000000E+00 -0.67289334606E+01  0.67289334606E+01  0.00000000000E+00 0. -1.
         25    2    1    2    0    0 -0.11669929796E+02 -0.19948323428E+02  0.10785454554E+04  0.10860107996E+04  0.12500013819E+03 0.  0.
    9000005    1    3    3    0    0  0.27331140141E+02 -0.52113975115E+02  0.29373793567E+03  0.29957608796E+03  0.10000000000E+01 0.  0.
    9000005    1    3    3    0    0 -0.39001069937E+02  0.32165651687E+02  0.78480751976E+03  0.78643471164E+03  0.10000000000E+01 0.  0.
         -4    1    1    2    0  502  0.11669929796E+02  0.19948323428E+02  0.41698396988E+02  0.47691635330E+02  0.12700000000E+01 0. -1.
<mgrwt>
<rscale>  1 0.12711867E+03</rscale>
<asrwt>0</asrwt>
<pdfrwt beam="2">  1       21 0.10352214E-02 0.12711867E+03</pdfrwt>
<pdfrwt beam="1">  1       -4 0.17338955E+00 0.12711867E+03</pdfrwt>
<totfact> 0.31044536E+04</totfact>
</mgrwt>
</event>
<event>
 6    3  0.3813045E-003  0.1308186E+03  0.7818608E-02  0.1226246E+00
         -4   -1    0    0    0  501 -0.00000000000E+00  0.00000000000E+00  0.22936497329E+04  0.22936500845E+04  0.12700000000E+01 0.  1.
         21   -1    0    0  501  502  0.00000000000E+00 -0.00000000000E+00 -0.92560455833E+01  0.92560455833E+01  0.00000000000E+00 0. -1.
         25    2    1    2    0    0  0.35329666801E+02 -0.15497265544E+02  0.22410548281E+04  0.22448697603E+04  0.12500059071E+03 0.  0.
    9000005    1    3    3    0    0 -0.22790223380E+02 -0.53371234286E+02  0.77273619071E+03  0.77491296502E+03  0.10000000000E+01 0.  0.
    9000005    1    3    3    0    0  0.58119890181E+02  0.37873968742E+02  0.14683186374E+04  0.14699567953E+04  0.10000000000E+01 0.  0.
         -4    1    1    2    0  502 -0.35329666801E+02  0.15497265544E+02  0.43338859184E+02  0.58036369726E+02  0.12700000000E+01 0. -1.
<mgrwt>
<rscale>  1 0.13081857E+03</rscale>
<asrwt>0</asrwt>
<pdfrwt beam="2">  1       21 0.14240088E-02 0.13081857E+03</pdfrwt>
<pdfrwt beam="1">  1       -4 0.35287547E+00 0.13081857E+03</pdfrwt>
<totfact> 0.16064943E+03</totfact>
</mgrwt>
</event>
<event>
 6    3  0.3813045E-003  0.1279643E+03  0.7818608E-02  0.1230508E+00
          4   -1    0    0  502    0 -0.00000000000E+00  0.00000000000E+00  0.80353307477E+01  0.81350746908E+01  0.12700000000E+01 0. -1.
         21   -1    0    0  501  502  0.00000000000E+00 -0.00000000000E+00 -0.76018939366E+03  0.76018939366E+03  0.00000000000E+00 0. -1.
         25    2    1    2    0    0  0.13687561809E+02 -0.23734135301E+02 -0.57559526485E+03  0.58964799928E+03  0.12499678240E+03 0.  0.
    9000005    1    3    3    0    0  0.49704809881E+02  0.86877846773E+01 -0.47822247417E+03  0.48087813480E+03  0.10000000000E+01 0.  0.
    9000005    1    3    3    0    0 -0.36017248072E+02 -0.32421919978E+02 -0.97372790674E+02  0.10876986447E+03  0.10000000000E+01 0.  0.
          4    1    1    2  501    0 -0.13687561809E+02  0.23734135301E+02 -0.17655879806E+03  0.17867646907E+03  0.12700000000E+01 0.  1.
<mgrwt>
<rscale>  1 0.12796427E+03</rscale>
<asrwt>0</asrwt>
<pdfrwt beam="2">  1       21 0.11695216E+00 0.12796427E+03</pdfrwt>
<pdfrwt beam="1">  1        4 0.12439595E-02 0.12796427E+03</pdfrwt>
<totfact> 0.48505080E+04</totfact>
</mgrwt>
</event>
<event>
 6    3  0.3813045E-003  0.1272473E+03  0.7818608E-02  0.1231598E+00
         21   -1    0    0  501  502  0.00000000000E+00  0.00000000000E+00  0.46518861853E+02  0.46518861853E+02  0.00000000000E+00 0.  1.
          4   -1    0    0  502    0 -0.00000000000E+00 -0.00000000000E+00 -0.76651829437E+03  0.76651934646E+03  0.12700000000E+01 0. -1.
         25    2    1    2    0    0  0.50279933459E+01 -0.23241404506E+02 -0.75777437803E+03  0.76838394750E+03  0.12500575655E+03 0.  0.
    9000005    1    3    3    0    0  0.61784508286E+01  0.34841845829E+02 -0.72807533490E+02  0.80957176386E+02  0.10000000000E+01 0.  0.
    9000005    1    3    3    0    0 -0.11504574827E+01 -0.58083250334E+02 -0.68496684454E+03  0.68742677111E+03  0.10000000000E+01 0.  0.
          4    1    1    2  501    0 -0.50279933459E+01  0.23241404506E+02  0.37774945515E+02  0.44654260817E+02  0.12700000000E+01 0.  1.
<mgrwt>
<rscale>  1 0.12724733E+03</rscale>
<asrwt>0</asrwt>
<pdfrwt beam="1">  1       21 0.71567483E-02 0.12724733E+03</pdfrwt>
<pdfrwt beam="2">  1        4 0.11792730E+00 0.12724733E+03</pdfrwt>
<totfact> 0.34591900E+03</totfact>
</mgrwt>
</event>
<event>
 6    3  0.3813045E-003  0.1269166E+03  0.7818608E-02  0.1232104E+00
          4   -1    0    0  502    0 -0.00000000000E+00  0.00000000000E+00  0.26598687934E+03  0.26598991124E+03  0.12700000000E+01 0. -1.
         21   -1    0    0  501  502  0.00000000000E+00 -0.00000000000E+00 -0.34435990958E+02  0.34435990958E+02  0.00000000000E+00 0.  1.
         25    2    1    2    0    0 -0.88534567766E+01  0.20117127261E+02  0.24407235692E+03  0.27509839580E+03  0.12499891780E+03 0.  0.
    9000005    1    3    3    0    0  0.18495459072E+02  0.66537810618E+02  0.10232448000E+03  0.12345307390E+03  0.10000000000E+01 0.  0.
    9000005    1    3    3    0    0 -0.27348915849E+02 -0.46420683357E+02  0.14174787692E+03  0.15164532190E+03  0.10000000000E+01 0.  0.
          4    1    1    2  501    0  0.88534567766E+01 -0.20117127261E+02 -0.12521468539E+02  0.25327506401E+02  0.12700000000E+01 0.  1.
<mgrwt>
<rscale>  1 0.12691656E+03</rscale>
<asrwt>0</asrwt>
<pdfrwt beam="2">  1       21 0.52978450E-02 0.12691656E+03</pdfrwt>
<pdfrwt beam="1">  1        4 0.40923092E-01 0.12691656E+03</pdfrwt>
<totfact> 0.56710758E+04</totfact>
</mgrwt>
</event>
<event>
 6    3  0.3813045E-003  0.1312100E+03  0.7818608E-02  0.1225671E+00
         21   -1    0    0  501  502  0.00000000000E+00  0.00000000000E+00  0.42450334141E+02  0.42450334141E+02  0.00000000000E+00 0.  1.
         -4   -1    0    0    0  501 -0.00000000000E+00 -0.00000000000E+00 -0.17382320061E+03  0.17382784004E+03  0.12700000000E+01 0.  1.
         25    2    1    2    0    0  0.12425151189E+02  0.37899821819E+02 -0.10866521698E+03  0.17036487413E+03  0.12500112031E+03 0.  0.
    9000005    1    3    3    0    0 -0.62816832784E+01  0.63386388596E+02 -0.12073379942E+03  0.13650986824E+03  0.10000000000E+01 0.  0.
    9000005    1    3    3    0    0  0.18706834467E+02 -0.25486566777E+02  0.12068582436E+02  0.33855005891E+02  0.10000000000E+01 0.  0.
         -4    1    1    2    0  502 -0.12425151189E+02 -0.37899821819E+02 -0.22707649490E+02  0.45913300048E+02  0.12700000000E+01 0. -1.
<mgrwt>
<rscale>  1 0.13120999E+03</rscale>
<asrwt>0</asrwt>
<pdfrwt beam="1">  1       21 0.65308206E-02 0.13120999E+03</pdfrwt>
<pdfrwt beam="2">  1       -4 0.26743849E-01 0.13120999E+03</pdfrwt>
<totfact> 0.90231246E+04</totfact>
</mgrwt>
</event>
<event>
 6    3  0.3813045E-003  0.1284484E+03  0.7818608E-02  0.1229776E+00
         21   -1    0    0  501  502  0.00000000000E+00  0.00000000000E+00  0.62966760019E+02  0.62966760019E+02  0.00000000000E+00 0.  1.
         -4   -1    0    0    0  501 -0.00000000000E+00 -0.00000000000E+00 -0.11928379336E+03  0.11929055394E+03  0.12700000000E+01 0. -1.
         25    2    1    2    0    0 -0.48557462435E+01 -0.29162896968E+02 -0.73547908862E+02  0.14801452198E+03  0.12499980396E+03 0.  0.
    9000005    1    3    3    0    0 -0.56630818923E+02  0.84504630526E+01 -0.10592253827E+02  0.58237924232E+02  0.10000000000E+01 0.  0.
    9000005    1    3    3    0    0  0.51775072680E+02 -0.37613360020E+02 -0.62955655035E+02  0.89776597752E+02  0.10000000000E+01 0.  0.
         -4    1    1    2    0  502  0.48557462435E+01  0.29162896968E+02  0.17230875518E+02  0.34242791975E+02  0.12700000000E+01 0.  1.
<mgrwt>
<rscale>  1 0.12844845E+03</rscale>
<asrwt>0</asrwt>
<pdfrwt beam="1">  1       21 0.96871940E-02 0.12844845E+03</pdfrwt>
<pdfrwt beam="2">  1       -4 0.18352858E-01 0.12844845E+03</pdfrwt>
<totfact> 0.90410235E+04</totfact>
</mgrwt>
</event>
<event>
 6    3  0.3813045E-003  0.1274049E+03  0.7818608E-02  0.1231358E+00
         21   -1    0    0  501  502  0.00000000000E+00  0.00000000000E+00  0.73092904620E+02  0.73092904620E+02  0.00000000000E+00 0. -1.
          4   -1    0    0  502    0 -0.00000000000E+00 -0.00000000000E+00 -0.17207746229E+03  0.17208214878E+03  0.12700000000E+01 0. -1.
         25    2    1    2    0    0  0.23621543160E+01  0.24471466217E+02 -0.14498008860E+03  0.19300576935E+03  0.12501027350E+03 0.  0.
    9000005    1    3    3    0    0  0.46167186586E+02 -0.15015292084E+02 -0.11905371274E+03  0.12857548223E+03  0.10000000000E+01 0.  0.
    9000005    1    3    3    0    0 -0.43805032270E+02  0.39486758301E+02 -0.25926375862E+02  0.64430287122E+02  0.10000000000E+01 0.  0.
          4    1    1    2  501    0 -0.23621543160E+01 -0.24471466217E+02  0.45995530934E+02  0.52169284044E+02  0.12700000000E+01 0.  1.
<mgrwt>
<rscale>  1 0.12740487E+03</rscale>
<asrwt>0</asrwt>
<pdfrwt beam="1">  1       21 0.11245062E-01 0.12740487E+03</pdfrwt>
<pdfrwt beam="2">  1        4 0.26474664E-01 0.12740487E+03</pdfrwt>
<totfact> 0.35726570E+04</totfact>
</mgrwt>
</event>
<event>
 6    3  0.3813045E-003  0.1382221E+03  0.7818608E-02  0.1215742E+00
         -4   -1    0    0    0  501 -0.00000000000E+00  0.00000000000E+00  0.30177341889E+03  0.30177609125E+03  0.12700000000E+01 0. -1.
         21   -1    0    0  501  502  0.00000000000E+00 -0.00000000000E+00 -0.65058661523E+02  0.65058661523E+02  0.00000000000E+00 0. -1.
         25    2    1    2    0    0  0.57622835931E+02  0.12632585462E+02  0.26689205964E+03  0.30056065596E+03  0.12500145188E+03 0.  0.
    9000005    1    3    3    0    0  0.70665836967E+02 -0.30250346049E+02  0.22997560080E+03  0.24248406322E+03  0.10000000000E+01 0.  0.
    9000005    1    3    3    0    0 -0.13043001036E+02  0.42882931511E+02  0.36916458846E+02  0.58076592744E+02  0.10000000000E+01 0.  0.
         -4    1    1    2    0  502 -0.57622835931E+02 -0.12632585462E+02 -0.30177302274E+02  0.66274096816E+02  0.12700000000E+01 0.  1.
<mgrwt>
<rscale>  1 0.13822205E+03</rscale>
<asrwt>0</asrwt>
<pdfrwt beam="2">  1       21 0.10009025E-01 0.13822205E+03</pdfrwt>
<pdfrwt beam="1">  1       -4 0.46427838E-01 0.13822205E+03</pdfrwt>
<totfact> 0.14943674E+04</totfact>
</mgrwt>
</event>
<event>
 6    3  0.3813045E-003  0.1277658E+03  0.7818608E-02  0.1230809E+00
          4   -1    0    0  502    0 -0.00000000000E+00  0.00000000000E+00  0.46693665022E+01  0.48389961285E+01  0.12700000000E+01 0. -1.
         21   -1    0    0  501  502  0.00000000000E+00 -0.00000000000E+00 -0.12523844017E+04  0.12523844017E+04  0.00000000000E+00 0. -1.
         25    2    1    2    0    0 -0.24068663820E+02  0.10820598129E+02 -0.10126073956E+04  0.10206359911E+04  0.12501081072E+03 0.  0.
    9000005    1    3    3    0    0  0.42451318619E+02  0.30357136303E+02 -0.59769597062E+03  0.59997095219E+03  0.10000000000E+01 0.  0.
    9000005    1    3    3    0    0 -0.66519982440E+02 -0.19536538174E+02 -0.41491142494E+03  0.42066503888E+03  0.10000000000E+01 0.  0.
          4    1    1    2  501    0  0.24068663820E+02 -0.10820598129E+02 -0.23510763967E+03  0.23658740679E+03  0.12700000000E+01 0.  1.
<mgrwt>
<rscale>  1 0.12776576E+03</rscale>
<asrwt>0</asrwt>
<pdfrwt beam="2">  1       21 0.19267446E+00 0.12776576E+03</pdfrwt>
<pdfrwt beam="1">  1        4 0.73146227E-03 0.12776576E+03</pdfrwt>
<totfact> 0.29315415E+04</totfact>
</mgrwt>
</event>
<event>
 6    3  0.3813045E-003  0.1266709E+03  0.7818608E-02  0.1232481E+00
         21   -1    0    0  501  502  0.00000000000E+00  0.00000000000E+00  0.15756113785E+04  0.15756113785E+04  0.00000000000E+00 0. -1.
          4   -1    0    0  502    0 -0.00000000000E+00 -0.00000000000E+00 -0.41468496684E+01  0.43369646266E+01  0.12700000000E+01 0. -1.
         25    2    1    2    0    0  0.17164606297E+02  0.11207054319E+02  0.98331660561E+03  0.99144191642E+03  0.12500122002E+03 0.  0.
    9000005    1    3    3    0    0 -0.49148864243E+02 -0.14671418642E+02  0.54170875618E+03  0.54413255545E+03  0.10000000000E+01 0.  0.
    9000005    1    3    3    0    0  0.66313470540E+02  0.25878472961E+02  0.44160784942E+03  0.44730936097E+03  0.10000000000E+01 0.  0.
          4    1    1    2  501    0 -0.17164606297E+02 -0.11207054319E+02  0.58814792318E+03  0.58850642665E+03  0.12700000000E+01 0.  1.
<mgrwt>
<rscale>  1 0.12667094E+03</rscale>
<asrwt>0</asrwt>
<pdfrwt beam="1">  1       21 0.24240128E+00 0.12667094E+03</pdfrwt>
<pdfrwt beam="2">  1        4 0.65264173E-03 0.12667094E+03</pdfrwt>
<totfact> 0.17371941E+04</totfact>
</mgrwt>
</event>
<event>
 6    3  0.3813045E-003  0.1281855E+03  0.7818608E-02  0.1230173E+00
         -4   -1    0    0    0  501 -0.00000000000E+00  0.00000000000E+00  0.77846046714E+02  0.77856405574E+02  0.12700000000E+01 0.  1.
         21   -1    0    0  501  502  0.00000000000E+00 -0.00000000000E+00 -0.15889950786E+03  0.15889950786E+03  0.00000000000E+00 0. -1.
         25    2    1    2    0    0  0.20250288849E+02 -0.19862935677E+02  0.21825700048E+02  0.13003035361E+03  0.12500768482E+03 0.  0.
    9000005    1    3    3    0    0 -0.47460589720E+02  0.16962755856E+02  0.20597711900E+01  0.50452802897E+02  0.10000000000E+01 0.  0.
    9000005    1    3    3    0    0  0.67710878570E+02 -0.36825691533E+02  0.19765928858E+02  0.79577550711E+02  0.10000000000E+01 0.  0.
         -4    1    1    2    0  502 -0.20250288849E+02  0.19862935677E+02 -0.10287916120E+03  0.10672555983E+03  0.12700000000E+01 0. -1.
<mgrwt>
<rscale>  1 0.12818554E+03</rscale>
<asrwt>0</asrwt>
<pdfrwt beam="2">  1       21 0.24446078E-01 0.12818554E+03</pdfrwt>
<pdfrwt beam="1">  1       -4 0.11977502E-01 0.12818554E+03</pdfrwt>
<totfact> 0.35625268E+04</totfact>
</mgrwt>
</event>
<event>
 6    3  0.3813045E-003  0.1276879E+03  0.7818608E-02  0.1230927E+00
         21   -1    0    0  501  502  0.00000000000E+00  0.00000000000E+00  0.63714353122E+02  0.63714353122E+02  0.00000000000E+00 0. -1.
         -4   -1    0    0    0  501 -0.00000000000E+00 -0.00000000000E+00 -0.10030089708E+03  0.10030893706E+03  0.12700000000E+01 0.  1.
         25    2    1    2    0    0 -0.18138948393E+02  0.18731331296E+02 -0.46795374086E+02  0.13599264029E+03  0.12499722779E+03 0.  0.
    9000005    1    3    3    0    0 -0.38505226828E+01  0.44168498885E+02  0.30196756067E+02  0.53651904865E+02  0.10000000000E+01 0.  0.
    9000005    1    3    3    0    0 -0.14288425711E+02 -0.25437167589E+02 -0.76992130153E+02  0.82340735422E+02  0.10000000000E+01 0.  0.
         -4    1    1    2    0  502  0.18138948393E+02 -0.18731331296E+02  0.10208830132E+02  0.28030649896E+02  0.12700000000E+01 0. -1.
<mgrwt>
<rscale>  1 0.12768787E+03</rscale>
<asrwt>0</asrwt>
<pdfrwt beam="1">  1       21 0.98022082E-02 0.12768787E+03</pdfrwt>
<pdfrwt beam="2">  1       -4 0.15432499E-01 0.12768787E+03</pdfrwt>
<totfact> 0.12013205E+05</totfact>
</mgrwt>
</event>
<event>
 6    3  0.3813045E-003  0.1280353E+03  0.7818608E-02  0.1230400E+00
         21   -1    0    0  501  502  0.00000000000E+00  0.00000000000E+00  0.15251588464E+04  0.15251588464E+04  0.00000000000E+00 0. -1.
          4   -1    0    0  502    0 -0.00000000000E+00 -0.00000000000E+00 -0.38798526933E+01  0.40824204735E+01  0.12700000000E+01 0. -1.
         25    2    1    2    0    0  0.20544662756E+02  0.18591782481E+02  0.12315116360E+04  0.12381494051E+04  0.12500120804E+03 0.  0.
    9000005    1    3    3    0    0 -0.42553412409E+02 -0.22104138941E+02  0.65751278452E+03  0.65925977253E+03  0.10000000000E+01 0.  0.
    9000005    1    3    3    0    0  0.63098075165E+02  0.40695921422E+02  0.57399885152E+03  0.57888963254E+03  0.10000000000E+01 0.  0.
          4    1    1    2  501    0 -0.20544662756E+02 -0.18591782481E+02  0.28976735767E+03  0.29109186182E+03  0.12700000000E+01 0.  1.
<mgrwt>
<rscale>  1 0.12803531E+03</rscale>
<asrwt>0</asrwt>
<pdfrwt beam="1">  1       21 0.23463936E+00 0.12803531E+03</pdfrwt>
<pdfrwt beam="2">  1        4 0.61252444E-03 0.12803531E+03</pdfrwt>
<totfact> 0.21182069E+04</totfact>
</mgrwt>
</event>
<event>
 6    3  0.3813045E-003  0.1453718E+03  0.7818608E-02  0.1206278E+00
         -4   -1    0    0    0  501 -0.00000000000E+00  0.00000000000E+00  0.83546681952E+02  0.83556334082E+02  0.12700000000E+01 0. -1.
         21   -1    0    0  501  502  0.00000000000E+00 -0.00000000000E+00 -0.14510036728E+03  0.14510036728E+03  0.00000000000E+00 0.  1.
         25    2    1    2    0    0 -0.58728369241E+02 -0.45376051169E+02 -0.48787264681E+02  0.15334002479E+03  0.12499983453E+03 0.  0.
    9000005    1    3    3    0    0 -0.40860738935E+02  0.24793649858E+02 -0.63461539395E+02  0.79452451453E+02  0.10000000000E+01 0.  0.
    9000005    1    3    3    0    0 -0.17867630306E+02 -0.70169701027E+02  0.14674274714E+02  0.73887573335E+02  0.10000000000E+01 0.  0.
         -4    1    1    2    0  502  0.58728369241E+02  0.45376051169E+02 -0.12766420643E+02  0.75316676570E+02  0.12700000000E+01 0.  1.
<mgrwt>
<rscale>  1 0.14537182E+03</rscale>
<asrwt>0</asrwt>
<pdfrwt beam="2">  1       21 0.22323133E-01 0.14537182E+03</pdfrwt>
<pdfrwt beam="1">  1       -4 0.12854506E-01 0.14537182E+03</pdfrwt>
<totfact> 0.37945003E+04</totfact>
</mgrwt>
</event>
<event>
 6    3  0.3813045E-003  0.1286880E+03  0.7818608E-02  0.1229416E+00
         -4   -1    0    0    0  501 -0.00000000000E+00  0.00000000000E+00  0.39007023810E+03  0.39007230555E+03  0.12700000000E+01 0.  1.
         21   -1    0    0  501  502  0.00000000000E+00 -0.00000000000E+00 -0.33384485631E+02  0.33384485631E+02  0.00000000000E+00 0. -1.
         25    2    1    2    0    0  0.30586548729E+02 -0.73881119725E+00  0.36873785992E+03  0.39054860072E+03  0.12499806951E+03 0.  0.
    9000005    1    3    3    0    0 -0.21119130659E+02 -0.50822646500E+02  0.12949473069E+03  0.14070836632E+03  0.10000000000E+01 0.  0.
    9000005    1    3    3    0    0  0.51705679388E+02  0.50083835303E+02  0.23924312923E+03  0.24984023440E+03  0.10000000000E+01 0.  0.
         -4    1    1    2    0  502 -0.30586548729E+02  0.73881119725E+00 -0.12052107449E+02  0.32908190456E+02  0.12700000000E+01 0. -1.
<mgrwt>
<rscale>  1 0.12868800E+03</rscale>
<asrwt>0</asrwt>
<pdfrwt beam="2">  1       21 0.51360750E-02 0.12868800E+03</pdfrwt>
<pdfrwt beam="1">  1       -4 0.60012820E-01 0.12868800E+03</pdfrwt>
<totfact> 0.27487573E+04</totfact>
</mgrwt>
</event>
<event>
 6    3  0.3813045E-003  0.1277281E+03  0.7818608E-02  0.1230866E+00
         21   -1    0    0  501  502  0.00000000000E+00  0.00000000000E+00  0.66839816312E+02  0.66839816312E+02  0.00000000000E+00 0.  1.
          4   -1    0    0  502    0 -0.00000000000E+00 -0.00000000000E+00 -0.89779213804E+02  0.89788195946E+02  0.12700000000E+01 0.  1.
         25    2    1    2    0    0  0.13873246669E+02 -0.22301021432E+02 -0.25362623886E+02  0.13022181116E+03  0.12499861952E+03 0.  0.
    9000005    1    3    3    0    0  0.37887489458E+02  0.21981861653E+02  0.31714279876E+02  0.54087518405E+02  0.10000000000E+01 0.  0.
    9000005    1    3    3    0    0 -0.24014242789E+02 -0.44282883085E+02 -0.57076903762E+02  0.76134292760E+02  0.10000000000E+01 0.  0.
          4    1    1    2  501    0 -0.13873246669E+02  0.22301021432E+02  0.24232263948E+01  0.26406201094E+02  0.12700000000E+01 0. -1.
<mgrwt>
<rscale>  1 0.12772806E+03</rscale>
<asrwt>0</asrwt>
<pdfrwt beam="1">  1       21 0.10283049E-01 0.12772806E+03</pdfrwt>
<pdfrwt beam="2">  1        4 0.13813806E-01 0.12772806E+03</pdfrwt>
<totfact> 0.13396715E+05</totfact>
</mgrwt>
</event>
<event>
 6    3  0.3813045E-003  0.1267371E+03  0.7818608E-02  0.1232379E+00
         21   -1    0    0  501  502  0.00000000000E+00  0.00000000000E+00  0.77133724582E+01  0.77133724582E+01  0.00000000000E+00 0.  1.
          4   -1    0    0  502    0 -0.00000000000E+00 -0.00000000000E+00 -0.10804318683E+04  0.10804326147E+04  0.12700000000E+01 0. -1.
         25    2    1    2    0    0 -0.91186231171E+01  0.18801942724E+02 -0.10485061126E+04  0.10561379454E+04  0.12500251645E+03 0.  0.
    9000005    1    3    3    0    0 -0.52651634901E+02 -0.21373076325E+02 -0.30318850156E+03  0.30846923757E+03  0.10000000000E+01 0.  0.
    9000005    1    3    3    0    0  0.43533011784E+02  0.40175019049E+02 -0.74531761106E+03  0.74766870781E+03  0.10000000000E+01 0.  0.
          4    1    1    2  501    0  0.91186231171E+01 -0.18801942724E+02 -0.24212383170E+02  0.32008041748E+02  0.12700000000E+01 0.  1.
<mgrwt>
<rscale>  1 0.12673710E+03</rscale>
<asrwt>0</asrwt>
<pdfrwt beam="1">  1       21 0.11866737E-02 0.12673710E+03</pdfrwt>
<pdfrwt beam="2">  1        4 0.16622824E+00 0.12673710E+03</pdfrwt>
<totfact> 0.27968971E+04</totfact>
</mgrwt>
</event>
<event>
 6    3  0.3813045E-003  0.1305724E+03  0.7818608E-02  0.1226609E+00
         21   -1    0    0  501  502  0.00000000000E+00  0.00000000000E+00  0.31451742187E+03  0.31451742187E+03  0.00000000000E+00 0. -1.
          4   -1    0    0  502    0 -0.00000000000E+00 -0.00000000000E+00 -0.22677628977E+02  0.22713162616E+02  0.12700000000E+01 0. -1.
         25    2    1    2    0    0  0.36142170142E+02 -0.10870500260E+02  0.23804871718E+03  0.27150755226E+03  0.12499893978E+03 0.  0.
    9000005    1    3    3    0    0  0.16417822073E+02  0.45600570453E+02  0.34898386890E+02  0.59731518605E+02  0.10000000000E+01 0.  0.
    9000005    1    3    3    0    0  0.19724348069E+02 -0.56471070713E+02  0.20315033029E+03  0.21177603365E+03  0.10000000000E+01 0.  0.
          4    1    1    2  501    0 -0.36142170142E+02  0.10870500260E+02  0.53791075717E+02  0.65723032228E+02  0.12700000000E+01 0.  1.
<mgrwt>
<rscale>  1 0.13057243E+03</rscale>
<asrwt>0</asrwt>
<pdfrwt beam="1">  1       21 0.48387292E-01 0.13057243E+03</pdfrwt>
<pdfrwt beam="2">  1        4 0.34917968E-02 0.13057243E+03</pdfrwt>
<totfact> 0.70091761E+04</totfact>
</mgrwt>
</event>
<event>
 6    3  0.3813045E-003  0.1319260E+03  0.7818608E-02  0.1224626E+00
         21   -1    0    0  501  502  0.00000000000E+00  0.00000000000E+00  0.38699691575E+03  0.38699691575E+03  0.00000000000E+00 0. -1.
         -4   -1    0    0    0  501 -0.00000000000E+00 -0.00000000000E+00 -0.31822373361E+02  0.31847705511E+02  0.12700000000E+01 0.  1.
         25    2    1    2    0    0 -0.49688641447E+01 -0.41876777940E+02  0.11506136501E+03  0.17505310173E+03  0.12500446619E+03 0.  0.
    9000005    1    3    3    0    0 -0.33053601960E+02 -0.21614922343E+02 -0.13621037443E+02  0.41788492812E+02  0.10000000000E+01 0.  0.
    9000005    1    3    3    0    0  0.28084737816E+02 -0.20261855597E+02  0.12868240245E+03  0.13326460892E+03  0.10000000000E+01 0.  0.
         -4    1    1    2    0  502  0.49688641447E+01  0.41876777940E+02  0.24011317738E+03  0.24379151952E+03  0.12700000000E+01 0. -1.
<mgrwt>
<rscale>  1 0.13192600E+03</rscale>
<asrwt>0</asrwt>
<pdfrwt beam="1">  1       21 0.59537984E-01 0.13192600E+03</pdfrwt>
<pdfrwt beam="2">  1       -4 0.48978590E-02 0.13192600E+03</pdfrwt>
<totfact> 0.26577034E+04</totfact>
</mgrwt>
</event>
<event>
 6    3  0.3813045E-003  0.1296702E+03  0.7818608E-02  0.1227946E+00
         -4   -1    0    0    0  501 -0.00000000000E+00  0.00000000000E+00  0.29291220222E+02  0.29318739436E+02  0.12700000000E+01 0. -1.
         21   -1    0    0  501  502  0.00000000000E+00 -0.00000000000E+00 -0.43382322048E+03  0.43382322048E+03  0.00000000000E+00 0.  1.
         25    2    1    2    0    0  0.33853793587E+02  0.65807240494E+01 -0.12048322735E+03  0.17700439936E+03  0.12499985621E+03 0.  0.
    9000005    1    3    3    0    0  0.20765219757E+02  0.61167701921E+02 -0.31707846314E+02  0.71965753159E+02  0.10000000000E+01 0.  0.
    9000005    1    3    3    0    0  0.13088573830E+02 -0.54586977872E+02 -0.88775381036E+02  0.10503864620E+03  0.10000000000E+01 0.  0.
         -4    1    1    2    0  502 -0.33853793587E+02 -0.65807240494E+01 -0.28404877291E+03  0.28613756055E+03  0.12700000000E+01 0.  1.
<mgrwt>
<rscale>  1 0.12967016E+03</rscale>
<asrwt>0</asrwt>
<pdfrwt beam="2">  1       21 0.66742032E-01 0.12967016E+03</pdfrwt>
<pdfrwt beam="1">  1       -4 0.45086016E-02 0.12967016E+03</pdfrwt>
<totfact> 0.23720219E+04</totfact>
</mgrwt>
</event>
<event>
 6    3  0.3813045E-003  0.1327328E+03  0.7818608E-02  0.1223456E+00
         -4   -1    0    0    0  501 -0.00000000000E+00  0.00000000000E+00  0.13932473557E+02  0.13990236575E+02  0.12700000000E+01 0.  1.
         21   -1    0    0  501  502  0.00000000000E+00 -0.00000000000E+00 -0.78536081831E+03  0.78536081831E+03  0.00000000000E+00 0.  1.
         25    2    1    2    0    0 -0.31510911595E+02 -0.31575780985E+02 -0.71595573040E+03  0.72815561024E+03  0.12501206880E+03 0.  0.
    9000005    1    3    3    0    0 -0.28249014121E+02 -0.75457595263E+02 -0.57122381190E+03  0.57687910238E+03  0.10000000000E+01 0.  0.
    9000005    1    3    3    0    0 -0.32618974743E+01  0.43881814278E+02 -0.14473191850E+03  0.15127650786E+03  0.10000000000E+01 0.  0.
         -4    1    1    2    0  502  0.31510911595E+02  0.31575780985E+02 -0.55472614359E+02  0.71195444645E+02  0.12700000000E+01 0. -1.
<mgrwt>
<rscale>  1 0.13273276E+03</rscale>
<asrwt>0</asrwt>
<pdfrwt beam="2">  1       21 0.12082479E+00 0.13273276E+03</pdfrwt>
<pdfrwt beam="1">  1       -4 0.21479789E-02 0.13273276E+03</pdfrwt>
<totfact> 0.19502175E+04</totfact>
</mgrwt>
</event>
<event>
 6    3  0.3813045E-003  0.1279233E+03  0.7818608E-02  0.1230570E+00
         21   -1    0    0  501  502  0.00000000000E+00  0.00000000000E+00  0.54097506194E+03  0.54097506194E+03  0.00000000000E+00 0. -1.
         -4   -1    0    0    0  501 -0.00000000000E+00 -0.00000000000E+00 -0.12054485134E+02  0.12121200924E+02  0.12700000000E+01 0.  1.
         25    2    1    2    0    0 -0.26266800730E+02  0.70237739139E+01  0.36125475681E+03  0.38323538357E+03  0.12500032672E+03 0.  0.
    9000005    1    3    3    0    0 -0.25013113061E+02 -0.56066414211E+02  0.22223206145E+03  0.23055842592E+03  0.10000000000E+01 0.  0.
    9000005    1    3    3    0    0 -0.12536876684E+01  0.63090188125E+02  0.13902269536E+03  0.15267695765E+03  0.10000000000E+01 0.  0.
         -4    1    1    2    0  502  0.26266800730E+02 -0.70237739139E+01  0.16766582000E+03  0.16986087930E+03  0.12700000000E+01 0. -1.
<mgrwt>
<rscale>  1 0.12792326E+03</rscale>
<asrwt>0</asrwt>
<pdfrwt beam="1">  1       21 0.83226914E-01 0.12792326E+03</pdfrwt>
<pdfrwt beam="2">  1       -4 0.18597832E-02 0.12792326E+03</pdfrwt>
<totfact> 0.58125733E+04</totfact>
</mgrwt>
</event>
<event>
 6    3  0.3813045E-003  0.1316181E+03  0.7818608E-02  0.1225074E+00
         21   -1    0    0  501  502  0.00000000000E+00  0.00000000000E+00  0.18512155890E+03  0.18512155890E+03  0.00000000000E+00 0. -1.
         -4   -1    0    0    0  501 -0.00000000000E+00 -0.00000000000E+00 -0.42436111032E+02  0.42455110641E+02  0.12700000000E+01 0.  1.
         25    2    1    2    0    0 -0.32481728017E+02 -0.25355652871E+02  0.85018705440E+02  0.15668916804E+03  0.12500137326E+03 0.  0.
    9000005    1    3    3    0    0 -0.40261300964E+02 -0.56003893455E+01  0.11383654912E+03  0.12088050559E+03  0.10000000000E+01 0.  0.
    9000005    1    3    3    0    0  0.77795729474E+01 -0.19755263526E+02 -0.28817843677E+02  0.35808662449E+02  0.10000000000E+01 0.  0.
         -4    1    1    2    0  502  0.32481728017E+02  0.25355652871E+02  0.57666742432E+02  0.70887501509E+02  0.12700000000E+01 0. -1.
<mgrwt>
<rscale>  1 0.13161807E+03</rscale>
<asrwt>0</asrwt>
<pdfrwt beam="1">  1       21 0.28480239E-01 0.13161807E+03</pdfrwt>
<pdfrwt beam="2">  1       -4 0.65304292E-02 0.13161807E+03</pdfrwt>
<totfact> 0.73539121E+04</totfact>
</mgrwt>
</event>
<event>
 6    3  0.3813045E-003  0.1288114E+03  0.7818608E-02  0.1229230E+00
          4   -1    0    0  502    0 -0.00000000000E+00  0.00000000000E+00  0.29800509164E+03  0.29800779779E+03  0.12700000000E+01 0. -1.
         21   -1    0    0  501  502  0.00000000000E+00 -0.00000000000E+00 -0.21750876431E+02  0.21750876431E+02  0.00000000000E+00 0. -1.
         25    2    1    2    0    0 -0.22485502587E+02  0.21450479177E+02  0.20645330711E+03  0.24334204936E+03  0.12500665617E+03 0.  0.
    9000005    1    3    3    0    0 -0.14981085698E+02  0.34720691628E+02  0.15393427309E+01  0.37859330843E+02  0.10000000000E+01 0.  0.
    9000005    1    3    3    0    0 -0.75044168882E+01 -0.13270212451E+02  0.20491396438E+03  0.20548271852E+03  0.10000000000E+01 0.  0.
          4    1    1    2  501    0  0.22485502587E+02 -0.21450479177E+02  0.69800908090E+02  0.76416624852E+02  0.12700000000E+01 0.  1.
<mgrwt>
<rscale>  1 0.12881143E+03</rscale>
<asrwt>0</asrwt>
<pdfrwt beam="2">  1       21 0.33462889E-02 0.12881143E+03</pdfrwt>
<pdfrwt beam="1">  1        4 0.45849994E-01 0.12881143E+03</pdfrwt>
<totfact> 0.97419647E+04</totfact>
</mgrwt>
</event>
<event>
 6    3  0.3813045E-003  0.1380666E+03  0.7818608E-02  0.1215954E+00
         -4   -1    0    0    0  501 -0.00000000000E+00  0.00000000000E+00  0.16738542728E+04  0.16738547546E+04  0.12700000000E+01 0.  1.
         21   -1    0    0  501  502  0.00000000000E+00 -0.00000000000E+00 -0.12671818508E+02  0.12671818508E+02  0.00000000000E+00 0. -1.
         25    2    1    2    0    0 -0.41731316159E+02 -0.41178651764E+02  0.15818997038E+04  0.15879134323E+04  0.12500084624E+03 0.  0.
    9000005    1    3    3    0    0 -0.35114674994E+02 -0.64294983778E+02  0.15157924987E+04  0.15175621189E+04  0.10000000000E+01 0.  0.
    9000005    1    3    3    0    0 -0.66166411646E+01  0.23116332015E+02  0.66107205044E+02  0.70351313455E+02  0.10000000000E+01 0.  0.
         -4    1    1    2    0  502  0.41731316159E+02  0.41178651764E+02  0.79282750519E+02  0.98613140804E+02  0.12700000000E+01 0. -1.
<mgrwt>
<rscale>  1 0.13806663E+03</rscale>
<asrwt>0</asrwt>
<pdfrwt beam="2">  1       21 0.19495119E-02 0.13806663E+03</pdfrwt>
<pdfrwt beam="1">  1       -4 0.25752080E+00 0.13806663E+03</pdfrwt>
<totfact> 0.35055512E+03</totfact>
</mgrwt>
</event>
<event>
 6    3  0.3813045E-003  0.1295066E+03  0.7818608E-02  0.1228190E+00
         -4   -1    0    0    0  501 -0.00000000000E+00  0.00000000000E+00  0.55533953596E+02  0.55548473445E+02  0.12700000000E+01 0. -1.
         21   -1    0    0  501  502  0.00000000000E+00 -0.00000000000E+00 -0.17275540027E+03  0.17275540027E+03  0.00000000000E+00 0.  1.
         25    2    1    2    0    0 -0.25319448505E+02 -0.22507033948E+02 -0.27503667434E+02  0.13239488633E+03  0.12499725258E+03 0.  0.
    9000005    1    3    3    0    0 -0.21986699676E+02  0.48432824845E+02  0.65988089357E+01  0.53606881690E+02  0.10000000000E+01 0.  0.
    9000005    1    3    3    0    0 -0.33327488293E+01 -0.70939858793E+02 -0.34102476369E+02  0.78788004639E+02  0.10000000000E+01 0.  0.
         -4    1    1    2    0  502  0.25319448505E+02  0.22507033948E+02 -0.89717779244E+02  0.95908987390E+02  0.12700000000E+01 0.  1.
<mgrwt>
<rscale>  1 0.12950658E+03</rscale>
<asrwt>0</asrwt>
<pdfrwt beam="2">  1       21 0.26577754E-01 0.12950658E+03</pdfrwt>
<pdfrwt beam="1">  1       -4 0.85451613E-02 0.12950658E+03</pdfrwt>
<totfact> 0.53779157E+04</totfact>
</mgrwt>
</event>
<event>
 6    3  0.3813045E-003  0.1297875E+03  0.7818608E-02  0.1227771E+00
         -4   -1    0    0    0  501 -0.00000000000E+00  0.00000000000E+00  0.23634041938E+03  0.23634383160E+03  0.12700000000E+01 0.  1.
         21   -1    0    0  501  502  0.00000000000E+00 -0.00000000000E+00 -0.33305868155E+02  0.33305868155E+02  0.00000000000E+00 0.  1.
         25    2    1    2    0    0  0.43130727694E+01  0.34648683521E+02  0.19425694300E+03  0.23362480318E+03  0.12500261955E+03 0.  0.
    9000005    1    3    3    0    0 -0.56756445673E+02  0.12450032047E+02  0.55292931102E+02  0.80215993750E+02  0.10000000000E+01 0.  0.
    9000005    1    3    3    0    0  0.61069518442E+02  0.22198651474E+02  0.13896401189E+03  0.15340880943E+03  0.10000000000E+01 0.  0.
         -4    1    1    2    0  502 -0.43130727694E+01 -0.34648683521E+02  0.87776082304E+01  0.36024896567E+02  0.12700000000E+01 0. -1.
<mgrwt>
<rscale>  1 0.12978748E+03</rscale>
<asrwt>0</asrwt>
<pdfrwt beam="2">  1       21 0.51239799E-02 0.12978748E+03</pdfrwt>
<pdfrwt beam="1">  1       -4 0.36362188E-01 0.12978748E+03</pdfrwt>
<totfact> 0.75809509E+04</totfact>
</mgrwt>
</event>
<event>
 6    3  0.3813045E-003  0.2250049E+03  0.7818608E-02  0.1130206E+00
         -4   -1    0    0    0  501 -0.00000000000E+00  0.00000000000E+00  0.85284784420E+03  0.85284878980E+03  0.12700000000E+01 0.  1.
         21   -1    0    0  501  502  0.00000000000E+00 -0.00000000000E+00 -0.51220588227E+02  0.51220588227E+02  0.00000000000E+00 0. -1.
         25    2    1    2    0    0  0.17517900403E+03  0.65686055155E+02  0.51211376463E+03  0.55936368346E+03  0.12499952463E+03 0.  0.
    9000005    1    3    3    0    0 -0.21522346899E+01 -0.36058880198E+01 -0.59910235128E+01  0.73842335623E+01  0.10000000000E+01 0.  0.
    9000005    1    3    3    0    0  0.17733123872E+03  0.69291943174E+02  0.51810478814E+03  0.55197944990E+03  0.10000000000E+01 0.  0.
         -4    1    1    2    0  502 -0.17517900403E+03 -0.65686055155E+02  0.28951349134E+03  0.34470569456E+03  0.12700000000E+01 0. -1.
<mgrwt>
<rscale>  1 0.22500494E+03</rscale>
<asrwt>0</asrwt>
<pdfrwt beam="2">  1       21 0.78800911E-02 0.22500494E+03</pdfrwt>
<pdfrwt beam="1">  1       -4 0.13120863E+00 0.22500494E+03</pdfrwt>
<totfact> 0.23156497E+03</totfact>
</mgrwt>
</event>
<event>
 6    3  0.3813045E-003  0.1359204E+03  0.7818608E-02  0.1218926E+00
         21   -1    0    0  501  502  0.00000000000E+00  0.00000000000E+00  0.39063019298E+03  0.39063019298E+03  0.00000000000E+00 0.  1.
          4   -1    0    0  502    0 -0.00000000000E+00 -0.00000000000E+00 -0.82658212981E+02  0.82667968847E+02  0.12700000000E+01 0. -1.
         25    2    1    2    0    0  0.48060176732E+02 -0.23362565187E+02 -0.23160176380E+02  0.13787945643E+03  0.12497504029E+03 0.  0.
    9000005    1    3    3    0    0  0.18489890808E+02 -0.47367452433E+02 -0.64184681003E+02  0.81891543444E+02  0.10000000000E+01 0.  0.
    9000005    1    3    3    0    0  0.29570285924E+02  0.24004887246E+02  0.41024504623E+02  0.55987912989E+02  0.10000000000E+01 0.  0.
          4    1    1    2  501    0 -0.48060176732E+02  0.23362565187E+02  0.33113215638E+03  0.33541870539E+03  0.12700000000E+01 0.  1.
<mgrwt>
<rscale>  1 0.13592038E+03</rscale>
<asrwt>0</asrwt>
<pdfrwt beam="1">  1       21 0.60096952E-01 0.13592038E+03</pdfrwt>
<pdfrwt beam="2">  1        4 0.12717558E-01 0.13592038E+03</pdfrwt>
<totfact> 0.53719131E+03</totfact>
</mgrwt>
</event>
<event>
 6    3  0.3813045E-003  0.1328639E+03  0.7818608E-02  0.1223267E+00
         21   -1    0    0  501  502  0.00000000000E+00  0.00000000000E+00  0.32997447375E+01  0.32997447375E+01  0.00000000000E+00 0. -1.
          4   -1    0    0  502    0 -0.00000000000E+00 -0.00000000000E+00 -0.24123477990E+04  0.24123481333E+04  0.12700000000E+01 0. -1.
         25    2    1    2    0    0  0.44633874998E+02  0.55870817722E+01 -0.17110306197E+04  0.17161814026E+04  0.12501770721E+03 0.  0.
    9000005    1    3    3    0    0  0.36899285416E+02  0.14055726528E+02 -0.15014954575E+03  0.15525787195E+03  0.10000000000E+01 0.  0.
    9000005    1    3    3    0    0  0.77345895821E+01 -0.84686447555E+01 -0.15608810739E+04  0.15609235307E+04  0.10000000000E+01 0.  0.
          4    1    1    2  501    0 -0.44633874998E+02 -0.55870817722E+01 -0.69801743461E+03  0.69946647539E+03  0.12700000000E+01 0.  1.
<mgrwt>
<rscale>  1 0.13286394E+03</rscale>
<asrwt>0</asrwt>
<pdfrwt beam="1">  1       21 0.50765573E-03 0.13286394E+03</pdfrwt>
<pdfrwt beam="2">  1        4 0.37114728E+00 0.13286394E+03</pdfrwt>
<totfact> 0.62501046E+03</totfact>
</mgrwt>
</event>
<event>
 6    3  0.3813045E-003  0.1285528E+03  0.7818608E-02  0.1229619E+00
          4   -1    0    0  502    0 -0.00000000000E+00  0.00000000000E+00  0.16047880311E+02  0.16098054618E+02  0.12700000000E+01 0. -1.
         21   -1    0    0  501  502  0.00000000000E+00 -0.00000000000E+00 -0.50782456666E+03  0.50782456666E+03  0.00000000000E+00 0.  1.
         25    2    1    2    0    0 -0.27776084014E+02 -0.11177012650E+02 -0.25820716001E+03  0.28843849657E+03  0.12501756824E+03 0.  0.
    9000005    1    3    3    0    0 -0.56084513859E+02 -0.53353972611E+02 -0.14563220030E+03  0.16492985434E+03  0.10000000000E+01 0.  0.
    9000005    1    3    3    0    0  0.28308429846E+02  0.42176959961E+02 -0.11257495970E+03  0.12350864223E+03  0.10000000000E+01 0.  0.
          4    1    1    2  501    0  0.27776084014E+02  0.11177012650E+02 -0.23356952635E+03  0.23548412471E+03  0.12700000000E+01 0.  1.
<mgrwt>
<rscale>  1 0.12855283E+03</rscale>
<asrwt>0</asrwt>
<pdfrwt beam="2">  1       21 0.78126845E-01 0.12855283E+03</pdfrwt>
<pdfrwt beam="1">  1        4 0.24728867E-02 0.12855283E+03</pdfrwt>
<totfact> 0.43162830E+04</totfact>
</mgrwt>
</event>
<event>
 6    3  0.3813045E-003  0.1270013E+03  0.7818608E-02  0.1231974E+00
         21   -1    0    0  501  502  0.00000000000E+00  0.00000000000E+00  0.47746879181E+02  0.47746879181E+02  0.00000000000E+00 0.  1.
          4   -1    0    0  502    0 -0.00000000000E+00 -0.00000000000E+00 -0.30589907517E+03  0.30590171148E+03  0.12700000000E+01 0. -1.
         25    2    1    2    0    0  0.19946374698E+02 -0.10305534470E+02 -0.28888397188E+03  0.31556819080E+03  0.12500108773E+03 0.  0.
    9000005    1    3    3    0    0  0.68212096906E+02 -0.25244775265E+01 -0.22493535627E+03  0.23506632607E+03  0.10000000000E+01 0.  0.
    9000005    1    3    3    0    0 -0.48265722209E+02 -0.77810569435E+01 -0.63948615605E+02  0.80501864732E+02  0.10000000000E+01 0.  0.
          4    1    1    2  501    0 -0.19946374698E+02  0.10305534470E+02  0.30731775890E+02  0.38080399862E+02  0.12700000000E+01 0.  1.
<mgrwt>
<rscale>  1 0.12700131E+03</rscale>
<asrwt>0</asrwt>
<pdfrwt beam="1">  1       21 0.73456736E-02 0.12700131E+03</pdfrwt>
<pdfrwt beam="2">  1        4 0.47062899E-01 0.12700131E+03</pdfrwt>
<totfact> 0.24636730E+04</totfact>
</mgrwt>
</event>
<event>
 6    3  0.3813045E-003  0.1314427E+03  0.7818608E-02  0.1225331E+00
         21   -1    0    0  501  502  0.00000000000E+00  0.00000000000E+00  0.22568083033E+03  0.22568083033E+03  0.00000000000E+00 0. -1.
          4   -1    0    0  502    0 -0.00000000000E+00 -0.00000000000E+00 -0.34110546445E+02  0.34134180505E+02  0.12700000000E+01 0. -1.
         25    2    1    2    0    0 -0.39949435531E+02  0.71007351856E+01  0.12237624301E+03  0.17959153527E+03  0.12502318524E+03 0.  0.
    9000005    1    3    3    0    0  0.47345941794E+01 -0.51055688344E+02  0.79575069651E+02  0.94669379443E+02  0.10000000000E+01 0.  0.
    9000005    1    3    3    0    0 -0.44684029711E+02  0.58156423529E+02  0.42801173360E+02  0.84922155825E+02  0.10000000000E+01 0.  0.
          4    1    1    2  501    0  0.39949435531E+02 -0.71007351856E+01  0.69194040870E+02  0.80223475563E+02  0.12700000000E+01 0.  1.
<mgrwt>
<rscale>  1 0.13144267E+03</rscale>
<asrwt>0</asrwt>
<pdfrwt beam="1">  1       21 0.34720127E-01 0.13144267E+03</pdfrwt>
<pdfrwt beam="2">  1        4 0.52498694E-02 0.13144267E+03</pdfrwt>
<totfact> 0.71319824E+04</totfact>
</mgrwt>
</event>
<event>
 6    3  0.3813045E-003  0.1266328E+03  0.7818608E-02  0.1232539E+00
         21   -1    0    0  501  502  0.00000000000E+00  0.00000000000E+00  0.13003481595E+02  0.13003481595E+02  0.00000000000E+00 0.  1.
          4   -1    0    0  502    0 -0.00000000000E+00 -0.00000000000E+00 -0.10289600555E+04  0.10289608392E+04  0.12700000000E+01 0. -1.
         25    2    1    2    0    0  0.17377900389E+02  0.10528223426E+02 -0.10135893594E+04  0.10214691625E+04  0.12499210196E+03 0.  0.
    9000005    1    3    3    0    0 -0.39318722796E+02 -0.34620107465E+02 -0.34394118741E+03  0.34790954888E+03  0.10000000000E+01 0.  0.
    9000005    1    3    3    0    0  0.56696623185E+02  0.45148330891E+02 -0.66964817199E+03  0.67355961363E+03  0.10000000000E+01 0.  0.
          4    1    1    2  501    0 -0.17377900389E+02 -0.10528223426E+02 -0.23672144932E+01  0.20495158328E+02  0.12700000000E+01 0.  1.
<mgrwt>
<rscale>  1 0.12663278E+03</rscale>
<asrwt>0</asrwt>
<pdfrwt beam="1">  1       21 0.20005356E-02 0.12663278E+03</pdfrwt>
<pdfrwt beam="2">  1        4 0.15830638E+00 0.12663278E+03</pdfrwt>
<totfact> 0.13790888E+04</totfact>
</mgrwt>
</event>
<event>
 6    3  0.3813045E-003  0.1287577E+03  0.7818608E-02  0.1229311E+00
          4   -1    0    0  502    0 -0.00000000000E+00  0.00000000000E+00  0.76984696688E+02  0.76995171434E+02  0.12700000000E+01 0. -1.
         21   -1    0    0  501  502  0.00000000000E+00 -0.00000000000E+00 -0.12574845064E+03  0.12574845064E+03  0.00000000000E+00 0. -1.
         25    2    1    2    0    0 -0.26516405452E+02  0.15951408851E+02  0.17170801331E+02  0.12989758112E+03  0.12498391080E+03 0.  0.
    9000005    1    3    3    0    0  0.81549918493E+01 -0.44148720609E+02 -0.22222399565E+02  0.50104375716E+02  0.10000000000E+01 0.  0.
    9000005    1    3    3    0    0 -0.34671397301E+02  0.60100129460E+02  0.39393200895E+02  0.79793205404E+02  0.10000000000E+01 0.  0.
          4    1    1    2  501    0  0.26516405452E+02 -0.15951408851E+02 -0.65934555282E+02  0.72846040954E+02  0.12700000000E+01 0.  1.
<mgrwt>
<rscale>  1 0.12875770E+03</rscale>
<asrwt>0</asrwt>
<pdfrwt beam="2">  1       21 0.19345916E-01 0.12875770E+03</pdfrwt>
<pdfrwt beam="1">  1        4 0.11845099E-01 0.12875770E+03</pdfrwt>
<totfact> 0.56185029E+04</totfact>
</mgrwt>
</event>
<event>
 6    3  0.3813045E-003  0.1491234E+03  0.7818608E-02  0.1201554E+00
          4   -1    0    0  502    0 -0.00000000000E+00  0.00000000000E+00  0.10103159485E+03  0.10103957669E+03  0.12700000000E+01 0.  1.
         21   -1    0    0  501  502  0.00000000000E+00 -0.00000000000E+00 -0.13565029881E+03  0.13565029881E+03  0.00000000000E+00 0. -1.
         25    2    1    2    0    0  0.79425180070E+02  0.17460057219E+02 -0.42271732405E+02  0.15499902796E+03  0.12499834591E+03 0.  0.
    9000005    1    3    3    0    0  0.54468690456E+02  0.31768466909E+02 -0.83547918479E+02  0.10467725833E+03  0.10000000000E+01 0.  0.
    9000005    1    3    3    0    0  0.24956489614E+02 -0.14308409690E+02  0.41276186075E+02  0.50321769629E+02  0.10000000000E+01 0.  0.
          4    1    1    2  501    0 -0.79425180070E+02 -0.17460057219E+02  0.76530284516E+01  0.81690847540E+02  0.12700000000E+01 0. -1.
<mgrwt>
<rscale>  1 0.14912344E+03</rscale>
<asrwt>0</asrwt>
<pdfrwt beam="2">  1       21 0.20869277E-01 0.14912344E+03</pdfrwt>
<pdfrwt beam="1">  1        4 0.15544394E-01 0.14912344E+03</pdfrwt>
<totfact> 0.31005096E+04</totfact>
</mgrwt>
</event>
<event>
 6    3  0.3813045E-003  0.1268273E+03  0.7818608E-02  0.1232241E+00
          4   -1    0    0  502    0 -0.00000000000E+00  0.00000000000E+00  0.14237544712E+03  0.14238111126E+03  0.12700000000E+01 0. -1.
         21   -1    0    0  501  502  0.00000000000E+00 -0.00000000000E+00 -0.40064416789E+02  0.40064416789E+02  0.00000000000E+00 0. -1.
         25    2    1    2    0    0 -0.11382122854E+02 -0.18174893841E+02  0.98597798943E+02  0.16064459976E+03  0.12500112795E+03 0.  0.
    9000005    1    3    3    0    0  0.48379207380E+02 -0.34861529174E+02  0.25783225687E+02  0.64974215270E+02  0.10000000000E+01 0.  0.
    9000005    1    3    3    0    0 -0.59761330234E+02  0.16686635333E+02  0.72814573256E+02  0.95670384491E+02  0.10000000000E+01 0.  0.
          4    1    1    2  501    0  0.11382122854E+02  0.18174893841E+02  0.37132313894E+01  0.21800928286E+02  0.12700000000E+01 0.  1.
<mgrwt>
<rscale>  1 0.12682729E+03</rscale>
<asrwt>0</asrwt>
<pdfrwt beam="2">  1       21 0.61637565E-02 0.12682729E+03</pdfrwt>
<pdfrwt beam="1">  1        4 0.21905899E-01 0.12682729E+03</pdfrwt>
<totfact> 0.14292612E+05</totfact>
</mgrwt>
</event>
<event>
 6    3  0.3813045E-003  0.1277904E+03  0.7818608E-02  0.1230772E+00
         21   -1    0    0  501  502  0.00000000000E+00  0.00000000000E+00  0.66010808112E+02  0.66010808112E+02  0.00000000000E+00 0.  1.
         -4   -1    0    0    0  501 -0.00000000000E+00 -0.00000000000E+00 -0.13357124683E+03  0.13357728429E+03  0.12700000000E+01 0.  1.
         25    2    1    2    0    0 -0.18969225677E+02  0.18569408573E+02 -0.86546643577E+00  0.12779333852E+03  0.12500293549E+03 0.  0.
    9000005    1    3    3    0    0 -0.96970506158E+01 -0.29382155086E+02 -0.49807353056E+02  0.58643978775E+02  0.10000000000E+01 0.  0.
    9000005    1    3    3    0    0 -0.92721750608E+01  0.47951563658E+02  0.48941886620E+02  0.69149359748E+02  0.10000000000E+01 0.  0.
         -4    1    1    2    0  502  0.18969225677E+02 -0.18569408573E+02 -0.66694972281E+02  0.71794753883E+02  0.12700000000E+01 0. -1.
<mgrwt>
<rscale>  1 0.12779041E+03</rscale>
<asrwt>0</asrwt>
<pdfrwt beam="1">  1       21 0.10155509E-01 0.12779041E+03</pdfrwt>
<pdfrwt beam="2">  1       -4 0.20550826E-01 0.12779041E+03</pdfrwt>
<totfact> 0.67933093E+04</totfact>
</mgrwt>
</event>
<event>
 6    3  0.3813045E-003  0.1299362E+03  0.7818608E-02  0.1227550E+00
         21   -1    0    0  501  502  0.00000000000E+00  0.00000000000E+00  0.12702246722E+03  0.12702246722E+03  0.00000000000E+00 0. -1.
         -4   -1    0    0    0  501 -0.00000000000E+00 -0.00000000000E+00 -0.60681240376E+02  0.60694528860E+02  0.12700000000E+01 0. -1.
         25    2    1    2    0    0  0.35350671250E+02  0.30287847602E+01  0.23444947921E+02  0.13203443920E+03  0.12499833622E+03 0.  0.
    9000005    1    3    3    0    0  0.14191373288E+02  0.58744438554E+02  0.37050713562E+02  0.70894707223E+02  0.10000000000E+01 0.  0.
    9000005    1    3    3    0    0  0.21159297962E+02 -0.55715653794E+02 -0.13605765640E+02  0.61139731980E+02  0.10000000000E+01 0.  0.
         -4    1    1    2    0  502 -0.35350671250E+02 -0.30287847602E+01  0.42896278923E+02  0.55682556877E+02  0.12700000000E+01 0.  1.
<mgrwt>
<rscale>  1 0.12993624E+03</rscale>
<asrwt>0</asrwt>
<pdfrwt beam="1">  1       21 0.19541918E-01 0.12993624E+03</pdfrwt>
<pdfrwt beam="2">  1       -4 0.93370860E-02 0.12993624E+03</pdfrwt>
<totfact> 0.82546384E+04</totfact>
</mgrwt>
</event>
<event>
 6    3  0.3813045E-003  0.1275779E+03  0.7818608E-02  0.1231095E+00
         21   -1    0    0  501  502  0.00000000000E+00  0.00000000000E+00  0.20545905395E+03  0.20545905395E+03  0.00000000000E+00 0.  1.
         -4   -1    0    0    0  501 -0.00000000000E+00 -0.00000000000E+00 -0.64543355935E+02  0.64555849428E+02  0.12700000000E+01 0. -1.
         25    2    1    2    0    0 -0.21012321566E+02 -0.14502689663E+02  0.79378936123E+00  0.12758032945E+03  0.12499705875E+03 0.  0.
    9000005    1    3    3    0    0 -0.73081066195E+02 -0.15433905044E+02  0.74490127822E+01  0.75070203493E+02  0.10000000000E+01 0.  0.
    9000005    1    3    3    0    0  0.52068744629E+02  0.93121538088E+00 -0.66552234210E+01  0.52510125958E+02  0.10000000000E+01 0.  0.
         -4    1    1    2    0  502  0.21012321566E+02  0.14502689663E+02  0.14012190866E+03  0.14243457393E+03  0.12700000000E+01 0.  1.
<mgrwt>
<rscale>  1 0.12757786E+03</rscale>
<asrwt>0</asrwt>
<pdfrwt beam="1">  1       21 0.31609085E-01 0.12757786E+03</pdfrwt>
<pdfrwt beam="2">  1       -4 0.99310102E-02 0.12757786E+03</pdfrwt>
<totfact> 0.29927026E+04</totfact>
</mgrwt>
</event>
<event>
 6    3  0.3813045E-003  0.1289952E+03  0.7818608E-02  0.1228954E+00
          4   -1    0    0  502    0 -0.00000000000E+00  0.00000000000E+00  0.11326188886E+03  0.11326900886E+03  0.12700000000E+01 0.  1.
         21   -1    0    0  501  502  0.00000000000E+00 -0.00000000000E+00 -0.61120303284E+02  0.61120303284E+02  0.00000000000E+00 0.  1.
         25    2    1    2    0    0  0.23491881715E+02 -0.21535225760E+02  0.58868993692E+02  0.14179321767E+03  0.12499649477E+03 0.  0.
    9000005    1    3    3    0    0  0.13660785391E+02  0.46663057415E+02  0.54059469481E+02  0.72715089393E+02  0.10000000000E+01 0.  0.
    9000005    1    3    3    0    0  0.98310963241E+01 -0.68198283176E+02  0.48095242104E+01  0.69078128276E+02  0.10000000000E+01 0.  0.
          4    1    1    2  501    0 -0.23491881715E+02  0.21535225760E+02 -0.67274081155E+01  0.32596094475E+02  0.12700000000E+01 0. -1.
<mgrwt>
<rscale>  1 0.12899519E+03</rscale>
<asrwt>0</asrwt>
<pdfrwt beam="2">  1       21 0.94031237E-02 0.12899519E+03</pdfrwt>
<pdfrwt beam="1">  1        4 0.17426468E-01 0.12899519E+03</pdfrwt>
<totfact> 0.10446011E+05</totfact>
</mgrwt>
</event>
<event>
 6    3  0.3813045E-003  0.1426185E+03  0.7818608E-02  0.1209848E+00
         21   -1    0    0  501  502  0.00000000000E+00  0.00000000000E+00  0.16580012443E+02  0.16580012443E+02  0.00000000000E+00 0.  1.
          4   -1    0    0  502    0 -0.00000000000E+00 -0.00000000000E+00 -0.11675925365E+04  0.11675932272E+04  0.12700000000E+01 0. -1.
         25    2    1    2    0    0 -0.19932130938E+02  0.65716384963E+02 -0.10630367673E+04  0.10725610549E+04  0.12499645944E+03 0.  0.
    9000005    1    3    3    0    0 -0.20790083430E+02  0.10239635822E+03 -0.84814772079E+03  0.85456000259E+03  0.10000000000E+01 0.  0.
    9000005    1    3    3    0    0  0.85795249189E+00 -0.36679973259E+02 -0.21488904648E+03  0.21800105233E+03  0.10000000000E+01 0.  0.
          4    1    1    2  501    0  0.19932130938E+02 -0.65716384963E+02 -0.87975756820E+02  0.11161218475E+03  0.12700000000E+01 0.  1.
<mgrwt>
<rscale>  1 0.14261854E+03</rscale>
<asrwt>0</asrwt>
<pdfrwt beam="1">  1       21 0.25507717E-02 0.14261854E+03</pdfrwt>
<pdfrwt beam="2">  1        4 0.17963337E+00 0.14261854E+03</pdfrwt>
<totfact> 0.67142498E+03</totfact>
</mgrwt>
</event>
<event>
 6    3  0.3813045E-003  0.1362946E+03  0.7818608E-02  0.1218404E+00
         21   -1    0    0  501  502  0.00000000000E+00  0.00000000000E+00  0.69396019503E+01  0.69396019503E+01  0.00000000000E+00 0. -1.
          4   -1    0    0  502    0 -0.00000000000E+00 -0.00000000000E+00 -0.14493276404E+04  0.14493281969E+04  0.12700000000E+01 0.  1.
         25    2    1    2    0    0 -0.31516788892E+02 -0.44218555331E+02 -0.12082110624E+04  0.12158742514E+04  0.12501054059E+03 0.  0.
    9000005    1    3    3    0    0  0.39590356678E+02  0.12364459390E+02 -0.25644838686E+03  0.25978270019E+03  0.10000000000E+01 0.  0.
    9000005    1    3    3    0    0 -0.71107145570E+02 -0.56583014721E+02 -0.95176267554E+03  0.95609155119E+03  0.10000000000E+01 0.  0.
          4    1    1    2  501    0  0.31516788892E+02  0.44218555331E+02 -0.23417697608E+03  0.24039354743E+03  0.12700000000E+01 0. -1.
<mgrwt>
<rscale>  1 0.13629462E+03</rscale>
<asrwt>0</asrwt>
<pdfrwt beam="1">  1       21 0.10676317E-02 0.13629462E+03</pdfrwt>
<pdfrwt beam="2">  1        4 0.22298233E+00 0.13629462E+03</pdfrwt>
<totfact> 0.14566221E+04</totfact>
</mgrwt>
</event>
<event>
 6    3  0.3813045E-003  0.1320669E+03  0.7818608E-02  0.1224421E+00
         21   -1    0    0  501  502  0.00000000000E+00  0.00000000000E+00  0.23435803624E+02  0.23435803624E+02  0.00000000000E+00 0.  1.
         -4   -1    0    0    0  501 -0.00000000000E+00 -0.00000000000E+00 -0.43300018936E+03  0.43300205183E+03  0.12700000000E+01 0. -1.
         25    2    1    2    0    0 -0.95626149843E+01  0.41461527615E+02 -0.38559497332E+03  0.40758452896E+03  0.12502464926E+03 0.  0.
    9000005    1    3    3    0    0 -0.29787729737E+02  0.51209127511E+02 -0.37977515423E+03  0.38436942042E+03  0.10000000000E+01 0.  0.
    9000005    1    3    3    0    0  0.20225114753E+02 -0.97475998963E+01 -0.58198190928E+01  0.23215108545E+02  0.10000000000E+01 0.  0.
         -4    1    1    2    0  502  0.95626149843E+01 -0.41461527615E+02 -0.23969412419E+02  0.48853326491E+02  0.12700000000E+01 0.  1.
<mgrwt>
<rscale>  1 0.13206690E+03</rscale>
<asrwt>0</asrwt>
<pdfrwt beam="1">  1       21 0.36055082E-02 0.13206690E+03</pdfrwt>
<pdfrwt beam="2">  1       -4 0.66618205E-01 0.13206690E+03</pdfrwt>
<totfact> 0.39882419E+04</totfact>
</mgrwt>
</event>
<event>
 6    3  0.3813045E-003  0.1265949E+03  0.7818608E-02  0.1232598E+00
         21   -1    0    0  501  502  0.00000000000E+00  0.00000000000E+00  0.43193096790E+01  0.43193096790E+01  0.00000000000E+00 0.  1.
         -4   -1    0    0    0  501 -0.00000000000E+00 -0.00000000000E+00 -0.14398087413E+04  0.14398093014E+04  0.12700000000E+01 0.  1.
         25    2    1    2    0    0  0.18066556858E+02 -0.87835386896E+01 -0.13639198967E+04  0.13697823787E+04  0.12499091804E+03 0.  0.
    9000005    1    3    3    0    0 -0.23547178926E+02  0.37721103958E+02 -0.96363295551E+03  0.96465891602E+03  0.10000000000E+01 0.  0.
    9000005    1    3    3    0    0  0.41613735784E+02 -0.46504642648E+02 -0.40028694115E+03  0.40512346272E+03  0.10000000000E+01 0.  0.
         -4    1    1    2    0  502 -0.18066556858E+02  0.87835386896E+01 -0.71569534934E+02  0.74346232314E+02  0.12700000000E+01 0. -1.
<mgrwt>
<rscale>  1 0.12659495E+03</rscale>
<asrwt>0</asrwt>
<pdfrwt beam="1">  1       21 0.66450814E-03 0.12659495E+03</pdfrwt>
<pdfrwt beam="2">  1       -4 0.22152379E+00 0.12659495E+03</pdfrwt>
<totfact> 0.31046673E+04</totfact>
</mgrwt>
</event>
<event>
 6    3  0.3813045E-003  0.1267726E+03  0.7818608E-02  0.1232325E+00
          4   -1    0    0  502    0 -0.00000000000E+00  0.00000000000E+00  0.26050538031E+03  0.26050847600E+03  0.12700000000E+01 0.  1.
         21   -1    0    0  501  502  0.00000000000E+00 -0.00000000000E+00 -0.22967037409E+02  0.22967037409E+02  0.00000000000E+00 0.  1.
         25    2    1    2    0    0  0.21082065445E+02  0.10653201902E+01  0.22663745841E+03  0.25968411637E+03  0.12500285737E+03 0.  0.
    9000005    1    3    3    0    0  0.41254270794E+02  0.51308184606E+02  0.81503127979E+02  0.10477692750E+03  0.10000000000E+01 0.  0.
    9000005    1    3    3    0    0 -0.20172205350E+02 -0.50242864415E+02  0.14513433043E+03  0.15490718887E+03  0.10000000000E+01 0.  0.
          4    1    1    2  501    0 -0.21082065445E+02 -0.10653201902E+01  0.10900884486E+02  0.23791397040E+02  0.12700000000E+01 0. -1.
<mgrwt>
<rscale>  1 0.12677264E+03</rscale>
<asrwt>0</asrwt>
<pdfrwt beam="2">  1       21 0.35333906E-02 0.12677264E+03</pdfrwt>
<pdfrwt beam="1">  1        4 0.40080688E-01 0.12677264E+03</pdfrwt>
<totfact> 0.11604280E+05</totfact>
</mgrwt>
</event>
<event>
 6    3  0.3813045E-003  0.1272944E+03  0.7818608E-02  0.1231526E+00
         -4   -1    0    0    0  501 -0.00000000000E+00  0.00000000000E+00  0.10519091202E+03  0.10519857828E+03  0.12700000000E+01 0. -1.
         21   -1    0    0  501  502  0.00000000000E+00 -0.00000000000E+00 -0.60369922589E+02  0.60369922589E+02  0.00000000000E+00 0. -1.
         25    2    1    2    0    0 -0.21557023871E+02 -0.10681163406E+02  0.55929106642E+02  0.13903935279E+03  0.12500033650E+03 0.  0.
    9000005    1    3    3    0    0 -0.12029346609E+02  0.49265577398E+02 -0.74610785400E+01  0.51268606273E+02  0.10000000000E+01 0.  0.
    9000005    1    3    3    0    0 -0.95276772620E+01 -0.59946740805E+02  0.63390185182E+02  0.87770746519E+02  0.10000000000E+01 0.  0.
         -4    1    1    2    0  502  0.21557023871E+02  0.10681163406E+02 -0.11108117207E+02  0.26529148078E+02  0.12700000000E+01 0.  1.
<mgrwt>
<rscale>  1 0.12729445E+03</rscale>
<asrwt>0</asrwt>
<pdfrwt beam="2">  1       21 0.92876804E-02 0.12729445E+03</pdfrwt>
<pdfrwt beam="1">  1       -4 0.16184834E-01 0.12729445E+03</pdfrwt>
<totfact> 0.12135498E+05</totfact>
</mgrwt>
</event>
<event>
 6    3  0.3813045E-003  0.1288087E+03  0.7818608E-02  0.1229234E+00
         21   -1    0    0  501  502  0.00000000000E+00  0.00000000000E+00  0.29575656654E+03  0.29575656654E+03  0.00000000000E+00 0.  1.
          4   -1    0    0  502    0 -0.00000000000E+00 -0.00000000000E+00 -0.48893303520E+02  0.48909794818E+02  0.12700000000E+01 0. -1.
         25    2    1    2    0    0  0.10521429214E+02  0.29266422415E+02  0.39139940561E+02  0.13462394767E+03  0.12499779352E+03 0.  0.
    9000005    1    3    3    0    0 -0.26491281153E+02 -0.40994900495E+02  0.21077786965E+02  0.53175586006E+02  0.10000000000E+01 0.  0.
    9000005    1    3    3    0    0  0.37012710367E+02  0.70261322909E+02  0.18062153596E+02  0.81448361667E+02  0.10000000000E+01 0.  0.
          4    1    1    2  501    0 -0.10521429214E+02 -0.29266422415E+02  0.20772332246E+03  0.21004241369E+03  0.12700000000E+01 0.  1.
<mgrwt>
<rscale>  1 0.12880867E+03</rscale>
<asrwt>0</asrwt>
<pdfrwt beam="1">  1       21 0.45501009E-01 0.12880867E+03</pdfrwt>
<pdfrwt beam="2">  1        4 0.75235251E-02 0.12880867E+03</pdfrwt>
<totfact> 0.23069339E+04</totfact>
</mgrwt>
</event>
<event>
 6    3  0.3813045E-003  0.1296096E+03  0.7818608E-02  0.1228036E+00
          4   -1    0    0  502    0 -0.00000000000E+00  0.00000000000E+00  0.47395349443E+02  0.47412361772E+02  0.12700000000E+01 0.  1.
         21   -1    0    0  501  502  0.00000000000E+00 -0.00000000000E+00 -0.14723278756E+03  0.14723278756E+03  0.00000000000E+00 0.  1.
         25    2    1    2    0    0 -0.30584413331E+02 -0.15714065951E+02 -0.62570465899E+02  0.14392258704E+03  0.12496523376E+03 0.  0.
    9000005    1    3    3    0    0 -0.56119019933E+02  0.14057472773E+02 -0.81826366695E+02  0.10021731999E+03  0.10000000000E+01 0.  0.
    9000005    1    3    3    0    0  0.25534606602E+02 -0.29771538723E+02  0.19255900796E+02  0.43705267048E+02  0.10000000000E+01 0.  0.
          4    1    1    2  501    0  0.30584413331E+02  0.15714065951E+02 -0.37266972215E+02  0.50722562293E+02  0.12700000000E+01 0. -1.
<mgrwt>
<rscale>  1 0.12960960E+03</rscale>
<asrwt>0</asrwt>
<pdfrwt beam="2">  1       21 0.22651198E-01 0.12960960E+03</pdfrwt>
<pdfrwt beam="1">  1        4 0.72933221E-02 0.12960960E+03</pdfrwt>
<totfact> 0.94488912E+04</totfact>
</mgrwt>
</event>
<event>
 6    3  0.3813045E-003  0.1313691E+03  0.7818608E-02  0.1225438E+00
         -4   -1    0    0    0  501 -0.00000000000E+00  0.00000000000E+00  0.24787204549E+02  0.24819718156E+02  0.12700000000E+01 0.  1.
         21   -1    0    0  501  502  0.00000000000E+00 -0.00000000000E+00 -0.31024328743E+03  0.31024328743E+03  0.00000000000E+00 0.  1.
         25    2    1    2    0    0  0.39760561461E+02 -0.71720736288E+01 -0.18607392457E+03  0.22777476216E+03  0.12500198391E+03 0.  0.
    9000005    1    3    3    0    0 -0.35860339503E+02  0.89522002095E+01 -0.12159367915E+03  0.12709102504E+03  0.10000000000E+01 0.  0.
    9000005    1    3    3    0    0  0.75620900965E+02 -0.16124273838E+02 -0.64480245428E+02  0.10068373712E+03  0.10000000000E+01 0.  0.
         -4    1    1    2    0  502 -0.39760561461E+02  0.71720736288E+01 -0.99382158310E+02  0.10728824343E+03  0.12700000000E+01 0. -1.
<mgrwt>
<rscale>  1 0.13136909E+03</rscale>
<asrwt>0</asrwt>
<pdfrwt beam="2">  1       21 0.47729737E-01 0.13136909E+03</pdfrwt>
<pdfrwt beam="1">  1       -4 0.38161171E-02 0.13136909E+03</pdfrwt>
<totfact> 0.62694788E+04</totfact>
</mgrwt>
</event>
<event>
 6    3  0.3813045E-003  0.1354383E+03  0.7818608E-02  0.1219602E+00
         -4   -1    0    0    0  501 -0.00000000000E+00  0.00000000000E+00  0.57403600725E+03  0.57403741213E+03  0.12700000000E+01 0. -1.
         21   -1    0    0  501  502  0.00000000000E+00 -0.00000000000E+00 -0.41393533586E+02  0.41393533586E+02  0.00000000000E+00 0.  1.
         25    2    1    2    0    0  0.48806985519E+02 -0.18096311296E+02  0.54528117585E+03  0.56184971756E+03  0.12503577915E+03 0.  0.
    9000005    1    3    3    0    0  0.23528177113E+02  0.39361277290E+02  0.41174454787E+03  0.41429151327E+03  0.10000000000E+01 0.  0.
    9000005    1    3    3    0    0  0.25278808406E+02 -0.57457588586E+02  0.13353662797E+03  0.14755820428E+03  0.10000000000E+01 0.  0.
         -4    1    1    2    0  502 -0.48806985519E+02  0.18096311296E+02 -0.12638702180E+02  0.53581228157E+02  0.12700000000E+01 0.  1.
<mgrwt>
<rscale>  1 0.13543834E+03</rscale>
<asrwt>0</asrwt>
<pdfrwt beam="2">  1       21 0.63682363E-02 0.13543834E+03</pdfrwt>
<pdfrwt beam="1">  1       -4 0.88314833E-01 0.13543834E+03</pdfrwt>
<totfact> 0.82954902E+03</totfact>
</mgrwt>
</event>
<event>
 6    3  0.3813045E-003  0.1305211E+03  0.7818608E-02  0.1226685E+00
         -4   -1    0    0    0  501 -0.00000000000E+00  0.00000000000E+00  0.12138489048E+03  0.12139153404E+03  0.12700000000E+01 0.  1.
         21   -1    0    0  501  502  0.00000000000E+00 -0.00000000000E+00 -0.58690507106E+02  0.58690507106E+02  0.00000000000E+00 0. -1.
         25    2    1    2    0    0  0.36690591831E+02 -0.80168647208E+01  0.55455270064E+02  0.14181342071E+03  0.12500115866E+03 0.  0.
    9000005    1    3    3    0    0  0.24704736833E+02 -0.55197772995E+02 -0.88797522397E+01  0.61130746482E+02  0.10000000000E+01 0.  0.
    9000005    1    3    3    0    0  0.11985854998E+02  0.47180908274E+02  0.64335022304E+02  0.80682674227E+02  0.10000000000E+01 0.  0.
         -4    1    1    2    0  502 -0.36690591831E+02  0.80168647208E+01  0.72391133135E+01  0.38268620441E+02  0.12700000000E+01 0. -1.
<mgrwt>
<rscale>  1 0.13052111E+03</rscale>
<asrwt>0</asrwt>
<pdfrwt beam="2">  1       21 0.90293089E-02 0.13052111E+03</pdfrwt>
<pdfrwt beam="1">  1       -4 0.18676166E-01 0.13052111E+03</pdfrwt>
<totfact> 0.99288427E+04</totfact>
</mgrwt>
</event>
<event>
 6    3  0.3813045E-003  0.1276300E+03  0.7818608E-02  0.1231015E+00
         21   -1    0    0  501  502  0.00000000000E+00  0.00000000000E+00  0.24622074354E+03  0.24622074354E+03  0.00000000000E+00 0. -1.
          4   -1    0    0  502    0 -0.00000000000E+00 -0.00000000000E+00 -0.26468050799E+02  0.26498502091E+02  0.12700000000E+01 0.  1.
         25    2    1    2    0    0 -0.24137293493E+02 -0.91146250129E+01  0.14268646001E+03  0.19143885160E+03  0.12499489072E+03 0.  0.
    9000005    1    3    3    0    0 -0.34527607219E+02  0.53704822758E+02  0.75131609138E+02  0.98600823219E+02  0.10000000000E+01 0.  0.
    9000005    1    3    3    0    0  0.10390313726E+02 -0.62819447771E+02  0.67554850873E+02  0.92838028383E+02  0.10000000000E+01 0.  0.
          4    1    1    2  501    0  0.24137293493E+02  0.91146250129E+01  0.77066232733E+02  0.81280394031E+02  0.12700000000E+01 0. -1.
<mgrwt>
<rscale>  1 0.12762997E+03</rscale>
<asrwt>0</asrwt>
<pdfrwt beam="1">  1       21 0.37880113E-01 0.12762997E+03</pdfrwt>
<pdfrwt beam="2">  1        4 0.40746024E-02 0.12762997E+03</pdfrwt>
<totfact> 0.89738699E+04</totfact>
</mgrwt>
</event>
<event>
 6    3  0.3813045E-003  0.1368896E+03  0.7818608E-02  0.1217577E+00
          4   -1    0    0  502    0 -0.00000000000E+00  0.00000000000E+00  0.10638160468E+03  0.10638918514E+03  0.12700000000E+01 0. -1.
         21   -1    0    0  501  502  0.00000000000E+00 -0.00000000000E+00 -0.93622767891E+02  0.93622767891E+02  0.00000000000E+00 0.  1.
         25    2    1    2    0    0  0.55424358602E+02  0.52215201073E+01  0.32916398369E+02  0.14079148370E+03  0.12505850152E+03 0.  0.
    9000005    1    3    3    0    0  0.71076281965E+02  0.45132959765E+02  0.46013640095E+02  0.95953514734E+02  0.10000000000E+01 0.  0.
    9000005    1    3    3    0    0 -0.15651923363E+02 -0.39911439657E+02 -0.13097241726E+02  0.44837968969E+02  0.10000000000E+01 0.  0.
          4    1    1    2  501    0 -0.55424358602E+02 -0.52215201073E+01 -0.20157561577E+02  0.59220469328E+02  0.12700000000E+01 0.  1.
<mgrwt>
<rscale>  1 0.13688956E+03</rscale>
<asrwt>0</asrwt>
<pdfrwt beam="2">  1       21 0.14403503E-01 0.13688956E+03</pdfrwt>
<pdfrwt beam="1">  1        4 0.16367646E-01 0.13688956E+03</pdfrwt>
<totfact> 0.55290911E+04</totfact>
</mgrwt>
</event>
<event>
 6    3  0.3813045E-003  0.1285737E+03  0.7818608E-02  0.1229588E+00
         -4   -1    0    0    0  501 -0.00000000000E+00  0.00000000000E+00  0.48316435862E+02  0.48333123988E+02  0.12700000000E+01 0. -1.
         21   -1    0    0  501  502  0.00000000000E+00 -0.00000000000E+00 -0.16115643258E+03  0.16115643258E+03  0.00000000000E+00 0. -1.
         25    2    1    2    0    0  0.69026076992E+01 -0.29315852529E+02 -0.46678943481E+02  0.13678492764E+03  0.12499650980E+03 0.  0.
    9000005    1    3    3    0    0  0.39657953993E+02  0.33061089393E+02 -0.41288849913E+02  0.66117759142E+02  0.10000000000E+01 0.  0.
    9000005    1    3    3    0    0 -0.32755346293E+02 -0.62376941922E+02 -0.53900935678E+01  0.70667168495E+02  0.10000000000E+01 0.  0.
         -4    1    1    2    0  502 -0.69026076992E+01  0.29315852529E+02 -0.66161053234E+02  0.72704628928E+02  0.12700000000E+01 0.  1.
<mgrwt>
<rscale>  1 0.12857369E+03</rscale>
<asrwt>0</asrwt>
<pdfrwt beam="2">  1       21 0.24793297E-01 0.12857369E+03</pdfrwt>
<pdfrwt beam="1">  1       -4 0.74349665E-02 0.12857369E+03</pdfrwt>
<totfact> 0.77164484E+04</totfact>
</mgrwt>
</event>
<event>
 6    3  0.3813045E-003  0.1350714E+03  0.7818608E-02  0.1220119E+00
         21   -1    0    0  501  502  0.00000000000E+00  0.00000000000E+00  0.47427809794E+03  0.47427809794E+03  0.00000000000E+00 0. -1.
         -4   -1    0    0    0  501 -0.00000000000E+00 -0.00000000000E+00 -0.47836483726E+02  0.47853339228E+02  0.12700000000E+01 0.  1.
         25    2    1    2    0    0  0.50292144825E+02 -0.94708696903E+01  0.52840415326E+02  0.14503931856E+03  0.12500118893E+03 0.  0.
    9000005    1    3    3    0    0  0.91982574511E+01 -0.52779494582E+02 -0.14029369892E+02  0.55390488426E+02  0.10000000000E+01 0.  0.
    9000005    1    3    3    0    0  0.41093887374E+02  0.43308624892E+02  0.66869785218E+02  0.89648830135E+02  0.10000000000E+01 0.  0.
         -4    1    1    2    0  502 -0.50292144825E+02  0.94708696903E+01  0.37360119889E+03  0.37709211861E+03  0.12700000000E+01 0. -1.
<mgrwt>
<rscale>  1 0.13507144E+03</rscale>
<asrwt>0</asrwt>
<pdfrwt beam="1">  1       21 0.72965858E-01 0.13507144E+03</pdfrwt>
<pdfrwt beam="2">  1       -4 0.73608867E-02 0.13507144E+03</pdfrwt>
<totfact> 0.88506985E+03</totfact>
</mgrwt>
</event>
<event>
 6    3  0.3813045E-003  0.1522244E+03  0.7818608E-02  0.1197766E+00
         21   -1    0    0  501  502  0.00000000000E+00  0.00000000000E+00  0.29062218400E+03  0.29062218400E+03  0.00000000000E+00 0.  1.
         -4   -1    0    0    0  501 -0.00000000000E+00 -0.00000000000E+00 -0.70861341968E+02  0.70872721731E+02  0.12700000000E+01 0.  1.
         25    2    1    2    0    0 -0.61364605316E+02 -0.61497550676E+02  0.33357365414E+02  0.15583637194E+03  0.12499878987E+03 0.  0.
    9000005    1    3    3    0    0 -0.16133877145E+02 -0.78159794390E+02 -0.21642889155E+02  0.82696252042E+02  0.10000000000E+01 0.  0.
    9000005    1    3    3    0    0 -0.45230728171E+02  0.16662243713E+02  0.55000254569E+02  0.73140119901E+02  0.10000000000E+01 0.  0.
         -4    1    1    2    0  502  0.61364605316E+02  0.61497550676E+02  0.18640347662E+03  0.20565853379E+03  0.12700000000E+01 0. -1.
<mgrwt>
<rscale>  1 0.15222438E+03</rscale>
<asrwt>0</asrwt>
<pdfrwt beam="1">  1       21 0.44711105E-01 0.15222438E+03</pdfrwt>
<pdfrwt beam="2">  1       -4 0.10902834E-01 0.15222438E+03</pdfrwt>
<totfact> 0.13031572E+04</totfact>
</mgrwt>
</event>
<event>
 6    3  0.3813045E-003  0.1280591E+03  0.7818608E-02  0.1230364E+00
         21   -1    0    0  501  502  0.00000000000E+00  0.00000000000E+00  0.28238146345E+02  0.28238146345E+02  0.00000000000E+00 0. -1.
          4   -1    0    0  502    0 -0.00000000000E+00 -0.00000000000E+00 -0.44887447315E+03  0.44887626975E+03  0.12700000000E+01 0. -1.
         25    2    1    2    0    0 -0.21513116150E+02  0.17667245974E+02 -0.42925139293E+03  0.44794631689E+03  0.12499679492E+03 0.  0.
    9000005    1    3    3    0    0 -0.29873602446E+02 -0.19071122514E+02 -0.28674343358E+02  0.45599975921E+02  0.10000000000E+01 0.  0.
    9000005    1    3    3    0    0  0.83604862959E+01  0.36738368488E+02 -0.40057704957E+03  0.40234634097E+03  0.10000000000E+01 0.  0.
          4    1    1    2  501    0  0.21513116150E+02 -0.17667245974E+02  0.86150661236E+01  0.29168099203E+02  0.12700000000E+01 0.  1.
<mgrwt>
<rscale>  1 0.12805914E+03</rscale>
<asrwt>0</asrwt>
<pdfrwt beam="1">  1       21 0.43443303E-02 0.12805914E+03</pdfrwt>
<pdfrwt beam="2">  1        4 0.69059945E-01 0.12805914E+03</pdfrwt>
<totfact> 0.26987396E+04</totfact>
</mgrwt>
</event>
<event>
 6    3  0.3813045E-003  0.1279893E+03  0.7818608E-02  0.1230470E+00
         21   -1    0    0  501  502  0.00000000000E+00  0.00000000000E+00  0.41200419707E+03  0.41200419707E+03  0.00000000000E+00 0. -1.
          4   -1    0    0  502    0 -0.00000000000E+00 -0.00000000000E+00 -0.31920992870E+02  0.31946246819E+02  0.12700000000E+01 0. -1.
         25    2    1    2    0    0  0.25143994403E+02 -0.11128306759E+02  0.99750507027E+02  0.16226960736E+03  0.12500080861E+03 0.  0.
    9000005    1    3    3    0    0 -0.40949713685E+02  0.15435217325E+02  0.54892719958E+01  0.44116403886E+02  0.10000000000E+01 0.  0.
    9000005    1    3    3    0    0  0.66093708088E+02 -0.26563524084E+02  0.94261235031E+02  0.11815320347E+03  0.10000000000E+01 0.  0.
          4    1    1    2  501    0 -0.25143994403E+02  0.11128306759E+02  0.28033269717E+03  0.28168083653E+03  0.12700000000E+01 0.  1.
<mgrwt>
<rscale>  1 0.12798930E+03</rscale>
<asrwt>0</asrwt>
<pdfrwt beam="1">  1       21 0.63385257E-01 0.12798930E+03</pdfrwt>
<pdfrwt beam="2">  1        4 0.49130154E-02 0.12798930E+03</pdfrwt>
<totfact> 0.23074769E+04</totfact>
</mgrwt>
</event>
<event>
 6    3  0.3813045E-003  0.1290784E+03  0.7818608E-02  0.1228830E+00
         21   -1    0    0  501  502  0.00000000000E+00  0.00000000000E+00  0.13338491067E+04  0.13338491067E+04  0.00000000000E+00 0. -1.
          4   -1    0    0  502    0 -0.00000000000E+00 -0.00000000000E+00 -0.48873326531E+01  0.50496455778E+01  0.12700000000E+01 0. -1.
         25    2    1    2    0    0 -0.29670818319E+02  0.12491903911E+02  0.98263038514E+03  0.99107200091E+03  0.12499932828E+03 0.  0.
    9000005    1    3    3    0    0 -0.64610639669E+02 -0.32295590951E+02  0.55989728249E+03  0.56453831305E+03  0.10000000000E+01 0.  0.
    9000005    1    3    3    0    0  0.34939821351E+02  0.44787494862E+02  0.42273310264E+03  0.42653368786E+03  0.10000000000E+01 0.  0.
          4    1    1    2  501    0  0.29670818319E+02 -0.12491903911E+02  0.34633138895E+03  0.34782675141E+03  0.12700000000E+01 0.  1.
<mgrwt>
<rscale>  1 0.12907841E+03</rscale>
<asrwt>0</asrwt>
<pdfrwt beam="1">  1       21 0.20520727E+00 0.12907841E+03</pdfrwt>
<pdfrwt beam="2">  1        4 0.76443051E-03 0.12907841E+03</pdfrwt>
<totfact> 0.22892577E+04</totfact>
</mgrwt>
</event>
<event>
 6    3  0.3813045E-003  0.1812825E+03  0.7818608E-02  0.1166568E+00
          4   -1    0    0  502    0 -0.00000000000E+00  0.00000000000E+00  0.12423139506E+03  0.12423788641E+03  0.12700000000E+01 0. -1.
         21   -1    0    0  501  502  0.00000000000E+00 -0.00000000000E+00 -0.21996022143E+03  0.21996022143E+03  0.00000000000E+00 0.  1.
         25    2    1    2    0    0  0.75990977262E+02  0.10706632871E+03  0.71596661652E+00  0.18128390230E+03  0.12500205301E+03 0.  0.
    9000005    1    3    3    0    0 -0.58802310098E+01  0.98005695738E+02  0.84195593482E+01  0.98547361677E+02  0.10000000000E+01 0.  0.
    9000005    1    3    3    0    0  0.81871208272E+02  0.90606329756E+01 -0.77035927317E+01  0.82736540626E+02  0.10000000000E+01 0.  0.
          4    1    1    2  501    0 -0.75990977262E+02 -0.10706632871E+03 -0.96444792982E+02  0.16291420553E+03  0.12700000000E+01 0.  1.
<mgrwt>
<rscale>  1 0.18128249E+03</rscale>
<asrwt>0</asrwt>
<pdfrwt beam="2">  1       21 0.33840034E-01 0.18128249E+03</pdfrwt>
<pdfrwt beam="1">  1        4 0.19113304E-01 0.18128249E+03</pdfrwt>
<totfact> 0.86345309E+03</totfact>
</mgrwt>
</event>
<event>
 6    3  0.3813045E-003  0.1326993E+03  0.7818608E-02  0.1223505E+00
          4   -1    0    0  502    0 -0.00000000000E+00  0.00000000000E+00  0.52966175463E+03  0.52966327720E+03  0.12700000000E+01 0. -1.
         21   -1    0    0  501  502  0.00000000000E+00 -0.00000000000E+00 -0.14843755918E+02  0.14843755918E+02  0.00000000000E+00 0. -1.
         25    2    1    2    0    0  0.56325243451E+01 -0.44191719790E+02  0.39218356095E+03  0.41402541889E+03  0.12499787428E+03 0.  0.
    9000005    1    3    3    0    0  0.16424004441E+02  0.40703241691E+02  0.17897073581E+03  0.18427703623E+03  0.10000000000E+01 0.  0.
    9000005    1    3    3    0    0 -0.10791480096E+02 -0.84894961481E+02  0.21321282514E+03  0.22974838265E+03  0.10000000000E+01 0.  0.
          4    1    1    2  501    0 -0.56325243451E+01  0.44191719790E+02  0.12263443776E+03  0.13048161424E+03  0.12700000000E+01 0.  1.
<mgrwt>
<rscale>  1 0.13269929E+03</rscale>
<asrwt>0</asrwt>
<pdfrwt beam="2">  1       21 0.22836552E-02 0.13269929E+03</pdfrwt>
<pdfrwt beam="1">  1        4 0.81490705E-01 0.13269929E+03</pdfrwt>
<totfact> 0.54380776E+04</totfact>
</mgrwt>
</event>
<event>
 6    3  0.3813045E-003  0.1268371E+03  0.7818608E-02  0.1232226E+00
         -4   -1    0    0    0  501 -0.00000000000E+00  0.00000000000E+00  0.70580612248E+02  0.70592037265E+02  0.12700000000E+01 0.  1.
         21   -1    0    0  501  502  0.00000000000E+00 -0.00000000000E+00 -0.83355055055E+02  0.83355055055E+02  0.00000000000E+00 0. -1.
         25    2    1    2    0    0  0.21332542376E+02 -0.28030133978E+01  0.35859182315E+01  0.12688773975E+03  0.12499882176E+03 0.  0.
    9000005    1    3    3    0    0 -0.40191463008E+02 -0.35299175522E+02 -0.13616861335E+02  0.55206923514E+02  0.10000000000E+01 0.  0.
    9000005    1    3    3    0    0  0.61524005383E+02  0.32496162124E+02  0.17202779567E+02  0.71680816234E+02  0.10000000000E+01 0.  0.
         -4    1    1    2    0  502 -0.21332542376E+02  0.28030133978E+01 -0.16360361038E+02  0.27059352572E+02  0.12700000000E+01 0. -1.
<mgrwt>
<rscale>  1 0.12683706E+03</rscale>
<asrwt>0</asrwt>
<pdfrwt beam="2">  1       21 0.12823855E-01 0.12683706E+03</pdfrwt>
<pdfrwt beam="1">  1       -4 0.10860179E-01 0.12683706E+03</pdfrwt>
<totfact> 0.13678880E+05</totfact>
</mgrwt>
</event>
<event>
 6    3  0.3813045E-003  0.1270555E+03  0.7818608E-02  0.1231891E+00
         21   -1    0    0  501  502  0.00000000000E+00  0.00000000000E+00  0.63087476371E+03  0.63087476371E+03  0.00000000000E+00 0.  1.
          4   -1    0    0  502    0 -0.00000000000E+00 -0.00000000000E+00 -0.91934666378E+01  0.92807719948E+01  0.12700000000E+01 0.  1.
         25    2    1    2    0    0 -0.20432863514E+02 -0.99489697222E+01  0.56425136096E+03  0.57837937225E+03  0.12500646377E+03 0.  0.
    9000005    1    3    3    0    0 -0.29586133179E+02 -0.85514062114E+00  0.56465554413E+03  0.56543165286E+03  0.10000000000E+01 0.  0.
    9000005    1    3    3    0    0  0.91532696645E+01 -0.90938291011E+01 -0.40418316672E+00  0.12947719386E+02  0.10000000000E+01 0.  0.
          4    1    1    2  501    0  0.20432863514E+02  0.99489697222E+01  0.57429936113E+02  0.61776163460E+02  0.12700000000E+01 0. -1.
<mgrwt>
<rscale>  1 0.12705550E+03</rscale>
<asrwt>0</asrwt>
<pdfrwt beam="1">  1       21 0.97057622E-01 0.12705550E+03</pdfrwt>
<pdfrwt beam="2">  1        4 0.14211941E-02 0.12705550E+03</pdfrwt>
<totfact> 0.61637977E+04</totfact>
</mgrwt>
</event>
<event>
 6    3  0.3813045E-003  0.1340766E+03  0.7818608E-02  0.1221529E+00
         21   -1    0    0  501  502  0.00000000000E+00  0.00000000000E+00  0.16204911559E+02  0.16204911559E+02  0.00000000000E+00 0. -1.
          4   -1    0    0  502    0 -0.00000000000E+00 -0.00000000000E+00 -0.51609436114E+03  0.51609592374E+03  0.12700000000E+01 0. -1.
         25    2    1    2    0    0  0.46886433088E+02 -0.12361750866E+02 -0.35266861250E+03  0.37729522810E+03  0.12500155364E+03 0.  0.
    9000005    1    3    3    0    0 -0.23679363599E+02 -0.23511741231E+02 -0.24424468247E+02  0.41365068419E+02  0.10000000000E+01 0.  0.
    9000005    1    3    3    0    0  0.70565796687E+02  0.11149990364E+02 -0.32824414425E+03  0.33593015968E+03  0.10000000000E+01 0.  0.
          4    1    1    2  501    0 -0.46886433088E+02  0.12361750866E+02 -0.14722083708E+03  0.15500560720E+03  0.12700000000E+01 0.  1.
<mgrwt>
<rscale>  1 0.13407662E+03</rscale>
<asrwt>0</asrwt>
<pdfrwt beam="1">  1       21 0.24930638E-02 0.13407662E+03</pdfrwt>
<pdfrwt beam="2">  1        4 0.79403066E-01 0.13407662E+03</pdfrwt>
<totfact> 0.50003140E+04</totfact>
</mgrwt>
</event>
<event>
 6    3  0.3813045E-003  0.1372899E+03  0.7818608E-02  0.1217023E+00
         21   -1    0    0  501  502  0.00000000000E+00  0.00000000000E+00  0.79249608048E+02  0.79249608048E+02  0.00000000000E+00 0.  1.
          4   -1    0    0  502    0 -0.00000000000E+00 -0.00000000000E+00 -0.15745335562E+03  0.15745847737E+03  0.12700000000E+01 0. -1.
         25    2    1    2    0    0  0.56624570491E+02  0.40398261802E+01 -0.10603627898E+03  0.17347103233E+03  0.12500337763E+03 0.  0.
    9000005    1    3    3    0    0 -0.22088001082E+02 -0.29473630407E+02 -0.72975336336E+02  0.81749461127E+02  0.10000000000E+01 0.  0.
    9000005    1    3    3    0    0  0.78712571573E+02  0.33513456587E+02 -0.33060942647E+02  0.91721571207E+02  0.10000000000E+01 0.  0.
          4    1    1    2  501    0 -0.56624570491E+02 -0.40398261802E+01  0.27832531408E+02  0.63237053089E+02  0.12700000000E+01 0.  1.
<mgrwt>
<rscale>  1 0.13728986E+03</rscale>
<asrwt>0</asrwt>
<pdfrwt beam="1">  1       21 0.12192247E-01 0.13728986E+03</pdfrwt>
<pdfrwt beam="2">  1        4 0.24224770E-01 0.13728986E+03</pdfrwt>
<totfact> 0.36803290E+04</totfact>
</mgrwt>
</event>
<event>
 6    3  0.3813045E-003  0.1314698E+03  0.7818608E-02  0.1225291E+00
          4   -1    0    0  502    0 -0.00000000000E+00  0.00000000000E+00  0.24454406439E+03  0.24454736214E+03  0.12700000000E+01 0. -1.
         21   -1    0    0  501  502  0.00000000000E+00 -0.00000000000E+00 -0.30340666654E+02  0.30340666654E+02  0.00000000000E+00 0. -1.
         25    2    1    2    0    0  0.30455021975E+01 -0.40622567746E+02  0.16056250436E+03  0.20752018457E+03  0.12499936440E+03 0.  0.
    9000005    1    3    3    0    0  0.44735764543E+02 -0.11134908663E+02  0.82128660087E+01  0.46837228657E+02  0.10000000000E+01 0.  0.
    9000005    1    3    3    0    0 -0.41690262346E+02 -0.29487659083E+02  0.15234963836E+03  0.16068295591E+03  0.10000000000E+01 0.  0.
          4    1    1    2  501    0 -0.30455021975E+01  0.40622567746E+02  0.53640893376E+02  0.67367844229E+02  0.12700000000E+01 0.  1.
<mgrwt>
<rscale>  1 0.13146980E+03</rscale>
<asrwt>0</asrwt>
<pdfrwt beam="2">  1       21 0.46677950E-02 0.13146980E+03</pdfrwt>
<pdfrwt beam="1">  1        4 0.37624461E-01 0.13146980E+03</pdfrwt>
<totfact> 0.83114762E+04</totfact>
</mgrwt>
</event>
<event>
 6    3  0.3813045E-003  0.1339953E+03  0.7818608E-02  0.1221645E+00
         21   -1    0    0  501  502  0.00000000000E+00  0.00000000000E+00  0.97660833544E+02  0.97660833544E+02  0.00000000000E+00 0.  1.
          4   -1    0    0  502    0 -0.00000000000E+00 -0.00000000000E+00 -0.23315919810E+03  0.23316265687E+03  0.12700000000E+01 0. -1.
         25    2    1    2    0    0 -0.33555875979E+01 -0.48156670412E+02 -0.20577388957E+03  0.24555575215E+03  0.12499763564E+03 0.  0.
    9000005    1    3    3    0    0 -0.23195481652E+01 -0.61598941216E+02 -0.28764630604E+02  0.68030977035E+02  0.10000000000E+01 0.  0.
    9000005    1    3    3    0    0 -0.10360394328E+01  0.13442270804E+02 -0.17700925896E+03  0.17752477512E+03  0.10000000000E+01 0.  0.
          4    1    1    2  501    0  0.33555875979E+01  0.48156670412E+02  0.70275525008E+02  0.85267738263E+02  0.12700000000E+01 0.  1.
<mgrwt>
<rscale>  1 0.13399528E+03</rscale>
<asrwt>0</asrwt>
<pdfrwt beam="1">  1       21 0.15024744E-01 0.13399528E+03</pdfrwt>
<pdfrwt beam="2">  1        4 0.35871547E-01 0.13399528E+03</pdfrwt>
<totfact> 0.12045396E+04</totfact>
</mgrwt>
</event>
<event>
 6    3  0.3813045E-003  0.1288822E+03  0.7818608E-02  0.1229124E+00
          4   -1    0    0  502    0 -0.00000000000E+00  0.00000000000E+00  0.10279840109E+03  0.10280624576E+03  0.12700000000E+01 0. -1.
         21   -1    0    0  501  502  0.00000000000E+00 -0.00000000000E+00 -0.15681593209E+03  0.15681593209E+03  0.00000000000E+00 0.  1.
         25    2    1    2    0    0  0.13023871598E+02 -0.28552671100E+02  0.59417486506E+02  0.14191919422E+03  0.12500297487E+03 0.  0.
    9000005    1    3    3    0    0  0.55512599741E+02 -0.12851525190E+02 -0.11138965486E+02  0.58067951418E+02  0.10000000000E+01 0.  0.
    9000005    1    3    3    0    0 -0.42488728143E+02 -0.15701145909E+02  0.70556451992E+02  0.83851242804E+02  0.10000000000E+01 0.  0.
          4    1    1    2  501    0 -0.13023871598E+02  0.28552671100E+02 -0.11343501750E+03  0.11770298362E+03  0.12700000000E+01 0.  1.
<mgrwt>
<rscale>  1 0.12888219E+03</rscale>
<asrwt>0</asrwt>
<pdfrwt beam="2">  1       21 0.24125528E-01 0.12888219E+03</pdfrwt>
<pdfrwt beam="1">  1        4 0.15816138E-01 0.12888219E+03</pdfrwt>
<totfact> 0.22590568E+04</totfact>
</mgrwt>
</event>
<event>
 6    3  0.3813045E-003  0.1275120E+03  0.7818608E-02  0.1231195E+00
         21   -1    0    0  501  502  0.00000000000E+00  0.00000000000E+00  0.26414403891E+02  0.26414403891E+02  0.00000000000E+00 0.  1.
         -4   -1    0    0    0  501 -0.00000000000E+00 -0.00000000000E+00 -0.23625321593E+03  0.23625662941E+03  0.12700000000E+01 0.  1.
         25    2    1    2    0    0  0.20042569058E+02 -0.15257111894E+02 -0.19620909109E+03  0.23400282388E+03  0.12499932048E+03 0.  0.
    9000005    1    3    3    0    0 -0.40848598897E+02  0.19349341171E+02 -0.31741577780E+02  0.55240680622E+02  0.10000000000E+01 0.  0.
    9000005    1    3    3    0    0  0.60891167955E+02 -0.34606453065E+02 -0.16446751331E+03  0.17876214326E+03  0.10000000000E+01 0.  0.
         -4    1    1    2    0  502 -0.20042569058E+02  0.15257111894E+02 -0.13629720950E+02  0.28668209414E+02  0.12700000000E+01 0. -1.
<mgrwt>
<rscale>  1 0.12751202E+03</rscale>
<asrwt>0</asrwt>
<pdfrwt beam="1">  1       21 0.40637546E-02 0.12751202E+03</pdfrwt>
<pdfrwt beam="2">  1       -4 0.36349258E-01 0.12751202E+03</pdfrwt>
<totfact> 0.11148630E+05</totfact>
</mgrwt>
</event>
<event>
 6    3  0.3813045E-003  0.1278299E+03  0.7818608E-02  0.1230712E+00
          4   -1    0    0  502    0 -0.00000000000E+00  0.00000000000E+00  0.10658097425E+03  0.10658854053E+03  0.12700000000E+01 0. -1.
         21   -1    0    0  501  502  0.00000000000E+00 -0.00000000000E+00 -0.11906364903E+03  0.11906364903E+03  0.00000000000E+00 0.  1.
         25    2    1    2    0    0 -0.26598656829E+02  0.23189850299E+01  0.65201407097E+02  0.14349809219E+03  0.12501045052E+03 0.  0.
    9000005    1    3    3    0    0  0.85791939961E+01  0.12040336311E+02  0.95137253622E+02  0.96284314895E+02  0.10000000000E+01 0.  0.
    9000005    1    3    3    0    0 -0.35177850825E+02 -0.97213512808E+01 -0.29935846525E+02  0.47213777296E+02  0.10000000000E+01 0.  0.
          4    1    1    2  501    0  0.26598656829E+02 -0.23189850299E+01 -0.77684081881E+02  0.82154097368E+02  0.12700000000E+01 0.  1.
<mgrwt>
<rscale>  1 0.12782988E+03</rscale>
<asrwt>0</asrwt>
<pdfrwt beam="2">  1       21 0.18317484E-01 0.12782988E+03</pdfrwt>
<pdfrwt beam="1">  1        4 0.16398176E-01 0.12782988E+03</pdfrwt>
<totfact> 0.35331935E+04</totfact>
</mgrwt>
</event>
<event>
 6    3  0.3813045E-003  0.1269799E+03  0.7818608E-02  0.1232007E+00
          4   -1    0    0  502    0 -0.00000000000E+00  0.00000000000E+00  0.37432245479E+03  0.37432460921E+03  0.12700000000E+01 0.  1.
         21   -1    0    0  501  502  0.00000000000E+00 -0.00000000000E+00 -0.43862505820E+02  0.43862505820E+02  0.00000000000E+00 0. -1.
         25    2    1    2    0    0  0.16333500337E+02  0.15224445534E+02  0.35965367145E+03  0.38141139875E+03  0.12500129893E+03 0.  0.
    9000005    1    3    3    0    0  0.21722181625E+02  0.24130137626E+02  0.36712522392E+03  0.36855942093E+03  0.10000000000E+01 0.  0.
    9000005    1    3    3    0    0 -0.53886812880E+01 -0.89056920925E+01 -0.74715524698E+01  0.12851977824E+02  0.10000000000E+01 0.  0.
          4    1    1    2  501    0 -0.16333500337E+02 -0.15224445534E+02 -0.29193722484E+02  0.36775716275E+02  0.12700000000E+01 0. -1.
<mgrwt>
<rscale>  1 0.12697989E+03</rscale>
<asrwt>0</asrwt>
<pdfrwt beam="2">  1       21 0.67480781E-02 0.12697989E+03</pdfrwt>
<pdfrwt beam="1">  1        4 0.57589648E-01 0.12697989E+03</pdfrwt>
<totfact> 0.18840366E+04</totfact>
</mgrwt>
</event>
<event>
 6    3  0.3813045E-003  0.1446646E+03  0.7818608E-02  0.1207187E+00
         -4   -1    0    0    0  501 -0.00000000000E+00  0.00000000000E+00  0.91939714784E+02  0.91948485874E+02  0.12700000000E+01 0. -1.
         21   -1    0    0  501  502  0.00000000000E+00 -0.00000000000E+00 -0.16158273569E+03  0.16158273569E+03  0.00000000000E+00 0.  1.
         25    2    1    2    0    0 -0.72161915919E+02 -0.97838128553E+01  0.10736041811E+02  0.14506246235E+03  0.12499916114E+03 0.  0.
    9000005    1    3    3    0    0  0.30527130450E+02  0.20941124399E+02  0.77160910366E+01  0.37828222870E+02  0.10000000000E+01 0.  0.
    9000005    1    3    3    0    0 -0.10268904637E+03 -0.30724937254E+02  0.30199507743E+01  0.10723423948E+03  0.10000000000E+01 0.  0.
         -4    1    1    2    0  502  0.72161915919E+02  0.97838128553E+01 -0.80379062722E+02  0.10846875922E+03  0.12700000000E+01 0.  1.
<mgrwt>
<rscale>  1 0.14466463E+03</rscale>
<asrwt>0</asrwt>
<pdfrwt beam="2">  1       21 0.24858882E-01 0.14466463E+03</pdfrwt>
<pdfrwt beam="1">  1       -4 0.14145630E-01 0.14466463E+03</pdfrwt>
<totfact> 0.26238622E+04</totfact>
</mgrwt>
</event>
<event>
 6    3  0.3813045E-003  0.1269601E+03  0.7818608E-02  0.1232037E+00
         21   -1    0    0  501  502  0.00000000000E+00  0.00000000000E+00  0.33448829716E+02  0.33448829716E+02  0.00000000000E+00 0.  1.
         -4   -1    0    0    0  501 -0.00000000000E+00 -0.00000000000E+00 -0.23872413017E+03  0.23872750831E+03  0.12700000000E+01 0. -1.
         25    2    1    2    0    0 -0.20191784849E+02 -0.92954459142E+01 -0.21353626888E+03  0.24842828570E+03  0.12499904606E+03 0.  0.
    9000005    1    3    3    0    0  0.30000392768E+02 -0.81933940352E+01 -0.19077577991E+03  0.19329654284E+03  0.10000000000E+01 0.  0.
    9000005    1    3    3    0    0 -0.50192177617E+02 -0.11020518790E+01 -0.22760488970E+02  0.55131742857E+02  0.10000000000E+01 0.  0.
         -4    1    1    2    0  502  0.20191784849E+02  0.92954459142E+01  0.82609684317E+01  0.23748052332E+02  0.12700000000E+01 0.  1.
<mgrwt>
<rscale>  1 0.12696013E+03</rscale>
<asrwt>0</asrwt>
<pdfrwt beam="1">  1       21 0.51459739E-02 0.12696013E+03</pdfrwt>
<pdfrwt beam="2">  1       -4 0.36728903E-01 0.12696013E+03</pdfrwt>
<totfact> 0.73585154E+04</totfact>
</mgrwt>
</event>
<event>
 6    3  0.3813045E-003  0.1280914E+03  0.7818608E-02  0.1230316E+00
         -4   -1    0    0    0  501 -0.00000000000E+00  0.00000000000E+00  0.36983570499E+03  0.36983788555E+03  0.12700000000E+01 0. -1.
         21   -1    0    0  501  502  0.00000000000E+00 -0.00000000000E+00 -0.18468492107E+02  0.18468492107E+02  0.00000000000E+00 0. -1.
         25    2    1    2    0    0 -0.25998338176E+02  0.10359029509E+02  0.32694203533E+03  0.35113884776E+03  0.12499669139E+03 0.  0.
    9000005    1    3    3    0    0  0.42206643954E+02 -0.17130592347E+02  0.19330804017E+03  0.19860477432E+03  0.10000000000E+01 0.  0.
    9000005    1    3    3    0    0 -0.68204982129E+02  0.27489621856E+02  0.13363399516E+03  0.15253407344E+03  0.10000000000E+01 0.  0.
         -4    1    1    2    0  502  0.25998338176E+02 -0.10359029509E+02  0.24425177557E+02  0.37167529901E+02  0.12700000000E+01 0.  1.
<mgrwt>
<rscale>  1 0.12809136E+03</rscale>
<asrwt>0</asrwt>
<pdfrwt beam="2">  1       21 0.28413068E-02 0.12809136E+03</pdfrwt>
<pdfrwt beam="1">  1       -4 0.56901322E-01 0.12809136E+03</pdfrwt>
<totfact> 0.81927476E+04</totfact>
</mgrwt>
</event>
<event>
 6    3  0.3813045E-003  0.1310143E+03  0.7818608E-02  0.1225958E+00
          4   -1    0    0  502    0 -0.00000000000E+00  0.00000000000E+00  0.92111684301E+03  0.92111771852E+03  0.12700000000E+01 0. -1.
         21   -1    0    0  501  502  0.00000000000E+00 -0.00000000000E+00 -0.21800282372E+02  0.21800282372E+02  0.00000000000E+00 0.  1.
         25    2    1    2    0    0 -0.23591623084E+02  0.31362454154E+02  0.89370079960E+03  0.90325292958E+03  0.12499826951E+03 0.  0.
    9000005    1    3    3    0    0 -0.16025642153E+02  0.77841097635E+02  0.66642570296E+03  0.67114847482E+03  0.10000000000E+01 0.  0.
    9000005    1    3    3    0    0 -0.75659809310E+01 -0.46478643481E+02  0.22727509664E+03  0.23210445476E+03  0.10000000000E+01 0.  0.
          4    1    1    2  501    0  0.23591623084E+02 -0.31362454154E+02  0.56157610388E+01  0.39665071314E+02  0.12700000000E+01 0.  1.
<mgrwt>
<rscale>  1 0.13101426E+03</rscale>
<asrwt>0</asrwt>
<pdfrwt beam="2">  1       21 0.33538903E-02 0.13101426E+03</pdfrwt>
<pdfrwt beam="1">  1        4 0.14171317E+00 0.13101426E+03</pdfrwt>
<totfact> 0.78970638E+03</totfact>
</mgrwt>
</event>
<event>
 6    3  0.3813045E-003  0.1301266E+03  0.7818608E-02  0.1227268E+00
         21   -1    0    0  501  502  0.00000000000E+00  0.00000000000E+00  0.26418582832E+03  0.26418582832E+03  0.00000000000E+00 0. -1.
         -4   -1    0    0    0  501 -0.00000000000E+00 -0.00000000000E+00 -0.26316166735E+02  0.26346793574E+02  0.12700000000E+01 0. -1.
         25    2    1    2    0    0  0.14992629511E+02  0.32913623823E+02  0.19498384394E+03  0.23441763434E+03  0.12499936928E+03 0.  0.
    9000005    1    3    3    0    0 -0.50190211811E+02  0.31048899061E+02  0.12786835719E+03  0.14083468417E+03  0.10000000000E+01 0.  0.
    9000005    1    3    3    0    0  0.65182841322E+02  0.18647247622E+01  0.67115486749E+02  0.93582950171E+02  0.10000000000E+01 0.  0.
         -4    1    1    2    0  502 -0.14992629511E+02 -0.32913623823E+02  0.42885817638E+02  0.56114987546E+02  0.12700000000E+01 0.  1.
<mgrwt>
<rscale>  1 0.13012658E+03</rscale>
<asrwt>0</asrwt>
<pdfrwt beam="1">  1       21 0.40643972E-01 0.13012658E+03</pdfrwt>
<pdfrwt beam="2">  1       -4 0.40512319E-02 0.13012658E+03</pdfrwt>
<totfact> 0.78890955E+04</totfact>
</mgrwt>
</event>
<event>
 6    3  0.3813045E-003  0.1268461E+03  0.7818608E-02  0.1232212E+00
         -4   -1    0    0    0  501 -0.00000000000E+00  0.00000000000E+00  0.40014491935E+03  0.40014693474E+03  0.12700000000E+01 0. -1.
         21   -1    0    0  501  502  0.00000000000E+00 -0.00000000000E+00 -0.19326604339E+02  0.19326604339E+02  0.00000000000E+00 0.  1.
         25    2    1    2    0    0  0.90355960684E+01 -0.19586204365E+02  0.37669236133E+03  0.39747586212E+03  0.12499865792E+03 0.  0.
    9000005    1    3    3    0    0  0.22881464969E+02 -0.11623868877E+02  0.38022150720E+03  0.38108800861E+03  0.10000000000E+01 0.  0.
    9000005    1    3    3    0    0 -0.13845868901E+02 -0.79623354884E+01 -0.35291458692E+01  0.16387853508E+02  0.10000000000E+01 0.  0.
         -4    1    1    2    0  502 -0.90355960684E+01  0.19586204365E+02  0.41259536727E+01  0.21997676956E+02  0.12700000000E+01 0.  1.
<mgrwt>
<rscale>  1 0.12684607E+03</rscale>
<asrwt>0</asrwt>
<pdfrwt beam="2">  1       21 0.29733240E-02 0.12684607E+03</pdfrwt>
<pdfrwt beam="1">  1       -4 0.61564115E-01 0.12684607E+03</pdfrwt>
<totfact> 0.64411551E+04</totfact>
</mgrwt>
</event>
<event>
 6    3  0.3813045E-003  0.1469372E+03  0.7818608E-02  0.1204288E+00
         -4   -1    0    0    0  501 -0.00000000000E+00  0.00000000000E+00  0.42181265371E+03  0.42181456557E+03  0.12700000000E+01 0.  1.
         21   -1    0    0  501  502  0.00000000000E+00 -0.00000000000E+00 -0.72856974997E+02  0.72856974997E+02  0.00000000000E+00 0. -1.
         25    2    1    2    0    0 -0.35032285671E+02  0.68841525719E+02  0.38302304204E+03  0.41024041570E+03  0.12499652492E+03 0.  0.
    9000005    1    3    3    0    0  0.13542003005E+02 -0.26917160555E+02  0.35854772151E+02  0.46845320617E+02  0.10000000000E+01 0.  0.
    9000005    1    3    3    0    0 -0.48574288676E+02  0.95758686274E+02  0.34716826989E+03  0.36339509509E+03  0.10000000000E+01 0.  0.
         -4    1    1    2    0  502  0.35032285671E+02 -0.68841525719E+02 -0.34067363324E+02  0.84431124868E+02  0.12700000000E+01 0. -1.
<mgrwt>
<rscale>  1 0.14693722E+03</rscale>
<asrwt>0</asrwt>
<pdfrwt beam="2">  1       21 0.11208766E-01 0.14693722E+03</pdfrwt>
<pdfrwt beam="1">  1       -4 0.64895251E-01 0.14693722E+03</pdfrwt>
<totfact> 0.61497617E+03</totfact>
</mgrwt>
</event>
<event>
 6    3  0.3813045E-003  0.1324350E+03  0.7818608E-02  0.1223887E+00
         -4   -1    0    0    0  501 -0.00000000000E+00  0.00000000000E+00  0.31128946886E+03  0.31129205953E+03  0.12700000000E+01 0.  1.
         21   -1    0    0  501  502  0.00000000000E+00 -0.00000000000E+00 -0.63019543931E+02  0.63019543931E+02  0.00000000000E+00 0.  1.
         25    2    1    2    0    0 -0.32011341736E+01  0.43612371875E+02  0.28687297261E+03  0.31596698562E+03  0.12500698921E+03 0.  0.
    9000005    1    3    3    0    0 -0.18564577136E+02  0.84954769543E+02  0.21068933107E+03  0.22793189908E+03  0.10000000000E+01 0.  0.
    9000005    1    3    3    0    0  0.15363442963E+02 -0.41342397668E+02  0.76183641539E+02  0.88035086543E+02  0.10000000000E+01 0.  0.
         -4    1    1    2    0  502  0.32011341736E+01 -0.43612371875E+02 -0.38603047675E+02  0.58344617836E+02  0.12700000000E+01 0. -1.
<mgrwt>
<rscale>  1 0.13243502E+03</rscale>
<asrwt>0</asrwt>
<pdfrwt beam="2">  1       21 0.96953146E-02 0.13243502E+03</pdfrwt>
<pdfrwt beam="1">  1       -4 0.47891870E-01 0.13243502E+03</pdfrwt>
<totfact> 0.14781037E+04</totfact>
</mgrwt>
</event>
<event>
 6    3  0.3813045E-003  0.1272410E+03  0.7818608E-02  0.1231608E+00
          4   -1    0    0  502    0 -0.00000000000E+00  0.00000000000E+00  0.30599659416E+03  0.30599922963E+03  0.12700000000E+01 0.  1.
         21   -1    0    0  501  502  0.00000000000E+00 -0.00000000000E+00 -0.19669382893E+02  0.19669382893E+02  0.00000000000E+00 0.  1.
         25    2    1    2    0    0 -0.22386502707E+02 -0.79992340122E+01  0.20828054077E+03  0.24407180546E+03  0.12500047723E+03 0.  0.
    9000005    1    3    3    0    0 -0.42205477031E+02  0.15661471463E+02  0.13715287343E+02  0.47071149196E+02  0.10000000000E+01 0.  0.
    9000005    1    3    3    0    0  0.19818974323E+02 -0.23660705475E+02  0.19456525343E+03  0.19700065626E+03  0.10000000000E+01 0.  0.
          4    1    1    2  501    0  0.22386502707E+02  0.79992340122E+01  0.78046670496E+02  0.81596807069E+02  0.12700000000E+01 0. -1.
<mgrwt>
<rscale>  1 0.12724096E+03</rscale>
<asrwt>0</asrwt>
<pdfrwt beam="2">  1       21 0.30260591E-02 0.12724096E+03</pdfrwt>
<pdfrwt beam="1">  1        4 0.47079752E-01 0.12724096E+03</pdfrwt>
<totfact> 0.10878014E+05</totfact>
</mgrwt>
</event>
<event>
 6    3  0.3813045E-003  0.1270346E+03  0.7818608E-02  0.1231923E+00
         21   -1    0    0  501  502  0.00000000000E+00  0.00000000000E+00  0.23083940155E+03  0.23083940155E+03  0.00000000000E+00 0. -1.
          4   -1    0    0  502    0 -0.00000000000E+00 -0.00000000000E+00 -0.24350251951E+02  0.24383348213E+02  0.12700000000E+01 0. -1.
         25    2    1    2    0    0 -0.21394038957E+02  0.74209063536E+01  0.16925249458E+03  0.21162279413E+03  0.12500010128E+03 0.  0.
    9000005    1    3    3    0    0  0.38524327393E+02  0.75209080391E+01  0.86524777909E+01  0.40206382960E+02  0.10000000000E+01 0.  0.
    9000005    1    3    3    0    0 -0.59918366350E+02 -0.10000168542E+00  0.16060001679E+03  0.17141641117E+03  0.10000000000E+01 0.  0.
          4    1    1    2  501    0  0.21394038957E+02 -0.74209063536E+01  0.37236655016E+02  0.43599955628E+02  0.12700000000E+01 0.  1.
<mgrwt>
<rscale>  1 0.12703464E+03</rscale>
<asrwt>0</asrwt>
<pdfrwt beam="1">  1       21 0.35513753E-01 0.12703464E+03</pdfrwt>
<pdfrwt beam="2">  1        4 0.37490074E-02 0.12703464E+03</pdfrwt>
<totfact> 0.11623761E+05</totfact>
</mgrwt>
</event>
<event>
 6    3  0.3813045E-003  0.1295270E+03  0.7818608E-02  0.1228159E+00
         21   -1    0    0  501  502  0.00000000000E+00  0.00000000000E+00  0.12657387963E+04  0.12657387963E+04  0.00000000000E+00 0. -1.
         -4   -1    0    0    0  501 -0.00000000000E+00 -0.00000000000E+00 -0.51108314032E+02  0.51124090830E+02  0.12700000000E+01 0.  1.
         25    2    1    2    0    0  0.26310279494E+02 -0.21448523546E+02  0.31575266323E+02  0.13332010090E+03  0.12499992756E+03 0.  0.
    9000005    1    3    3    0    0  0.51264735176E+02 -0.16749516356E+02 -0.33473841219E+02  0.63483205785E+02  0.10000000000E+01 0.  0.
    9000005    1    3    3    0    0 -0.24954455683E+02 -0.46990071895E+01  0.65049107542E+02  0.69836895113E+02  0.10000000000E+01 0.  0.
         -4    1    1    2    0  502 -0.26310279494E+02  0.21448523546E+02  0.11830552160E+04  0.11835427863E+04  0.12700000000E+01 0. -1.
<mgrwt>
<rscale>  1 0.12952703E+03</rscale>
<asrwt>0</asrwt>
<pdfrwt beam="1">  1       21 0.19472902E+00 0.12952703E+03</pdfrwt>
<pdfrwt beam="2">  1       -4 0.78640811E-02 0.12952703E+03</pdfrwt>
<totfact> 0.70465370E+02</totfact>
</mgrwt>
</event>
<event>
 6    3  0.3813045E-003  0.1336770E+03  0.7818608E-02  0.1222099E+00
         21   -1    0    0  501  502  0.00000000000E+00  0.00000000000E+00  0.17049002117E+03  0.17049002117E+03  0.00000000000E+00 0.  1.
          4   -1    0    0  502    0 -0.00000000000E+00 -0.00000000000E+00 -0.49675999628E+02  0.49692231174E+02  0.12700000000E+01 0.  1.
         25    2    1    2    0    0  0.12543970543E+02  0.45683626727E+02  0.10576859039E+03  0.17045979417E+03  0.12500080707E+03 0.  0.
    9000005    1    3    3    0    0  0.66381369598E+02  0.43001395548E+02  0.54460453081E+02  0.96034093938E+02  0.10000000000E+01 0.  0.
    9000005    1    3    3    0    0 -0.53837399055E+02  0.26822311783E+01  0.51308137312E+02  0.74425700235E+02  0.10000000000E+01 0.  0.
          4    1    1    2  501    0 -0.12543970543E+02 -0.45683626727E+02  0.15045431147E+02  0.49722458168E+02  0.12700000000E+01 0. -1.
<mgrwt>
<rscale>  1 0.13367702E+03</rscale>
<asrwt>0</asrwt>
<pdfrwt beam="1">  1       21 0.26229234E-01 0.13367702E+03</pdfrwt>
<pdfrwt beam="2">  1        4 0.76440740E-02 0.13367702E+03</pdfrwt>
<totfact> 0.66582104E+04</totfact>
</mgrwt>
</event>
<event>
 6    3  0.3813045E-003  0.1340492E+03  0.7818608E-02  0.1221568E+00
          4   -1    0    0  502    0 -0.00000000000E+00  0.00000000000E+00  0.13826997154E+03  0.13827580385E+03  0.12700000000E+01 0. -1.
         21   -1    0    0  501  502  0.00000000000E+00 -0.00000000000E+00 -0.69071801865E+02  0.69071801865E+02  0.00000000000E+00 0.  1.
         25    2    1    2    0    0 -0.19718481120E+02 -0.44235865608E+02  0.82123010745E+02  0.15720486226E+03  0.12499419795E+03 0.  0.
    9000005    1    3    3    0    0 -0.62969862129E+02 -0.59013999717E+02  0.40334761468E+02  0.95266723896E+02  0.10000000000E+01 0.  0.
    9000005    1    3    3    0    0  0.43251381009E+02  0.14778134109E+02  0.41788249277E+02  0.61938138369E+02  0.10000000000E+01 0.  0.
          4    1    1    2  501    0  0.19718481120E+02  0.44235865608E+02 -0.12924841070E+02  0.50142743448E+02  0.12700000000E+01 0.  1.
<mgrwt>
<rscale>  1 0.13404917E+03</rscale>
<asrwt>0</asrwt>
<pdfrwt beam="2">  1       21 0.10626431E-01 0.13404917E+03</pdfrwt>
<pdfrwt beam="1">  1        4 0.21273650E-01 0.13404917E+03</pdfrwt>
<totfact> 0.59311586E+04</totfact>
</mgrwt>
</event>
<event>
 6    3  0.3813045E-003  0.1744712E+03  0.7818608E-02  0.1173264E+00
         21   -1    0    0  501  502  0.00000000000E+00  0.00000000000E+00  0.13022610983E+03  0.13022610983E+03  0.00000000000E+00 0.  1.
          4   -1    0    0  502    0 -0.00000000000E+00 -0.00000000000E+00 -0.21479282420E+03  0.21479657871E+03  0.12700000000E+01 0. -1.
         25    2    1    2    0    0  0.98321354108E+02  0.71764214071E+02 -0.12733448759E+03  0.21599599975E+03  0.12499203609E+03 0.  0.
    9000005    1    3    3    0    0 -0.27882542322E+02  0.29760976842E+02 -0.22156158115E+02  0.46422486484E+02  0.10000000000E+01 0.  0.
    9000005    1    3    3    0    0  0.12620389643E+03  0.42003237229E+02 -0.10517832947E+03  0.16957351327E+03  0.10000000000E+01 0.  0.
          4    1    1    2  501    0 -0.98321354108E+02 -0.71764214071E+02  0.42767773224E+02  0.12902668880E+03  0.12700000000E+01 0.  1.
<mgrwt>
<rscale>  1 0.17447120E+03</rscale>
<asrwt>0</asrwt>
<pdfrwt beam="1">  1       21 0.20034786E-01 0.17447120E+03</pdfrwt>
<pdfrwt beam="2">  1        4 0.33045815E-01 0.17447120E+03</pdfrwt>
<totfact> 0.84959022E+03</totfact>
</mgrwt>
</event>
<event>
 6    3  0.3813045E-003  0.1323279E+03  0.7818608E-02  0.1224042E+00
         21   -1    0    0  501  502  0.00000000000E+00  0.00000000000E+00  0.45061973964E+02  0.45061973964E+02  0.00000000000E+00 0. -1.
          4   -1    0    0  502    0 -0.00000000000E+00 -0.00000000000E+00 -0.20180414292E+03  0.20180813908E+03  0.12700000000E+01 0. -1.
         25    2    1    2    0    0  0.34777045519E+02  0.25999170738E+02 -0.15442856259E+03  0.20336878607E+03  0.12500112971E+03 0.  0.
    9000005    1    3    3    0    0  0.43180624411E+02  0.70563486265E+02 -0.73845973131E+02  0.11089634650E+03  0.10000000000E+01 0.  0.
    9000005    1    3    3    0    0 -0.84035788920E+01 -0.44564315526E+02 -0.80582589463E+02  0.92472439575E+02  0.10000000000E+01 0.  0.
          4    1    1    2  501    0 -0.34777045519E+02 -0.25999170738E+02 -0.23136063605E+01  0.43501326974E+02  0.12700000000E+01 0.  1.
<mgrwt>
<rscale>  1 0.13232793E+03</rscale>
<asrwt>0</asrwt>
<pdfrwt beam="1">  1       21 0.69326113E-02 0.13232793E+03</pdfrwt>
<pdfrwt beam="2">  1        4 0.31048476E-01 0.13232793E+03</pdfrwt>
<totfact> 0.61632412E+04</totfact>
</mgrwt>
</event>
<event>
 6    3  0.3813045E-003  0.1312293E+03  0.7818608E-02  0.1225643E+00
         -4   -1    0    0    0  501 -0.00000000000E+00  0.00000000000E+00  0.20395303734E+03  0.20395699140E+03  0.12700000000E+01 0.  1.
         21   -1    0    0  501  502  0.00000000000E+00 -0.00000000000E+00 -0.75167488863E+02  0.75167488863E+02  0.00000000000E+00 0. -1.
         25    2    1    2    0    0  0.32887281148E+02 -0.22686226512E+02  0.17453902972E+03  0.21836896956E+03  0.12499958334E+03 0.  0.
    9000005    1    3    3    0    0  0.39750685044E+02  0.24334603916E+01 -0.20279807780E+01  0.39889239112E+02  0.10000000000E+01 0.  0.
    9000005    1    3    3    0    0 -0.68634038956E+01 -0.25119686904E+02  0.17656701050E+03  0.17847973045E+03  0.10000000000E+01 0.  0.
         -4    1    1    2    0  502 -0.32887281148E+02  0.22686226512E+02 -0.45753481245E+02  0.60755510703E+02  0.12700000000E+01 0. -1.
<mgrwt>
<rscale>  1 0.13122932E+03</rscale>
<asrwt>0</asrwt>
<pdfrwt beam="2">  1       21 0.11564229E-01 0.13122932E+03</pdfrwt>
<pdfrwt beam="1">  1       -4 0.31378520E-01 0.13122932E+03</pdfrwt>
<totfact> 0.24797947E+04</totfact>
</mgrwt>
</event>
<event>
 6    3  0.3813045E-003  0.1267088E+03  0.7818608E-02  0.1232423E+00
         -4   -1    0    0    0  501 -0.00000000000E+00  0.00000000000E+00  0.80892769243E+02  0.80902737999E+02  0.12700000000E+01 0. -1.
         21   -1    0    0  501  502  0.00000000000E+00 -0.00000000000E+00 -0.41796685062E+03  0.41796685062E+03  0.00000000000E+00 0.  1.
         25    2    1    2    0    0 -0.20185016003E+02 -0.46497837298E+01  0.30809863959E+02  0.13040077651E+03  0.12500423768E+03 0.  0.
    9000005    1    3    3    0    0  0.92303305621E+01  0.56934195642E+02  0.21264822616E+02  0.61480845119E+02  0.10000000000E+01 0.  0.
    9000005    1    3    3    0    0 -0.29415346565E+02 -0.61583979372E+02  0.95450413435E+01  0.68919931392E+02  0.10000000000E+01 0.  0.
         -4    1    1    2    0  502  0.20185016003E+02  0.46497837298E+01 -0.36788394534E+03  0.36846881211E+03  0.12700000000E+01 0.  1.
<mgrwt>
<rscale>  1 0.12670878E+03</rscale>
<asrwt>0</asrwt>
<pdfrwt beam="2">  1       21 0.64302594E-01 0.12670878E+03</pdfrwt>
<pdfrwt beam="1">  1       -4 0.12445956E-01 0.12670878E+03</pdfrwt>
<totfact> 0.48049243E+03</totfact>
</mgrwt>
</event>
<event>
 6    3  0.3813045E-003  0.1339575E+03  0.7818608E-02  0.1221699E+00
         21   -1    0    0  501  502  0.00000000000E+00  0.00000000000E+00  0.24534143825E+03  0.24534143825E+03  0.00000000000E+00 0.  1.
          4   -1    0    0  502    0 -0.00000000000E+00 -0.00000000000E+00 -0.33870276207E+02  0.33894077807E+02  0.12700000000E+01 0.  1.
         25    2    1    2    0    0  0.15970803239E+02 -0.45435632674E+02  0.14940092134E+03  0.20066204118E+03  0.12500062481E+03 0.  0.
    9000005    1    3    3    0    0  0.23260524428E+02 -0.75804560395E+02  0.14970759307E+03  0.16941294754E+03  0.10000000000E+01 0.  0.
    9000005    1    3    3    0    0 -0.72897211895E+01  0.30368927720E+02 -0.30667172615E+00  0.31249093642E+02  0.10000000000E+01 0.  0.
          4    1    1    2  501    0 -0.15970803239E+02  0.45435632674E+02  0.62070240702E+02  0.78573474872E+02  0.12700000000E+01 0. -1.
<mgrwt>
<rscale>  1 0.13395753E+03</rscale>
<asrwt>0</asrwt>
<pdfrwt beam="1">  1       21 0.37744835E-01 0.13395753E+03</pdfrwt>
<pdfrwt beam="2">  1        4 0.52128956E-02 0.13395753E+03</pdfrwt>
<totfact> 0.61306678E+04</totfact>
</mgrwt>
</event>
<event>
 6    3  0.3813045E-003  0.1280695E+03  0.7818608E-02  0.1230349E+00
          4   -1    0    0  502    0 -0.00000000000E+00  0.00000000000E+00  0.16861465887E+02  0.16909226234E+02  0.12700000000E+01 0. -1.
         21   -1    0    0  501  502  0.00000000000E+00 -0.00000000000E+00 -0.46648184569E+03  0.46648184569E+03  0.00000000000E+00 0. -1.
         25    2    1    2    0    0  0.26871733410E+02 -0.74105486991E+01 -0.24102324886E+03  0.27293589326E+03  0.12499915620E+03 0.  0.
    9000005    1    3    3    0    0  0.43477932844E+02  0.27170968853E+02 -0.22596762164E+03  0.23171309463E+03  0.10000000000E+01 0.  0.
    9000005    1    3    3    0    0 -0.16606199433E+02 -0.34581517552E+02 -0.15055627215E+02  0.41222798627E+02  0.10000000000E+01 0.  0.
          4    1    1    2  501    0 -0.26871733410E+02  0.74105486991E+01 -0.20859713095E+03  0.21045517867E+03  0.12700000000E+01 0.  1.
<mgrwt>
<rscale>  1 0.12806949E+03</rscale>
<asrwt>0</asrwt>
<pdfrwt beam="2">  1       21 0.71766428E-01 0.12806949E+03</pdfrwt>
<pdfrwt beam="1">  1        4 0.25978789E-02 0.12806949E+03</pdfrwt>
<totfact> 0.48201197E+04</totfact>
</mgrwt>
</event>
<event>
 6    3  0.3813045E-003  0.1274729E+03  0.7818608E-02  0.1231254E+00
         -4   -1    0    0    0  501 -0.00000000000E+00  0.00000000000E+00  0.19953703188E+02  0.19994078396E+02  0.12700000000E+01 0.  1.
         21   -1    0    0  501  502  0.00000000000E+00 -0.00000000000E+00 -0.33712762336E+03  0.33712762336E+03  0.00000000000E+00 0.  1.
         25    2    1    2    0    0 -0.24748743047E+02  0.34334145136E+01 -0.19898651474E+03  0.23631539265E+03  0.12500017255E+03 0.  0.
    9000005    1    3    3    0    0 -0.32192764153E+02  0.60067723392E+02 -0.86252585768E+02  0.10993186075E+03  0.10000000000E+01 0.  0.
    9000005    1    3    3    0    0  0.74440211061E+01 -0.56634308879E+02 -0.11273392897E+03  0.12638353189E+03  0.10000000000E+01 0.  0.
         -4    1    1    2    0  502  0.24748743047E+02 -0.34334145136E+01 -0.11818740543E+03  0.12080630911E+03  0.12700000000E+01 0. -1.
<mgrwt>
<rscale>  1 0.12747287E+03</rscale>
<asrwt>0</asrwt>
<pdfrwt beam="2">  1       21 0.51865784E-01 0.12747287E+03</pdfrwt>
<pdfrwt beam="1">  1       -4 0.30730905E-02 0.12747287E+03</pdfrwt>
<totfact> 0.74024270E+04</totfact>
</mgrwt>
</event>
<event>
 6    3  0.3813045E-003  0.1278542E+03  0.7818608E-02  0.1230675E+00
          4   -1    0    0  502    0 -0.00000000000E+00  0.00000000000E+00  0.62600941728E+03  0.62601070552E+03  0.12700000000E+01 0.  1.
         21   -1    0    0  501  502  0.00000000000E+00 -0.00000000000E+00 -0.13957590380E+02  0.13957590380E+02  0.00000000000E+00 0.  1.
         25    2    1    2    0    0 -0.23948962687E+02 -0.12161069440E+02  0.59394545747E+03  0.60755073989E+03  0.12500100266E+03 0.  0.
    9000005    1    3    3    0    0  0.71875194551E+01  0.10153225445E+02  0.11021749028E+00  0.12480407475E+02  0.10000000000E+01 0.  0.
    9000005    1    3    3    0    0 -0.31136482142E+02 -0.22314294886E+02  0.59383523998E+03  0.59507033242E+03  0.10000000000E+01 0.  0.
          4    1    1    2  501    0  0.23948962687E+02  0.12161069440E+02  0.18106369431E+02  0.32417556010E+02  0.12700000000E+01 0. -1.
<mgrwt>
<rscale>  1 0.12785419E+03</rscale>
<asrwt>0</asrwt>
<pdfrwt beam="2">  1       21 0.21473221E-02 0.12785419E+03</pdfrwt>
<pdfrwt beam="1">  1        4 0.96313662E-01 0.12785419E+03</pdfrwt>
<totfact> 0.41040370E+04</totfact>
</mgrwt>
</event>
<event>
 6    3  0.3813045E-003  0.1495789E+03  0.7818608E-02  0.1200991E+00
         -4   -1    0    0    0  501 -0.00000000000E+00  0.00000000000E+00  0.10666485711E+03  0.10667241743E+03  0.12700000000E+01 0.  1.
         21   -1    0    0  501  502  0.00000000000E+00 -0.00000000000E+00 -0.13907270267E+03  0.13907270267E+03  0.00000000000E+00 0. -1.
         25    2    1    2    0    0 -0.66830764150E+02  0.47769331580E+02  0.15926070050E+02  0.15042439636E+03  0.12500239692E+03 0.  0.
    9000005    1    3    3    0    0 -0.91749763741E+02  0.69013261286E+02  0.20079248436E+01  0.11482979205E+03  0.10000000000E+01 0.  0.
    9000005    1    3    3    0    0  0.24918999590E+02 -0.21243929706E+02  0.13918145206E+02  0.35594604309E+02  0.10000000000E+01 0.  0.
         -4    1    1    2    0  502  0.66830764150E+02 -0.47769331580E+02 -0.48333915609E+02  0.95320723742E+02  0.12700000000E+01 0. -1.
<mgrwt>
<rscale>  1 0.14957894E+03</rscale>
<asrwt>0</asrwt>
<pdfrwt beam="2">  1       21 0.21395800E-01 0.14957894E+03</pdfrwt>
<pdfrwt beam="1">  1       -4 0.16411006E-01 0.14957894E+03</pdfrwt>
<totfact> 0.26909322E+04</totfact>
</mgrwt>
</event>
<event>
 6    3  0.3813045E-003  0.1387830E+03  0.7818608E-02  0.1214976E+00
         21   -1    0    0  501  502  0.00000000000E+00  0.00000000000E+00  0.11024668761E+03  0.11024668761E+03  0.00000000000E+00 0. -1.
          4   -1    0    0  502    0 -0.00000000000E+00 -0.00000000000E+00 -0.45483979225E+03  0.45484156529E+03  0.12700000000E+01 0.  1.
         25    2    1    2    0    0 -0.50018998022E+01  0.60086792040E+02 -0.43489349755E+03  0.45650088974E+03  0.12500106616E+03 0.  0.
    9000005    1    3    3    0    0 -0.57655569976E+02  0.31559072366E+02 -0.12882415948E+03  0.14462642865E+03  0.10000000000E+01 0.  0.
    9000005    1    3    3    0    0  0.52653670174E+02  0.28527719674E+02 -0.30606933807E+03  0.31187446109E+03  0.10000000000E+01 0.  0.
          4    1    1    2  501    0  0.50018998022E+01 -0.60086792040E+02  0.90300392914E+02  0.10858736317E+03  0.12700000000E+01 0. -1.
<mgrwt>
<rscale>  1 0.13878295E+03</rscale>
<asrwt>0</asrwt>
<pdfrwt beam="1">  1       21 0.16961029E-01 0.13878295E+03</pdfrwt>
<pdfrwt beam="2">  1        4 0.69976051E-01 0.13878295E+03</pdfrwt>
<totfact> 0.24776168E+03</totfact>
</mgrwt>
</event>
<event>
 6    3  0.3813045E-003  0.1318793E+03  0.7818608E-02  0.1224693E+00
         -4   -1    0    0    0  501 -0.00000000000E+00  0.00000000000E+00  0.93710534237E+03  0.93710620295E+03  0.12700000000E+01 0. -1.
         21   -1    0    0  501  502  0.00000000000E+00 -0.00000000000E+00 -0.14555261610E+02  0.14555261610E+02  0.00000000000E+00 0.  1.
         25    2    1    2    0    0 -0.41095475963E+02 -0.88516136314E+01  0.88653679994E+03  0.89629217249E+03  0.12499988644E+03 0.  0.
    9000005    1    3    3    0    0  0.27863192461E+02 -0.90698065768E+01  0.62893897738E+03  0.62962199466E+03  0.10000000000E+01 0.  0.
    9000005    1    3    3    0    0 -0.68958668425E+02  0.21819294537E+00  0.25759782256E+03  0.26667017783E+03  0.10000000000E+01 0.  0.
         -4    1    1    2    0  502  0.41095475963E+02  0.88516136314E+01  0.36013280822E+02  0.55369292068E+02  0.12700000000E+01 0.  1.
<mgrwt>
<rscale>  1 0.13187934E+03</rscale>
<asrwt>0</asrwt>
<pdfrwt beam="2">  1       21 0.22392718E-02 0.13187934E+03</pdfrwt>
<pdfrwt beam="1">  1       -4 0.14417433E+00 0.13187934E+03</pdfrwt>
<totfact> 0.14646534E+04</totfact>
</mgrwt>
</event>
<event>
 6    3  0.3813045E-003  0.1487718E+03  0.7818608E-02  0.1201990E+00
         -4   -1    0    0    0  501 -0.00000000000E+00  0.00000000000E+00  0.46186665937E+03  0.46186840544E+03  0.12700000000E+01 0.  1.
         21   -1    0    0  501  502  0.00000000000E+00 -0.00000000000E+00 -0.59478192466E+02  0.59478192466E+02  0.00000000000E+00 0. -1.
         25    2    1    2    0    0  0.52247663199E+02  0.61468576739E+02  0.41391925848E+03  0.43984336919E+03  0.12499933059E+03 0.  0.
    9000005    1    3    3    0    0  0.67996848141E+02 -0.33472179713E+01  0.30175245687E+03  0.30933852080E+03  0.10000000000E+01 0.  0.
    9000005    1    3    3    0    0 -0.15749184942E+02  0.64815794710E+02  0.11216680161E+03  0.13050484839E+03  0.10000000000E+01 0.  0.
         -4    1    1    2    0  502 -0.52247663199E+02 -0.61468576739E+02 -0.11530791570E+02  0.81503228711E+02  0.12700000000E+01 0. -1.
<mgrwt>
<rscale>  1 0.14877176E+03</rscale>
<asrwt>0</asrwt>
<pdfrwt beam="2">  1       21 0.91504914E-02 0.14877176E+03</pdfrwt>
<pdfrwt beam="1">  1       -4 0.71057584E-01 0.14877176E+03</pdfrwt>
<totfact> 0.72339439E+03</totfact>
</mgrwt>
</event>
<event>
 6    3  0.3813045E-003  0.1269913E+03  0.7818608E-02  0.1231990E+00
         21   -1    0    0  501  502  0.00000000000E+00  0.00000000000E+00  0.37208374776E+02  0.37208374776E+02  0.00000000000E+00 0.  1.
          4   -1    0    0  502    0 -0.00000000000E+00 -0.00000000000E+00 -0.28017455333E+03  0.28017743170E+03  0.12700000000E+01 0. -1.
         25    2    1    2    0    0 -0.29198606299E+01  0.22191492395E+02 -0.25991623761E+03  0.28928055211E+03  0.12500319731E+03 0.  0.
    9000005    1    3    3    0    0  0.44244410179E+02  0.79694668807E+01 -0.29793232383E+02  0.53941792057E+02  0.10000000000E+01 0.  0.
    9000005    1    3    3    0    0 -0.47164270809E+02  0.14222025515E+02 -0.23012300523E+03  0.23533876006E+03  0.10000000000E+01 0.  0.
          4    1    1    2  501    0  0.29198606299E+01 -0.22191492395E+02  0.16950059054E+02  0.28105254362E+02  0.12700000000E+01 0.  1.
<mgrwt>
<rscale>  1 0.12699129E+03</rscale>
<asrwt>0</asrwt>
<pdfrwt beam="1">  1       21 0.57243653E-02 0.12699129E+03</pdfrwt>
<pdfrwt beam="2">  1        4 0.43105666E-01 0.12699129E+03</pdfrwt>
<totfact> 0.44905074E+04</totfact>
</mgrwt>
</event>
<event>
 6    3  0.3813045E-003  0.1266112E+03  0.7818608E-02  0.1232573E+00
          4   -1    0    0  502    0 -0.00000000000E+00  0.00000000000E+00  0.13676772891E+04  0.13676778788E+04  0.12700000000E+01 0.  1.
         21   -1    0    0  501  502  0.00000000000E+00 -0.00000000000E+00 -0.50813018834E+01  0.50813018834E+01  0.00000000000E+00 0. -1.
         25    2    1    2    0    0  0.14112753651E+02 -0.14336650570E+02  0.13148593447E+04  0.13209411403E+04  0.12500276169E+03 0.  0.
    9000005    1    3    3    0    0 -0.23144176378E+01 -0.52743990143E+02  0.26280711925E+03  0.26805944668E+03  0.10000000000E+01 0.  0.
    9000005    1    3    3    0    0  0.16427171289E+02  0.38407339574E+02  0.10520522255E+04  0.10528816936E+04  0.10000000000E+01 0.  0.
          4    1    1    2  501    0 -0.14112753651E+02  0.14336650570E+02  0.47736642530E+02  0.51818040345E+02  0.12700000000E+01 0. -1.
<mgrwt>
<rscale>  1 0.12661122E+03</rscale>
<asrwt>0</asrwt>
<pdfrwt beam="2">  1       21 0.78173985E-03 0.12661122E+03</pdfrwt>
<pdfrwt beam="1">  1        4 0.21042385E+00 0.12661122E+03</pdfrwt>
<totfact> 0.28083217E+04</totfact>
</mgrwt>
</event>
<event>
 6    3  0.3813045E-003  0.1401704E+03  0.7818608E-02  0.1213100E+00
         21   -1    0    0  501  502  0.00000000000E+00  0.00000000000E+00  0.28773760692E+03  0.28773760692E+03  0.00000000000E+00 0.  1.
          4   -1    0    0  502    0 -0.00000000000E+00 -0.00000000000E+00 -0.52250218725E+02  0.52265650831E+02  0.12700000000E+01 0. -1.
         25    2    1    2    0    0  0.13348748376E+02 -0.61993243213E+02  0.58309834021E+02  0.15181492153E+03  0.12500552935E+03 0.  0.
    9000005    1    3    3    0    0  0.75791121797E+01 -0.19737458230E+02  0.93901627386E+02  0.96257601386E+02  0.10000000000E+01 0.  0.
    9000005    1    3    3    0    0  0.57696361961E+01 -0.42255784983E+02 -0.35591793366E+02  0.55557320142E+02  0.10000000000E+01 0.  0.
          4    1    1    2  501    0 -0.13348748376E+02  0.61993243213E+02  0.17717755417E+03  0.18818833622E+03  0.12700000000E+01 0.  1.
<mgrwt>
<rscale>  1 0.14017037E+03</rscale>
<asrwt>0</asrwt>
<pdfrwt beam="1">  1       21 0.44267323E-01 0.14017037E+03</pdfrwt>
<pdfrwt beam="2">  1        4 0.80398980E-02 0.14017037E+03</pdfrwt>
<totfact> 0.22029571E+04</totfact>
</mgrwt>
</event>
<event>
 6    3  0.3813045E-003  0.1266062E+03  0.7818608E-02  0.1232580E+00
         21   -1    0    0  501  502  0.00000000000E+00  0.00000000000E+00  0.13877092319E+03  0.13877092319E+03  0.00000000000E+00 0. -1.
         -4   -1    0    0    0  501 -0.00000000000E+00 -0.00000000000E+00 -0.52790980276E+02  0.52806254351E+02  0.12700000000E+01 0. -1.
         25    2    1    2    0    0 -0.15482592970E+02  0.12832492249E+02  0.27275442881E+02  0.12951096478E+03  0.12499902668E+03 0.  0.
    9000005    1    3    3    0    0 -0.10029939632E+02  0.43945760603E+02  0.65748104461E+02  0.79722285493E+02  0.10000000000E+01 0.  0.
    9000005    1    3    3    0    0 -0.54526533377E+01 -0.31113268353E+02 -0.38472661580E+02  0.49788679287E+02  0.10000000000E+01 0.  0.
         -4    1    1    2    0  502  0.15482592970E+02 -0.12832492249E+02  0.58704500037E+02  0.62066212765E+02  0.12700000000E+01 0.  1.
<mgrwt>
<rscale>  1 0.12660624E+03</rscale>
<asrwt>0</asrwt>
<pdfrwt beam="1">  1       21 0.21349373E-01 0.12660624E+03</pdfrwt>
<pdfrwt beam="2">  1       -4 0.81233113E-02 0.12660624E+03</pdfrwt>
<totfact> 0.88049318E+04</totfact>
</mgrwt>
</event>
<event>
 6    3  0.3813045E-003  0.1372848E+03  0.7818608E-02  0.1217030E+00
         21   -1    0    0  501  502  0.00000000000E+00  0.00000000000E+00  0.36413970511E+02  0.36413970511E+02  0.00000000000E+00 0.  1.
         -4   -1    0    0    0  501 -0.00000000000E+00 -0.00000000000E+00 -0.47629391411E+03  0.47629560728E+03  0.12700000000E+01 0. -1.
         25    2    1    2    0    0 -0.48934759696E+02 -0.28749301546E+02 -0.43451577535E+03  0.45568747465E+03  0.12500392987E+03 0.  0.
    9000005    1    3    3    0    0 -0.24541907610E+02  0.12582851153E+02 -0.11403656640E+02  0.29860957068E+02  0.10000000000E+01 0.  0.
    9000005    1    3    3    0    0 -0.24392852086E+02 -0.41332152699E+02 -0.42311211871E+03  0.42582651758E+03  0.10000000000E+01 0.  0.
         -4    1    1    2    0  502  0.48934759696E+02  0.28749301546E+02 -0.53641682511E+01  0.57022103144E+02  0.12700000000E+01 0.  1.
<mgrwt>
<rscale>  1 0.13728480E+03</rscale>
<asrwt>0</asrwt>
<pdfrwt beam="1">  1       21 0.56021496E-02 0.13728480E+03</pdfrwt>
<pdfrwt beam="2">  1       -4 0.73277817E-01 0.13728480E+03</pdfrwt>
<totfact> 0.15605595E+04</totfact>
</mgrwt>
</event>
<event>
 6    3  0.3813045E-003  0.1359607E+03  0.7818608E-02  0.1218870E+00
         21   -1    0    0  501  502  0.00000000000E+00  0.00000000000E+00  0.66811048828E+02  0.66811048828E+02  0.00000000000E+00 0.  1.
         -4   -1    0    0    0  501 -0.00000000000E+00 -0.00000000000E+00 -0.17226991996E+03  0.17227460121E+03  0.12700000000E+01 0.  1.
         25    2    1    2    0    0  0.91508998493E+01 -0.52691615329E+02 -0.12243272406E+03  0.18296194847E+03  0.12500062949E+03 0.  0.
    9000005    1    3    3    0    0 -0.16595032942E+02 -0.74001071682E+02 -0.12827445787E+03  0.14901976470E+03  0.10000000000E+01 0.  0.
    9000005    1    3    3    0    0  0.25745932791E+02  0.21309456352E+02  0.58417338129E+01  0.33942183772E+02  0.10000000000E+01 0.  0.
         -4    1    1    2    0  502 -0.91508998493E+01  0.52691615329E+02  0.16973852932E+02  0.56123701566E+02  0.12700000000E+01 0. -1.
<mgrwt>
<rscale>  1 0.13596067E+03</rscale>
<asrwt>0</asrwt>
<pdfrwt beam="1">  1       21 0.10278623E-01 0.13596067E+03</pdfrwt>
<pdfrwt beam="2">  1       -4 0.26504353E-01 0.13596067E+03</pdfrwt>
<totfact> 0.42080532E+04</totfact>
</mgrwt>
</event>
<event>
 6    3  0.3813045E-003  0.1267455E+03  0.7818608E-02  0.1232366E+00
         -4   -1    0    0    0  501 -0.00000000000E+00  0.00000000000E+00  0.40771824795E+02  0.40791599590E+02  0.12700000000E+01 0.  1.
         21   -1    0    0  501  502  0.00000000000E+00 -0.00000000000E+00 -0.20950720182E+03  0.20950720182E+03  0.00000000000E+00 0.  1.
         25    2    1    2    0    0  0.20816922755E+02  0.26293325601E+01 -0.61235377166E+02  0.14076286880E+03  0.12499662457E+03 0.  0.
    9000005    1    3    3    0    0 -0.13487315783E+02  0.59103184503E+02 -0.30850941706E+02  0.68028484545E+02  0.10000000000E+01 0.  0.
    9000005    1    3    3    0    0  0.34304238538E+02 -0.56473851943E+02 -0.30384435460E+02  0.72734384256E+02  0.10000000000E+01 0.  0.
         -4    1    1    2    0  502 -0.20816922755E+02 -0.26293325601E+01 -0.10749999986E+03  0.10953593261E+03  0.12700000000E+01 0. -1.
<mgrwt>
<rscale>  1 0.12674547E+03</rscale>
<asrwt>0</asrwt>
<pdfrwt beam="2">  1       21 0.32231877E-01 0.12674547E+03</pdfrwt>
<pdfrwt beam="1">  1       -4 0.62744058E-02 0.12674547E+03</pdfrwt>
<totfact> 0.61520249E+04</totfact>
</mgrwt>
</event>
<event>
 6    3  0.3813045E-003  0.1363940E+03  0.7818608E-02  0.1218265E+00
         21   -1    0    0  501  502  0.00000000000E+00  0.00000000000E+00  0.18969660472E+03  0.18969660472E+03  0.00000000000E+00 0. -1.
          4   -1    0    0  502    0 -0.00000000000E+00 -0.00000000000E+00 -0.14178452699E+04  0.14178458387E+04  0.12700000000E+01 0.  1.
         25    2    1    2    0    0 -0.39260026018E+02 -0.37911746340E+02 -0.14105590965E+04  0.14171380619E+04  0.12499868658E+03 0.  0.
    9000005    1    3    3    0    0 -0.40027402806E+02  0.68213352822E+01 -0.13953288679E+03  0.14532429283E+03  0.10000000000E+01 0.  0.
    9000005    1    3    3    0    0  0.76737678827E+00 -0.44733081622E+02 -0.12710262097E+04  0.12718137691E+04  0.10000000000E+01 0.  0.
          4    1    1    2  501    0  0.39260026018E+02  0.37911746340E+02  0.18241043129E+03  0.19040438151E+03  0.12700000000E+01 0. -1.
<mgrwt>
<rscale>  1 0.13639399E+03</rscale>
<asrwt>0</asrwt>
<pdfrwt beam="1">  1       21 0.29184094E-01 0.13639399E+03</pdfrwt>
<pdfrwt beam="2">  1        4 0.21813040E+00 0.13639399E+03</pdfrwt>
<totfact> 0.54221556E+01</totfact>
</mgrwt>
</event>
<event>
 6    3  0.3813045E-003  0.1274302E+03  0.7818608E-02  0.1231319E+00
         21   -1    0    0  501  502  0.00000000000E+00  0.00000000000E+00  0.12715198518E+02  0.12715198518E+02  0.00000000000E+00 0. -1.
         -4   -1    0    0    0  501 -0.00000000000E+00 -0.00000000000E+00 -0.48323345624E+03  0.48323512510E+03  0.12700000000E+01 0. -1.
         25    2    1    2    0    0  0.24733309894E+02 -0.13158991034E+01 -0.42961619582E+03  0.44811665580E+03  0.12499997315E+03 0.  0.
    9000005    1    3    3    0    0  0.23018051061E+02  0.23972535281E+02 -0.22353703189E+02  0.40064961859E+02  0.10000000000E+01 0.  0.
    9000005    1    3    3    0    0  0.17152588327E+01 -0.25288434385E+02 -0.40726249263E+03  0.40805169394E+03  0.10000000000E+01 0.  0.
         -4    1    1    2    0  502 -0.24733309894E+02  0.13158991034E+01 -0.40902061902E+02  0.47833667814E+02  0.12700000000E+01 0.  1.
<mgrwt>
<rscale>  1 0.12743022E+03</rscale>
<asrwt>0</asrwt>
<pdfrwt beam="1">  1       21 0.19561847E-02 0.12743022E+03</pdfrwt>
<pdfrwt beam="2">  1       -4 0.74348604E-01 0.12743022E+03</pdfrwt>
<totfact> 0.84958951E+04</totfact>
</mgrwt>
</event>
<event>
 6    3  0.3813045E-003  0.1271159E+03  0.7818608E-02  0.1231799E+00
         21   -1    0    0  501  502  0.00000000000E+00  0.00000000000E+00  0.26028905015E+03  0.26028905015E+03  0.00000000000E+00 0.  1.
         -4   -1    0    0    0  501 -0.00000000000E+00 -0.00000000000E+00 -0.22171976380E+02  0.22208319085E+02  0.12700000000E+01 0.  1.
         25    2    1    2    0    0 -0.19013701480E+02 -0.13105864446E+02  0.18393511251E+03  0.22358572053E+03  0.12500065714E+03 0.  0.
    9000005    1    3    3    0    0 -0.52708409837E+02  0.17273944543E+02  0.29931307204E+02  0.63035297878E+02  0.10000000000E+01 0.  0.
    9000005    1    3    3    0    0  0.33694708357E+02 -0.30379808989E+02  0.15400380531E+03  0.16055042265E+03  0.10000000000E+01 0.  0.
         -4    1    1    2    0  502  0.19013701480E+02  0.13105864446E+02  0.54181961255E+02  0.58911648698E+02  0.12700000000E+01 0. -1.
<mgrwt>
<rscale>  1 0.12711589E+03</rscale>
<asrwt>0</asrwt>
<pdfrwt beam="1">  1       21 0.40044467E-01 0.12711589E+03</pdfrwt>
<pdfrwt beam="2">  1       -4 0.34141074E-02 0.12711589E+03</pdfrwt>
<totfact> 0.10619809E+05</totfact>
</mgrwt>
</event>
<event>
 6    3  0.3813045E-003  0.1436342E+03  0.7818608E-02  0.1208521E+00
         21   -1    0    0  501  502  0.00000000000E+00  0.00000000000E+00  0.22591136065E+03  0.22591136065E+03  0.00000000000E+00 0. -1.
          4   -1    0    0  502    0 -0.00000000000E+00 -0.00000000000E+00 -0.98070545015E+02  0.98078767832E+02  0.12700000000E+01 0.  1.
         25    2    1    2    0    0 -0.70429945421E+02 -0.66096878251E+01 -0.33787717891E+02  0.14755469855E+03  0.12500685581E+03 0.  0.
    9000005    1    3    3    0    0 -0.46196099490E+02 -0.30436433201E+02 -0.75586636419E+02  0.93673879386E+02  0.10000000000E+01 0.  0.
    9000005    1    3    3    0    0 -0.24233845932E+02  0.23826745376E+02  0.41798918528E+02  0.53880819165E+02  0.10000000000E+01 0.  0.
          4    1    1    2  501    0  0.70429945421E+02  0.66096878251E+01  0.16162853353E+03  0.17643542993E+03  0.12700000000E+01 0. -1.
<mgrwt>
<rscale>  1 0.14363419E+03</rscale>
<asrwt>0</asrwt>
<pdfrwt beam="1">  1       21 0.34755594E-01 0.14363419E+03</pdfrwt>
<pdfrwt beam="2">  1        4 0.15088683E-01 0.14363419E+03</pdfrwt>
<totfact> 0.12269859E+04</totfact>
</mgrwt>
</event>
<event>
 6    3  0.3813045E-003  0.1626557E+03  0.7818608E-02  0.1185731E+00
          4   -1    0    0  502    0 -0.00000000000E+00  0.00000000000E+00  0.92652156859E+01  0.93518512449E+01  0.12700000000E+01 0. -1.
         21   -1    0    0  501  502  0.00000000000E+00 -0.00000000000E+00 -0.19483702366E+04  0.19483702366E+04  0.00000000000E+00 0.  1.
         25    2    1    2    0    0  0.23673167620E+02  0.10134976641E+03 -0.13109092805E+04  0.13209617756E+04  0.12499870799E+03 0.  0.
    9000005    1    3    3    0    0  0.42860042250E+02 -0.13273720341E+02 -0.28886832266E+03  0.29233385488E+03  0.10000000000E+01 0.  0.
    9000005    1    3    3    0    0 -0.19186874629E+02  0.11462348675E+03 -0.10220409578E+04  0.10286279208E+04  0.10000000000E+01 0.  0.
          4    1    1    2  501    0 -0.23673167620E+02 -0.10134976641E+03 -0.62819574041E+03  0.63676031220E+03  0.12700000000E+01 0.  1.
<mgrwt>
<rscale>  1 0.16265568E+03</rscale>
<asrwt>0</asrwt>
<pdfrwt beam="2">  1       21 0.29974964E+00 0.16265568E+03</pdfrwt>
<pdfrwt beam="1">  1        4 0.14321121E-02 0.16265568E+03</pdfrwt>
<totfact> 0.24877642E+03</totfact>
</mgrwt>
</event>
<event>
 6    3  0.3813045E-003  0.1282460E+03  0.7818608E-02  0.1230082E+00
         21   -1    0    0  501  502  0.00000000000E+00  0.00000000000E+00  0.20850581321E+03  0.20850581321E+03  0.00000000000E+00 0. -1.
          4   -1    0    0  502    0 -0.00000000000E+00 -0.00000000000E+00 -0.50367790836E+02  0.50383799517E+02  0.12700000000E+01 0.  1.
         25    2    1    2    0    0 -0.28357647955E+02 -0.41358786760E+01  0.35680353418E+02  0.13311697947E+03  0.12500312361E+03 0.  0.
    9000005    1    3    3    0    0  0.36795950253E+02 -0.36593320710E+02 -0.31869121431E+00  0.51904861426E+02  0.10000000000E+01 0.  0.
    9000005    1    3    3    0    0 -0.65153598208E+02  0.32457442034E+02  0.35999044632E+02  0.81212118044E+02  0.10000000000E+01 0.  0.
          4    1    1    2  501    0  0.28357647955E+02  0.41358786760E+01  0.12245766895E+03  0.12577263325E+03  0.12700000000E+01 0. -1.
<mgrwt>
<rscale>  1 0.12824602E+03</rscale>
<asrwt>0</asrwt>
<pdfrwt beam="1">  1       21 0.32077817E-01 0.12824602E+03</pdfrwt>
<pdfrwt beam="2">  1        4 0.77504200E-02 0.12824602E+03</pdfrwt>
<totfact> 0.43982003E+04</totfact>
</mgrwt>
</event>
<event>
 6    3  0.3813045E-003  0.1271990E+03  0.7818608E-02  0.1231672E+00
         21   -1    0    0  501  502  0.00000000000E+00  0.00000000000E+00  0.24724835877E+03  0.24724835877E+03  0.00000000000E+00 0. -1.
         -4   -1    0    0    0  501 -0.00000000000E+00 -0.00000000000E+00 -0.35849087790E+02  0.35871576427E+02  0.12700000000E+01 0.  1.
         25    2    1    2    0    0  0.22906185814E+02 -0.54513408665E+01  0.81435223020E+02  0.15103406492E+03  0.12500073100E+03 0.  0.
    9000005    1    3    3    0    0  0.38350027335E+01  0.35746456663E+02 -0.19097799362E+02  0.40721521955E+02  0.10000000000E+01 0.  0.
    9000005    1    3    3    0    0  0.19071183081E+02 -0.41197797529E+02  0.10053302238E+03  0.11031254296E+03  0.10000000000E+01 0.  0.
         -4    1    1    2    0  502 -0.22906185814E+02  0.54513408665E+01  0.12996404796E+03  0.13208587028E+03  0.12700000000E+01 0. -1.
<mgrwt>
<rscale>  1 0.12719903E+03</rscale>
<asrwt>0</asrwt>
<pdfrwt beam="1">  1       21 0.38038208E-01 0.12719903E+03</pdfrwt>
<pdfrwt beam="2">  1       -4 0.55172252E-02 0.12719903E+03</pdfrwt>
<totfact> 0.54760984E+04</totfact>
</mgrwt>
</event>
<event>
 6    3  0.3813045E-003  0.1281548E+03  0.7818608E-02  0.1230220E+00
         21   -1    0    0  501  502  0.00000000000E+00  0.00000000000E+00  0.82109112172E+02  0.82109112172E+02  0.00000000000E+00 0. -1.
         -4   -1    0    0    0  501 -0.00000000000E+00 -0.00000000000E+00 -0.20695007413E+03  0.20695397092E+03  0.12700000000E+01 0.  1.
         25    2    1    2    0    0 -0.24167659067E+02  0.14646121765E+02 -0.18356879059E+03  0.22387753728E+03  0.12500026477E+03 0.  0.
    9000005    1    3    3    0    0 -0.36734405707E+02 -0.38281389558E+02 -0.30005805125E+02  0.60960886562E+02  0.10000000000E+01 0.  0.
    9000005    1    3    3    0    0  0.12566746639E+02  0.52927511323E+02 -0.15356298546E+03  0.16291665072E+03  0.10000000000E+01 0.  0.
         -4    1    1    2    0  502  0.24167659067E+02 -0.14646121765E+02  0.58727828634E+02  0.65185545818E+02  0.12700000000E+01 0. -1.
<mgrwt>
<rscale>  1 0.12815479E+03</rscale>
<asrwt>0</asrwt>
<pdfrwt beam="1">  1       21 0.12632171E-01 0.12815479E+03</pdfrwt>
<pdfrwt beam="2">  1       -4 0.31839528E-01 0.12815479E+03</pdfrwt>
<totfact> 0.20570285E+04</totfact>
</mgrwt>
</event>
<event>
 6    3  0.3813045E-003  0.1410192E+03  0.7818608E-02  0.1211964E+00
         -4   -1    0    0    0  501 -0.00000000000E+00  0.00000000000E+00  0.57324669768E+02  0.57338736156E+02  0.12700000000E+01 0.  1.
         21   -1    0    0  501  502  0.00000000000E+00 -0.00000000000E+00 -0.22407784543E+03  0.22407784543E+03  0.00000000000E+00 0.  1.
         25    2    1    2    0    0 -0.58342371543E+02 -0.29281303865E+02 -0.53765145654E+02  0.15092085407E+03  0.12500074494E+03 0.  0.
    9000005    1    3    3    0    0 -0.63413661639E+02 -0.17380735755E+02  0.25551725890E+02  0.70549792018E+02  0.10000000000E+01 0.  0.
    9000005    1    3    3    0    0  0.50712900966E+01 -0.11900568110E+02 -0.79316871544E+02  0.80371062057E+02  0.10000000000E+01 0.  0.
         -4    1    1    2    0  502  0.58342371543E+02  0.29281303865E+02 -0.11298803000E+03  0.13049572751E+03  0.12700000000E+01 0. -1.
<mgrwt>
<rscale>  1 0.14101919E+03</rscale>
<asrwt>0</asrwt>
<pdfrwt beam="2">  1       21 0.34473515E-01 0.14101919E+03</pdfrwt>
<pdfrwt beam="1">  1       -4 0.88205388E-02 0.14101919E+03</pdfrwt>
<totfact> 0.31133080E+04</totfact>
</mgrwt>
</event>
<event>
 6    3  0.3813045E-003  0.1389503E+03  0.7818608E-02  0.1214748E+00
         -4   -1    0    0    0  501 -0.00000000000E+00  0.00000000000E+00  0.35337343674E+03  0.35337571888E+03  0.12700000000E+01 0. -1.
         21   -1    0    0  501  502  0.00000000000E+00 -0.00000000000E+00 -0.39183009712E+02  0.39183009712E+02  0.00000000000E+00 0.  1.
         25    2    1    2    0    0  0.60663289124E+02  0.16103392135E+01  0.29941895160E+03  0.33008923823E+03  0.12499827511E+03 0.  0.
    9000005    1    3    3    0    0  0.81030912244E+02 -0.16722087917E+02  0.10470172351E+03  0.13345069452E+03  0.10000000000E+01 0.  0.
    9000005    1    3    3    0    0 -0.20367623120E+02  0.18332427130E+02  0.19471722809E+03  0.19663854370E+03  0.10000000000E+01 0.  0.
         -4    1    1    2    0  502 -0.60663289124E+02 -0.16103392135E+01  0.14771475432E+02  0.62469490362E+02  0.12700000000E+01 0.  1.
<mgrwt>
<rscale>  1 0.13895034E+03</rscale>
<asrwt>0</asrwt>
<pdfrwt beam="2">  1       21 0.60281556E-02 0.13895034E+03</pdfrwt>
<pdfrwt beam="1">  1       -4 0.54366901E-01 0.13895034E+03</pdfrwt>
<totfact> 0.25981659E+04</totfact>
</mgrwt>
</event>
<event>
 6    3  0.3813045E-003  0.1278585E+03  0.7818608E-02  0.1230668E+00
         -4   -1    0    0    0  501 -0.00000000000E+00  0.00000000000E+00  0.12298614665E+03  0.12299270372E+03  0.12700000000E+01 0.  1.
         21   -1    0    0  501  502  0.00000000000E+00 -0.00000000000E+00 -0.20013098097E+03  0.20013098097E+03  0.00000000000E+00 0. -1.
         25    2    1    2    0    0  0.39344275746E+01  0.26621990884E+02  0.88373312464E+02  0.15542729256E+03  0.12499436306E+03 0.  0.
    9000005    1    3    3    0    0  0.21612059689E+02 -0.54586769925E+01 -0.26621350929E+02  0.34735782758E+02  0.10000000000E+01 0.  0.
    9000005    1    3    3    0    0 -0.17677632115E+02  0.32080667876E+02  0.11499466339E+03  0.12069150980E+03  0.10000000000E+01 0.  0.
         -4    1    1    2    0  502 -0.39344275746E+01 -0.26621990884E+02 -0.16551814679E+03  0.16769639214E+03  0.12700000000E+01 0. -1.
<mgrwt>
<rscale>  1 0.12785852E+03</rscale>
<asrwt>0</asrwt>
<pdfrwt beam="2">  1       21 0.30789381E-01 0.12785852E+03</pdfrwt>
<pdfrwt beam="1">  1       -4 0.18921760E-01 0.12785852E+03</pdfrwt>
<totfact> 0.10322440E+04</totfact>
</mgrwt>
</event>
<event>
 6    3  0.3813045E-003  0.1277523E+03  0.7818608E-02  0.1230829E+00
         21   -1    0    0  501  502  0.00000000000E+00  0.00000000000E+00  0.87784577198E+02  0.87784577198E+02  0.00000000000E+00 0. -1.
         -4   -1    0    0    0  501 -0.00000000000E+00 -0.00000000000E+00 -0.23291012107E+03  0.23291358354E+03  0.12700000000E+01 0.  1.
         25    2    1    2    0    0  0.47588722513E+01  0.25957154734E+02 -0.21271430245E+03  0.24812906308E+03  0.12499694688E+03 0.  0.
    9000005    1    3    3    0    0 -0.47301644239E+01  0.47814735078E+02 -0.21838854763E+03  0.22361391075E+03  0.10000000000E+01 0.  0.
    9000005    1    3    3    0    0  0.94890366752E+01 -0.21857580344E+02  0.56742451722E+01  0.24515152331E+02  0.10000000000E+01 0.  0.
         -4    1    1    2    0  502 -0.47588722513E+01 -0.25957154734E+02  0.67588758586E+02  0.72569097653E+02  0.12700000000E+01 0. -1.
<mgrwt>
<rscale>  1 0.12775233E+03</rscale>
<asrwt>0</asrwt>
<pdfrwt beam="1">  1       21 0.13505320E-01 0.12775233E+03</pdfrwt>
<pdfrwt beam="2">  1       -4 0.35833298E-01 0.12775233E+03</pdfrwt>
<totfact> 0.14551577E+04</totfact>
</mgrwt>
</event>
<event>
 6    3  0.3813045E-003  0.1301134E+03  0.7818608E-02  0.1227288E+00
         21   -1    0    0  501  502  0.00000000000E+00  0.00000000000E+00  0.10270869527E+02  0.10270869527E+02  0.00000000000E+00 0.  1.
         -4   -1    0    0    0  501 -0.00000000000E+00 -0.00000000000E+00 -0.68006311780E+03  0.68006430364E+03  0.12700000000E+01 0.  1.
         25    2    1    2    0    0 -0.35662812232E+02 -0.57262285988E+01 -0.55174038537E+03  0.56687472969E+03  0.12499952176E+03 0.  0.
    9000005    1    3    3    0    0 -0.59878820994E+02 -0.23710305842E+02 -0.14086274470E+03  0.15489016964E+03  0.10000000000E+01 0.  0.
    9000005    1    3    3    0    0  0.24216008762E+02  0.17984077243E+02 -0.41087764067E+03  0.41198456005E+03  0.10000000000E+01 0.  0.
         -4    1    1    2    0  502  0.35662812232E+02  0.57262285988E+01 -0.11805186290E+03  0.12346044348E+03  0.12700000000E+01 0. -1.
<mgrwt>
<rscale>  1 0.13011344E+03</rscale>
<asrwt>0</asrwt>
<pdfrwt beam="1">  1       21 0.15801336E-02 0.13011344E+03</pdfrwt>
<pdfrwt beam="2">  1       -4 0.10463124E+00 0.13011344E+03</pdfrwt>
<totfact> 0.55631761E+04</totfact>
</mgrwt>
</event>
<event>
 6    3  0.3813045E-003  0.1287001E+03  0.7818608E-02  0.1229397E+00
          4   -1    0    0  502    0 -0.00000000000E+00  0.00000000000E+00  0.35683130159E+02  0.35705723322E+02  0.12700000000E+01 0.  1.
         21   -1    0    0  501  502  0.00000000000E+00 -0.00000000000E+00 -0.18413283062E+03  0.18413283062E+03  0.00000000000E+00 0.  1.
         25    2    1    2    0    0  0.48332233880E+01 -0.30230178797E+02 -0.13455283543E+03  0.18619394789E+03  0.12500598766E+03 0.  0.
    9000005    1    3    3    0    0  0.67620799640E+01 -0.57824482401E+02 -0.10594899111E+02  0.59183176474E+02  0.10000000000E+01 0.  0.
    9000005    1    3    3    0    0 -0.19288565760E+01  0.27594303604E+02 -0.12395793632E+03  0.12701077142E+03  0.10000000000E+01 0.  0.
          4    1    1    2  501    0 -0.48332233880E+01  0.30230178797E+02 -0.13896865024E+02  0.33644606045E+02  0.12700000000E+01 0. -1.
<mgrwt>
<rscale>  1 0.12870012E+03</rscale>
<asrwt>0</asrwt>
<pdfrwt beam="2">  1       21 0.28328129E-01 0.12870012E+03</pdfrwt>
<pdfrwt beam="1">  1        4 0.54917870E-02 0.12870012E+03</pdfrwt>
<totfact> 0.98143518E+04</totfact>
</mgrwt>
</event>
<event>
 6    3  0.3813045E-003  0.1281432E+03  0.7818608E-02  0.1230237E+00
         21   -1    0    0  501  502  0.00000000000E+00  0.00000000000E+00  0.36633795369E+02  0.36633795369E+02  0.00000000000E+00 0. -1.
         -4   -1    0    0    0  501 -0.00000000000E+00 -0.00000000000E+00 -0.19432846347E+03  0.19433261336E+03  0.12700000000E+01 0. -1.
         25    2    1    2    0    0 -0.28063025183E+02 -0.28910014131E+01 -0.15708141086E+03  0.20271963447E+03  0.12499915716E+03 0.  0.
    9000005    1    3    3    0    0 -0.17242136969E+01  0.49287445736E+02 -0.12851250710E+03  0.13765423968E+03  0.10000000000E+01 0.  0.
    9000005    1    3    3    0    0 -0.26338811486E+02 -0.52178447149E+02 -0.28568903761E+02  0.65065394792E+02  0.10000000000E+01 0.  0.
         -4    1    1    2    0  502  0.28063025183E+02  0.28910014131E+01 -0.61325724222E+00  0.28246774259E+02  0.12700000000E+01 0.  1.
<mgrwt>
<rscale>  1 0.12814320E+03</rscale>
<asrwt>0</asrwt>
<pdfrwt beam="1">  1       21 0.56359687E-02 0.12814320E+03</pdfrwt>
<pdfrwt beam="2">  1       -4 0.29898698E-01 0.12814320E+03</pdfrwt>
<totfact> 0.93700743E+04</totfact>
</mgrwt>
</event>
<event>
 6    3  0.3813045E-003  0.1388708E+03  0.7818608E-02  0.1214857E+00
         21   -1    0    0  501  502  0.00000000000E+00  0.00000000000E+00  0.97944781440E+02  0.97944781440E+02  0.00000000000E+00 0.  1.
          4   -1    0    0  502    0 -0.00000000000E+00 -0.00000000000E+00 -0.13659579431E+03  0.13660169810E+03  0.12700000000E+01 0. -1.
         25    2    1    2    0    0 -0.30062017219E+02  0.52497320265E+02 -0.80928519071E+02  0.16073121049E+03  0.12500161325E+03 0.  0.
    9000005    1    3    3    0    0  0.23798827914E+02  0.99954393314E+01 -0.88034741744E+02  0.91746437378E+02  0.10000000000E+01 0.  0.
    9000005    1    3    3    0    0 -0.53860845133E+02  0.42501880933E+02  0.71062226737E+01  0.68984773117E+02  0.10000000000E+01 0.  0.
          4    1    1    2  501    0  0.30062017219E+02 -0.52497320265E+02  0.42277506196E+02  0.73815269047E+02  0.12700000000E+01 0.  1.
<mgrwt>
<rscale>  1 0.13887079E+03</rscale>
<asrwt>0</asrwt>
<pdfrwt beam="1">  1       21 0.15068428E-01 0.13887079E+03</pdfrwt>
<pdfrwt beam="2">  1        4 0.21015825E-01 0.13887079E+03</pdfrwt>
<totfact> 0.32676419E+04</totfact>
</mgrwt>
</event>
<event>
 6    3  0.3813045E-003  0.1275905E+03  0.7818608E-02  0.1231075E+00
         21   -1    0    0  501  502  0.00000000000E+00  0.00000000000E+00  0.24368984485E+03  0.24368984485E+03  0.00000000000E+00 0.  1.
         -4   -1    0    0    0  501 -0.00000000000E+00 -0.00000000000E+00 -0.25714303599E+02  0.25745646420E+02  0.12700000000E+01 0.  1.
         25    2    1    2    0    0 -0.25257958233E+02 -0.40653827823E+01  0.15075680124E+03  0.19750174606E+03  0.12499933914E+03 0.  0.
    9000005    1    3    3    0    0 -0.38115935029E+02 -0.27823378160E+02  0.16161726362E+03  0.16836895431E+03  0.10000000000E+01 0.  0.
    9000005    1    3    3    0    0  0.12857976796E+02  0.23757995377E+02 -0.10860462385E+02  0.29132791745E+02  0.10000000000E+01 0.  0.
         -4    1    1    2    0  502  0.25257958233E+02  0.40653827823E+01  0.67218740011E+02  0.71933745210E+02  0.12700000000E+01 0. -1.
<mgrwt>
<rscale>  1 0.12759046E+03</rscale>
<asrwt>0</asrwt>
<pdfrwt beam="1">  1       21 0.37490744E-01 0.12759046E+03</pdfrwt>
<pdfrwt beam="2">  1       -4 0.39587124E-02 0.12759046E+03</pdfrwt>
<totfact> 0.95881906E+04</totfact>
</mgrwt>
</event>
<event>
 6    3  0.3813045E-003  0.1296075E+03  0.7818608E-02  0.1228039E+00
          4   -1    0    0  502    0 -0.00000000000E+00  0.00000000000E+00  0.14476953610E+02  0.14532552625E+02  0.12700000000E+01 0.  1.
         21   -1    0    0  501  502  0.00000000000E+00 -0.00000000000E+00 -0.47126284407E+03  0.47126284407E+03  0.00000000000E+00 0.  1.
         25    2    1    2    0    0 -0.32656493633E+02  0.10220029187E+02 -0.38566560296E+03  0.40686122306E+03  0.12500880750E+03 0.  0.
    9000005    1    3    3    0    0 -0.44687838744E+00  0.40493756817E+02 -0.34311329022E+03  0.34549627200E+03  0.10000000000E+01 0.  0.
    9000005    1    3    3    0    0 -0.32209615246E+02 -0.30273727629E+02 -0.42552312732E+02  0.61364951053E+02  0.10000000000E+01 0.  0.
          4    1    1    2  501    0  0.32656493633E+02 -0.10220029187E+02 -0.71120287501E+02  0.78934173633E+02  0.12700000000E+01 0. -1.
<mgrwt>
<rscale>  1 0.12960747E+03</rscale>
<asrwt>0</asrwt>
<pdfrwt beam="2">  1       21 0.72501969E-01 0.12960747E+03</pdfrwt>
<pdfrwt beam="1">  1        4 0.22316323E-02 0.12960747E+03</pdfrwt>
<totfact> 0.59731200E+04</totfact>
</mgrwt>
</event>
<event>
 6    3  0.3813045E-003  0.1367706E+03  0.7818608E-02  0.1217742E+00
         -4   -1    0    0    0  501 -0.00000000000E+00  0.00000000000E+00  0.15386372907E+03  0.15386897030E+03  0.12700000000E+01 0.  1.
         21   -1    0    0  501  502  0.00000000000E+00 -0.00000000000E+00 -0.17812601572E+03  0.17812601572E+03  0.00000000000E+00 0. -1.
         25    2    1    2    0    0 -0.25643024364E+02 -0.49229117122E+02  0.11714328208E+03  0.18007981746E+03  0.12500048579E+03 0.  0.
    9000005    1    3    3    0    0  0.20777852881E+02 -0.19654022482E+02  0.12153047291E+03  0.12485453783E+03  0.10000000000E+01 0.  0.
    9000005    1    3    3    0    0 -0.46420877244E+02 -0.29575094640E+02 -0.43871908305E+01  0.55225279633E+02  0.10000000000E+01 0.  0.
         -4    1    1    2    0  502  0.25643024364E+02  0.49229117122E+02 -0.14140556874E+03  0.15191516857E+03  0.12700000000E+01 0. -1.
<mgrwt>
<rscale>  1 0.13677058E+03</rscale>
<asrwt>0</asrwt>
<pdfrwt beam="2">  1       21 0.27404002E-01 0.13677058E+03</pdfrwt>
<pdfrwt beam="1">  1       -4 0.23672094E-01 0.13677058E+03</pdfrwt>
<totfact> 0.86566979E+03</totfact>
</mgrwt>
</event>
<event>
 6    3  0.3813045E-003  0.1266767E+03  0.7818608E-02  0.1232472E+00
         21   -1    0    0  501  502  0.00000000000E+00  0.00000000000E+00  0.20373018792E+02  0.20373018792E+02  0.00000000000E+00 0. -1.
         -4   -1    0    0    0  501 -0.00000000000E+00 -0.00000000000E+00 -0.34249829199E+03  0.34250064659E+03  0.12700000000E+01 0. -1.
         25    2    1    2    0    0  0.18253755891E+02 -0.94047282210E+01 -0.31742769540E+03  0.34177085386E+03  0.12500130489E+03 0.  0.
    9000005    1    3    3    0    0 -0.57829852138E+01  0.96054786677E+01  0.86864778339E+01  0.14218404818E+02  0.10000000000E+01 0.  0.
    9000005    1    3    3    0    0  0.24036741105E+02 -0.19010206889E+02 -0.32611417323E+03  0.32755244904E+03  0.10000000000E+01 0.  0.
         -4    1    1    2    0  502 -0.18253755891E+02  0.94047282210E+01 -0.46975777963E+01  0.21102811523E+02  0.12700000000E+01 0.  1.
<mgrwt>
<rscale>  1 0.12667665E+03</rscale>
<asrwt>0</asrwt>
<pdfrwt beam="1">  1       21 0.31343106E-02 0.12667665E+03</pdfrwt>
<pdfrwt beam="2">  1       -4 0.52695270E-01 0.12667665E+03</pdfrwt>
<totfact> 0.81605511E+04</totfact>
</mgrwt>
</event>
<event>
 6    3  0.3813045E-003  0.1291820E+03  0.7818608E-02  0.1228675E+00
         21   -1    0    0  501  502  0.00000000000E+00  0.00000000000E+00  0.45468735503E+03  0.45468735503E+03  0.00000000000E+00 0.  1.
          4   -1    0    0  502    0 -0.00000000000E+00 -0.00000000000E+00 -0.25194737508E+02  0.25226725870E+02  0.12700000000E+01 0. -1.
         25    2    1    2    0    0  0.27622518055E+02  0.17312723016E+02  0.14763051429E+03  0.19617019635E+03  0.12500097321E+03 0.  0.
    9000005    1    3    3    0    0  0.31879166245E+02  0.69652019773E+02  0.84812576493E+02  0.11428848687E+03  0.10000000000E+01 0.  0.
    9000005    1    3    3    0    0 -0.42566481898E+01 -0.52339296757E+02  0.62817937801E+02  0.81881709486E+02  0.10000000000E+01 0.  0.
          4    1    1    2  501    0 -0.27622518055E+02 -0.17312723016E+02  0.28186210323E+03  0.28374388455E+03  0.12700000000E+01 0.  1.
<mgrwt>
<rscale>  1 0.12918195E+03</rscale>
<asrwt>0</asrwt>
<pdfrwt beam="1">  1       21 0.69951895E-01 0.12918195E+03</pdfrwt>
<pdfrwt beam="2">  1        4 0.38787109E-02 0.12918195E+03</pdfrwt>
<totfact> 0.27202959E+04</totfact>
</mgrwt>
</event>
<event>
 6    3  0.3813045E-003  0.1279879E+03  0.7818608E-02  0.1230472E+00
         21   -1    0    0  501  502  0.00000000000E+00  0.00000000000E+00  0.70401958362E+02  0.70401958362E+02  0.00000000000E+00 0.  1.
         -4   -1    0    0    0  501 -0.00000000000E+00 -0.00000000000E+00 -0.94343099968E+02  0.94351647636E+02  0.12700000000E+01 0.  1.
         25    2    1    2    0    0 -0.57031883114E+01  0.26897763517E+02 -0.38450014640E+02  0.13363871670E+03  0.12499954775E+03 0.  0.
    9000005    1    3    3    0    0  0.24652549822E+02 -0.28163528229E+02 -0.56892110914E+02  0.68107597368E+02  0.10000000000E+01 0.  0.
    9000005    1    3    3    0    0 -0.30355738133E+02  0.55061291745E+02  0.18442096274E+02  0.65531119335E+02  0.10000000000E+01 0.  0.
         -4    1    1    2    0  502  0.57031883114E+01 -0.26897763517E+02  0.14508873034E+02  0.31114889295E+02  0.12700000000E+01 0. -1.
<mgrwt>
<rscale>  1 0.12798790E+03</rscale>
<asrwt>0</asrwt>
<pdfrwt beam="1">  1       21 0.10831071E-01 0.12798790E+03</pdfrwt>
<pdfrwt beam="2">  1       -4 0.14515862E-01 0.12798790E+03</pdfrwt>
<totfact> 0.11225533E+05</totfact>
</mgrwt>
</event>
<event>
 6    3  0.3813045E-003  0.1278392E+03  0.7818608E-02  0.1230698E+00
          4   -1    0    0  502    0 -0.00000000000E+00  0.00000000000E+00  0.32313712736E+03  0.32313962304E+03  0.12700000000E+01 0. -1.
         21   -1    0    0  501  502  0.00000000000E+00 -0.00000000000E+00 -0.19536843512E+02  0.19536843512E+02  0.00000000000E+00 0.  1.
         25    2    1    2    0    0  0.11514005749E+02  0.24163744096E+02  0.27620153981E+03  0.30435202354E+03  0.12500561901E+03 0.  0.
    9000005    1    3    3    0    0  0.21689133088E+02 -0.27464804600E+02  0.15322114659E+02  0.38216504071E+02  0.10000000000E+01 0.  0.
    9000005    1    3    3    0    0 -0.10175127339E+02  0.51628548696E+02  0.26087942515E+03  0.26613551947E+03  0.10000000000E+01 0.  0.
          4    1    1    2  501    0 -0.11514005749E+02 -0.24163744096E+02  0.27398744039E+02  0.38324443010E+02  0.12700000000E+01 0.  1.
<mgrwt>
<rscale>  1 0.12783921E+03</rscale>
<asrwt>0</asrwt>
<pdfrwt beam="2">  1       21 0.30056685E-02 0.12783921E+03</pdfrwt>
<pdfrwt beam="1">  1        4 0.49716767E-01 0.12783921E+03</pdfrwt>
<totfact> 0.98577227E+04</totfact>
</mgrwt>
</event>
<event>
 6    3  0.3813045E-003  0.1334312E+03  0.7818608E-02  0.1222451E+00
         -4   -1    0    0    0  501 -0.00000000000E+00  0.00000000000E+00  0.72078366001E+03  0.72078477886E+03  0.12700000000E+01 0. -1.
         21   -1    0    0  501  502  0.00000000000E+00 -0.00000000000E+00 -0.42294432198E+02  0.42294432198E+02  0.00000000000E+00 0.  1.
         25    2    1    2    0    0 -0.39721068288E+02 -0.24467877565E+02  0.69934596541E+03  0.71196114476E+03  0.12500980770E+03 0.  0.
    9000005    1    3    3    0    0 -0.13437085258E+02  0.29771995710E+00  0.65327702411E+03  0.65341603449E+03  0.10000000000E+01 0.  0.
    9000005    1    3    3    0    0 -0.26283983030E+02 -0.24765597522E+02  0.46068941294E+02  0.58545110270E+02  0.10000000000E+01 0.  0.
         -4    1    1    2    0  502  0.39721068288E+02  0.24467877565E+02 -0.20856737597E+02  0.51118066294E+02  0.12700000000E+01 0.  1.
<mgrwt>
<rscale>  1 0.13343123E+03</rscale>
<asrwt>0</asrwt>
<pdfrwt beam="2">  1       21 0.65068363E-02 0.13343123E+03</pdfrwt>
<pdfrwt beam="1">  1       -4 0.11089134E+00 0.13343123E+03</pdfrwt>
<totfact> 0.47248296E+03</totfact>
</mgrwt>
</event>
<event>
 6    3  0.3813045E-003  0.1269127E+03  0.7818608E-02  0.1232110E+00
          4   -1    0    0  502    0 -0.00000000000E+00  0.00000000000E+00  0.26210438239E+03  0.26210745920E+03  0.12700000000E+01 0. -1.
         21   -1    0    0  501  502  0.00000000000E+00 -0.00000000000E+00 -0.52868709001E+02  0.52868709001E+02  0.00000000000E+00 0.  1.
         25    2    1    2    0    0  0.13971786837E+02  0.16946772471E+02  0.24330778531E+03  0.27441848539E+03  0.12499769119E+03 0.  0.
    9000005    1    3    3    0    0  0.41168760690E+02  0.34464540793E+01  0.14792498517E+02  0.43892629391E+02  0.10000000000E+01 0.  0.
    9000005    1    3    3    0    0 -0.27196973852E+02  0.13500318392E+02  0.22851528680E+03  0.23052585600E+03  0.10000000000E+01 0.  0.
          4    1    1    2  501    0 -0.13971786837E+02 -0.16946772471E+02 -0.34072111922E+02  0.40557682817E+02  0.12700000000E+01 0.  1.
<mgrwt>
<rscale>  1 0.12691267E+03</rscale>
<asrwt>0</asrwt>
<pdfrwt beam="2">  1       21 0.81336477E-02 0.12691267E+03</pdfrwt>
<pdfrwt beam="1">  1        4 0.40325160E-01 0.12691267E+03</pdfrwt>
<totfact> 0.28120098E+04</totfact>
</mgrwt>
</event>
<event>
 6    3  0.3813045E-003  0.1304987E+03  0.7818608E-02  0.1226718E+00
         21   -1    0    0  501  502  0.00000000000E+00  0.00000000000E+00  0.71826784218E+02  0.71826784218E+02  0.00000000000E+00 0.  1.
         -4   -1    0    0    0  501 -0.00000000000E+00 -0.00000000000E+00 -0.14540369331E+03  0.14540923949E+03  0.12700000000E+01 0. -1.
         25    2    1    2    0    0 -0.96707255143E+00 -0.37452477872E+02 -0.10564767181E+03  0.16790276870E+03  0.12500514329E+03 0.  0.
    9000005    1    3    3    0    0 -0.55119512629E+02  0.12608748820E+02 -0.50393724754E+02  0.75747400707E+02  0.10000000000E+01 0.  0.
    9000005    1    3    3    0    0  0.54152440077E+02 -0.50061226692E+02 -0.55253947058E+02  0.92155367992E+02  0.10000000000E+01 0.  0.
         -4    1    1    2    0  502  0.96707255143E+00  0.37452477872E+02  0.32070762720E+02  0.49333255006E+02  0.12700000000E+01 0.  1.
<mgrwt>
<rscale>  1 0.13049869E+03</rscale>
<asrwt>0</asrwt>
<pdfrwt beam="1">  1       21 0.11050275E-01 0.13049869E+03</pdfrwt>
<pdfrwt beam="2">  1       -4 0.22371089E-01 0.13049869E+03</pdfrwt>
<totfact> 0.50363385E+04</totfact>
</mgrwt>
</event>
<event>
 6    3  0.3813045E-003  0.1320939E+03  0.7818608E-02  0.1224381E+00
         21   -1    0    0  501  502  0.00000000000E+00  0.00000000000E+00  0.17798298646E+04  0.17798298646E+04  0.00000000000E+00 0. -1.
          4   -1    0    0  502    0 -0.00000000000E+00 -0.00000000000E+00 -0.11567980568E+02  0.11637485743E+02  0.12700000000E+01 0.  1.
         25    2    1    2    0    0  0.42701432787E+02 -0.78512099572E+00  0.37561326874E+03  0.39816343255E+03  0.12499905034E+03 0.  0.
    9000005    1    3    3    0    0  0.20728532103E+01  0.58433170847E+02  0.13657093412E+03  0.14856430332E+03  0.10000000000E+01 0.  0.
    9000005    1    3    3    0    0  0.40628579576E+02 -0.59218291843E+02  0.23904233462E+03  0.24959912922E+03  0.10000000000E+01 0.  0.
          4    1    1    2  501    0 -0.42701432787E+02  0.78512099572E+00  0.13926486153E+04  0.13933039178E+04  0.12700000000E+01 0. -1.
<mgrwt>
<rscale>  1 0.13209387E+03</rscale>
<asrwt>0</asrwt>
<pdfrwt beam="1">  1       21 0.27381976E+00 0.13209387E+03</pdfrwt>
<pdfrwt beam="2">  1        4 0.17850721E-02 0.13209387E+03</pdfrwt>
<totfact> 0.25189525E+03</totfact>
</mgrwt>
</event>
<event>
 6    3  0.3813045E-003  0.1313779E+03  0.7818608E-02  0.1225425E+00
         21   -1    0    0  501  502  0.00000000000E+00  0.00000000000E+00  0.38091531102E+02  0.38091531102E+02  0.00000000000E+00 0.  1.
          4   -1    0    0  502    0 -0.00000000000E+00 -0.00000000000E+00 -0.27485085419E+03  0.27485378831E+03  0.12700000000E+01 0. -1.
         25    2    1    2    0    0 -0.40991809532E+01  0.40224214390E+02 -0.23867845925E+03  0.27244733562E+03  0.12500141226E+03 0.  0.
    9000005    1    3    3    0    0  0.38453838314E+02  0.69694317781E+02 -0.14398189792E+03  0.16452289367E+03  0.10000000000E+01 0.  0.
    9000005    1    3    3    0    0 -0.42553019267E+02 -0.29470103391E+02 -0.94696561334E+02  0.10792444195E+03  0.10000000000E+01 0.  0.
          4    1    1    2  501    0  0.40991809532E+01 -0.40224214390E+02  0.19191361638E+01  0.40497983794E+02  0.12700000000E+01 0.  1.
<mgrwt>
<rscale>  1 0.13137787E+03</rscale>
<asrwt>0</asrwt>
<pdfrwt beam="1">  1       21 0.58602356E-02 0.13137787E+03</pdfrwt>
<pdfrwt beam="2">  1        4 0.42286600E-01 0.13137787E+03</pdfrwt>
<totfact> 0.45030720E+04</totfact>
</mgrwt>
</event>
<event>
 6    3  0.3813045E-003  0.1266975E+03  0.7818608E-02  0.1232440E+00
         21   -1    0    0  501  502  0.00000000000E+00  0.00000000000E+00  0.27486614405E+02  0.27486614405E+02  0.00000000000E+00 0.  1.
          4   -1    0    0  502    0 -0.00000000000E+00 -0.00000000000E+00 -0.32466012922E+03  0.32466261319E+03  0.12700000000E+01 0. -1.
         25    2    1    2    0    0 -0.14402873367E+02  0.14813447245E+02 -0.30480405742E+03  0.33008751730E+03  0.12500149871E+03 0.  0.
    9000005    1    3    3    0    0  0.13287541084E+02 -0.52146510766E+02 -0.14315225093E+03  0.15293588290E+03  0.10000000000E+01 0.  0.
    9000005    1    3    3    0    0 -0.27690414451E+02  0.66959958011E+02 -0.16165180649E+03  0.17715163440E+03  0.10000000000E+01 0.  0.
          4    1    1    2  501    0  0.14402873367E+02 -0.14813447245E+02  0.76305426078E+01  0.22061710291E+02  0.12700000000E+01 0.  1.
<mgrwt>
<rscale>  1 0.12669750E+03</rscale>
<asrwt>0</asrwt>
<pdfrwt beam="1">  1       21 0.42287098E-02 0.12669750E+03</pdfrwt>
<pdfrwt beam="2">  1        4 0.49950161E-01 0.12669750E+03</pdfrwt>
<totfact> 0.55480946E+04</totfact>
</mgrwt>
</event>
<event>
 6    3  0.3813045E-003  0.1266510E+03  0.7818608E-02  0.1232511E+00
         21   -1    0    0  501  502  0.00000000000E+00  0.00000000000E+00  0.22702880682E+03  0.22702880682E+03  0.00000000000E+00 0. -1.
          4   -1    0    0  502    0 -0.00000000000E+00 -0.00000000000E+00 -0.55532518044E+02  0.55547038267E+02  0.12700000000E+01 0.  1.
         25    2    1    2    0    0 -0.15352952501E+01  0.20040984326E+02  0.18187942341E+02  0.12795029684E+03  0.12504590769E+03 0.  0.
    9000005    1    3    3    0    0  0.32881468125E+02 -0.13273547034E+01 -0.43247752852E+02  0.54353665409E+02  0.10000000000E+01 0.  0.
    9000005    1    3    3    0    0 -0.34416763375E+02  0.21368339030E+02  0.61435695193E+02  0.73596631431E+02  0.10000000000E+01 0.  0.
          4    1    1    2  501    0  0.15352952501E+01 -0.20040984326E+02  0.15330834644E+03  0.15462554825E+03  0.12700000000E+01 0. -1.
<mgrwt>
<rscale>  1 0.12665101E+03</rscale>
<asrwt>0</asrwt>
<pdfrwt beam="1">  1       21 0.34927508E-01 0.12665101E+03</pdfrwt>
<pdfrwt beam="2">  1        4 0.85448546E-02 0.12665101E+03</pdfrwt>
<totfact> 0.31643291E+04</totfact>
</mgrwt>
</event>
<event>
 6    3  0.3813045E-003  0.1293380E+03  0.7818608E-02  0.1228441E+00
         21   -1    0    0  501  502  0.00000000000E+00  0.00000000000E+00  0.69695816895E+02  0.69695816895E+02  0.00000000000E+00 0.  1.
         -4   -1    0    0    0  501 -0.00000000000E+00 -0.00000000000E+00 -0.29226364294E+03  0.29226640225E+03  0.12700000000E+01 0. -1.
         25    2    1    2    0    0 -0.11712879122E+02  0.30945311348E+02 -0.27273721627E+03  0.30185078557E+03  0.12503401049E+03 0.  0.
    9000005    1    3    3    0    0  0.13197649367E+02 -0.43529611566E+02 -0.14431884824E+03  0.15132063636E+03  0.10000000000E+01 0.  0.
    9000005    1    3    3    0    0 -0.24910528489E+02  0.74474922915E+02 -0.12841836803E+03  0.15053014921E+03  0.10000000000E+01 0.  0.
         -4    1    1    2    0  502  0.11712879122E+02 -0.30945311348E+02  0.50169390222E+02  0.60111433579E+02  0.12700000000E+01 0.  1.
<mgrwt>
<rscale>  1 0.12933796E+03</rscale>
<asrwt>0</asrwt>
<pdfrwt beam="1">  1       21 0.10722433E-01 0.12933796E+03</pdfrwt>
<pdfrwt beam="2">  1       -4 0.44964740E-01 0.12933796E+03</pdfrwt>
<totfact> 0.14032122E+04</totfact>
</mgrwt>
</event>
<event>
 6    3  0.3813045E-003  0.1272631E+03  0.7818608E-02  0.1231574E+00
         -4   -1    0    0    0  501 -0.00000000000E+00  0.00000000000E+00  0.22085692728E+03  0.22086057871E+03  0.12700000000E+01 0. -1.
         21   -1    0    0  501  502  0.00000000000E+00 -0.00000000000E+00 -0.36129086892E+03  0.36129086892E+03  0.00000000000E+00 0.  1.
         25    2    1    2    0    0  0.69685203532E+01  0.22848730381E+02  0.20207401694E+03  0.23880914125E+03  0.12500109146E+03 0.  0.
    9000005    1    3    3    0    0  0.25825366169E+02  0.49895014786E+02  0.19770469250E+03  0.20553493006E+03  0.10000000000E+01 0.  0.
    9000005    1    3    3    0    0 -0.18856845816E+02 -0.27046284405E+02  0.43693244377E+01  0.33274211189E+02  0.10000000000E+01 0.  0.
         -4    1    1    2    0  502 -0.69685203532E+01 -0.22848730381E+02 -0.34250795858E+03  0.34334230638E+03  0.12700000000E+01 0.  1.
<mgrwt>
<rscale>  1 0.12726310E+03</rscale>
<asrwt>0</asrwt>
<pdfrwt beam="2">  1       21 0.55583210E-01 0.12726310E+03</pdfrwt>
<pdfrwt beam="1">  1       -4 0.33978442E-01 0.12726310E+03</pdfrwt>
<totfact> 0.10665021E+03</totfact>
</mgrwt>
</event>
<event>
 6    3  0.3813045E-003  0.1342489E+03  0.7818608E-02  0.1221284E+00
         21   -1    0    0  501  502  0.00000000000E+00  0.00000000000E+00  0.18780289883E+02  0.18780289883E+02  0.00000000000E+00 0.  1.
          4   -1    0    0  502    0 -0.00000000000E+00 -0.00000000000E+00 -0.98090278329E+03  0.98090360544E+03  0.12700000000E+01 0. -1.
         25    2    1    2    0    0 -0.28722066026E+02 -0.39663518299E+02 -0.93317639468E+03  0.94278362035E+03  0.12499847780E+03 0.  0.
    9000005    1    3    3    0    0  0.16011353163E+02 -0.16644765555E+02 -0.80130328689E+03  0.80163668156E+03  0.10000000000E+01 0.  0.
    9000005    1    3    3    0    0 -0.44733419189E+02 -0.23018752744E+02 -0.13187310779E+03  0.14114693879E+03  0.10000000000E+01 0.  0.
          4    1    1    2  501    0  0.28722066026E+02  0.39663518299E+02 -0.28946098730E+02  0.56900274976E+02  0.12700000000E+01 0.  1.
<mgrwt>
<rscale>  1 0.13424892E+03</rscale>
<asrwt>0</asrwt>
<pdfrwt beam="1">  1       21 0.28892751E-02 0.13424892E+03</pdfrwt>
<pdfrwt beam="2">  1        4 0.15091150E+00 0.13424892E+03</pdfrwt>
<totfact> 0.86254987E+03</totfact>
</mgrwt>
</event>
<event>
 6    3  0.3813045E-003  0.1395433E+03  0.7818608E-02  0.1213945E+00
         -4   -1    0    0    0  501 -0.00000000000E+00  0.00000000000E+00  0.52299948513E+02  0.52315365950E+02  0.12700000000E+01 0. -1.
         21   -1    0    0  501  502  0.00000000000E+00 -0.00000000000E+00 -0.35430364183E+03  0.35430364183E+03  0.00000000000E+00 0.  1.
         25    2    1    2    0    0 -0.41790349498E+02 -0.45854052447E+02 -0.51819797426E+02  0.14885434360E+03  0.12499318688E+03 0.  0.
    9000005    1    3    3    0    0 -0.61604124036E+02 -0.56558565992E+01 -0.75936885410E+02  0.97951352098E+02  0.10000000000E+01 0.  0.
    9000005    1    3    3    0    0  0.19813774538E+02 -0.40198195847E+02  0.24117087984E+02  0.50902991500E+02  0.10000000000E+01 0.  0.
         -4    1    1    2    0  502  0.41790349498E+02  0.45854052447E+02 -0.25018389589E+03  0.25776466418E+03  0.12700000000E+01 0.  1.
<mgrwt>
<rscale>  1 0.13954327E+03</rscale>
<asrwt>0</asrwt>
<pdfrwt beam="2">  1       21 0.54508253E-01 0.13954327E+03</pdfrwt>
<pdfrwt beam="1">  1       -4 0.80475069E-02 0.13954327E+03</pdfrwt>
<totfact> 0.14313743E+04</totfact>
</mgrwt>
</event>
<event>
 6    3  0.3813045E-003  0.1523547E+03  0.7818608E-02  0.1197609E+00
         21   -1    0    0  501  502  0.00000000000E+00  0.00000000000E+00  0.28955811409E+03  0.28955811409E+03  0.00000000000E+00 0.  1.
         -4   -1    0    0    0  501 -0.00000000000E+00 -0.00000000000E+00 -0.10635070925E+03  0.10635829191E+03  0.12700000000E+01 0. -1.
         25    2    1    2    0    0 -0.43553795869E+02  0.75458072479E+02 -0.38973106196E+02  0.15726049005E+03  0.12498441858E+03 0.  0.
    9000005    1    3    3    0    0 -0.19848710864E+02  0.92661772518E+02  0.14898599294E+02  0.95933016580E+02  0.10000000000E+01 0.  0.
    9000005    1    3    3    0    0 -0.23705085005E+02 -0.17203700039E+02 -0.53871705490E+02  0.61327473473E+02  0.10000000000E+01 0.  0.
         -4    1    1    2    0  502  0.43553795869E+02 -0.75458072479E+02  0.22218051103E+03  0.23865591595E+03  0.12700000000E+01 0.  1.
<mgrwt>
<rscale>  1 0.15235471E+03</rscale>
<asrwt>0</asrwt>
<pdfrwt beam="1">  1       21 0.44547402E-01 0.15235471E+03</pdfrwt>
<pdfrwt beam="2">  1       -4 0.16362445E-01 0.15235471E+03</pdfrwt>
<totfact> 0.65003924E+03</totfact>
</mgrwt>
</event>
<event>
 6    3  0.3813045E-003  0.1617171E+03  0.7818608E-02  0.1186772E+00
         21   -1    0    0  501  502  0.00000000000E+00  0.00000000000E+00  0.65088837523E+03  0.65088837523E+03  0.00000000000E+00 0.  1.
         -4   -1    0    0    0  501 -0.00000000000E+00 -0.00000000000E+00 -0.28382703801E+02  0.28411103024E+02  0.12700000000E+01 0. -1.
         25    2    1    2    0    0 -0.54614698028E+01 -0.10245859518E+03  0.29929035327E+03  0.34018689198E+03  0.12499925813E+03 0.  0.
    9000005    1    3    3    0    0  0.41809863525E+02  0.42175972308E+01  0.11076672793E+03  0.11847413571E+03  0.10000000000E+01 0.  0.
    9000005    1    3    3    0    0 -0.47271333327E+02 -0.10667619241E+03  0.18852362534E+03  0.22171275627E+03  0.10000000000E+01 0.  0.
         -4    1    1    2    0  502  0.54614698028E+01  0.10245859518E+03  0.32321531815E+03  0.33911258627E+03  0.12700000000E+01 0.  1.
<mgrwt>
<rscale>  1 0.16171706E+03</rscale>
<asrwt>0</asrwt>
<pdfrwt beam="1">  1       21 0.10013666E+00 0.16171706E+03</pdfrwt>
<pdfrwt beam="2">  1       -4 0.43688502E-02 0.16171706E+03</pdfrwt>
<totfact> 0.10154906E+04</totfact>
</mgrwt>
</event>
<event>
 6    3  0.3813045E-003  0.1292945E+03  0.7818608E-02  0.1228506E+00
          4   -1    0    0  502    0 -0.00000000000E+00  0.00000000000E+00  0.67732600757E+02  0.67744506089E+02  0.12700000000E+01 0. -1.
         21   -1    0    0  501  502  0.00000000000E+00 -0.00000000000E+00 -0.12452247372E+03  0.12452247372E+03  0.00000000000E+00 0.  1.
         25    2    1    2    0    0 -0.29827289878E+02  0.14232311441E+02 -0.32496823142E+01  0.12933534369E+03  0.12499937912E+03 0.  0.
    9000005    1    3    3    0    0  0.25738242236E+02  0.41682083797E+01 -0.49749997172E+02  0.56177337896E+02  0.10000000000E+01 0.  0.
    9000005    1    3    3    0    0 -0.55565532113E+02  0.10064103062E+02  0.46500314857E+02  0.73158005791E+02  0.10000000000E+01 0.  0.
          4    1    1    2  501    0  0.29827289878E+02 -0.14232311441E+02 -0.53540190651E+02  0.62931636125E+02  0.12700000000E+01 0.  1.
<mgrwt>
<rscale>  1 0.12929451E+03</rscale>
<asrwt>0</asrwt>
<pdfrwt beam="2">  1       21 0.19157304E-01 0.12929451E+03</pdfrwt>
<pdfrwt beam="1">  1        4 0.10421814E-01 0.12929451E+03</pdfrwt>
<totfact> 0.71132436E+04</totfact>
</mgrwt>
</event>
<event>
 6    3  0.3813045E-003  0.1372766E+03  0.7818608E-02  0.1217041E+00
         21   -1    0    0  501  502  0.00000000000E+00  0.00000000000E+00  0.19389987172E+02  0.19389987172E+02  0.00000000000E+00 0.  1.
          4   -1    0    0  502    0 -0.00000000000E+00 -0.00000000000E+00 -0.94811048783E+03  0.94811133842E+03  0.12700000000E+01 0. -1.
         25    2    1    2    0    0  0.44813509254E+02 -0.34818170532E+02 -0.88570399732E+03  0.89627922179E+03  0.12499726766E+03 0.  0.
    9000005    1    3    3    0    0 -0.18702054482E+02  0.36946082249E+02 -0.27329866864E+03  0.27641986563E+03  0.10000000000E+01 0.  0.
    9000005    1    3    3    0    0  0.63515563736E+02 -0.71764252781E+02 -0.61240532868E+03  0.61985935616E+03  0.10000000000E+01 0.  0.
          4    1    1    2  501    0 -0.44813509254E+02  0.34818170532E+02 -0.43016503338E+02  0.71222103804E+02  0.12700000000E+01 0.  1.
<mgrwt>
<rscale>  1 0.13727663E+03</rscale>
<asrwt>0</asrwt>
<pdfrwt beam="1">  1       21 0.29830754E-02 0.13727663E+03</pdfrwt>
<pdfrwt beam="2">  1        4 0.14586640E+00 0.13727663E+03</pdfrwt>
<totfact> 0.89390483E+03</totfact>
</mgrwt>
</event>
<event>
 6    3  0.3813045E-003  0.1299116E+03  0.7818608E-02  0.1227587E+00
         21   -1    0    0  501  502  0.00000000000E+00  0.00000000000E+00  0.38736844132E+02  0.38736844132E+02  0.00000000000E+00 0. -1.
         -4   -1    0    0    0  501 -0.00000000000E+00 -0.00000000000E+00 -0.17686648117E+03  0.17687104076E+03  0.12700000000E+01 0.  1.
         25    2    1    2    0    0  0.28650873982E+01 -0.35254554942E+02 -0.10362080389E+03  0.16617545793E+03  0.12500367775E+03 0.  0.
    9000005    1    3    3    0    0 -0.42484287697E+02 -0.36448875028E+02 -0.10690804193E+03  0.12068042352E+03  0.10000000000E+01 0.  0.
    9000005    1    3    3    0    0  0.45349375096E+02  0.11943200867E+01  0.32872380466E+01  0.45495034410E+02  0.10000000000E+01 0.  0.
         -4    1    1    2    0  502 -0.28650873982E+01  0.35254554942E+02 -0.34508833149E+02  0.49432426961E+02  0.12700000000E+01 0. -1.
<mgrwt>
<rscale>  1 0.12991155E+03</rscale>
<asrwt>0</asrwt>
<pdfrwt beam="1">  1       21 0.59595146E-02 0.12991155E+03</pdfrwt>
<pdfrwt beam="2">  1       -4 0.27212179E-01 0.12991155E+03</pdfrwt>
<totfact> 0.10192408E+05</totfact>
</mgrwt>
</event>
<event>
 6    3  0.3813045E-003  0.1290081E+03  0.7818608E-02  0.1228935E+00
         -4   -1    0    0    0  501 -0.00000000000E+00  0.00000000000E+00  0.15711806619E+03  0.15712319887E+03  0.12700000000E+01 0. -1.
         21   -1    0    0  501  502  0.00000000000E+00 -0.00000000000E+00 -0.67997084958E+02  0.67997084958E+02  0.00000000000E+00 0. -1.
         25    2    1    2    0    0 -0.16692818993E+02 -0.27188396412E+02  0.12322487191E+03  0.17840254239E+03  0.12500095587E+03 0.  0.
    9000005    1    3    3    0    0 -0.31965079151E+02  0.43201715910E+02  0.33485676018E+02  0.63328074668E+02  0.10000000000E+01 0.  0.
    9000005    1    3    3    0    0  0.15272260158E+02 -0.70390112322E+02  0.89739195892E+02  0.11507446773E+03  0.10000000000E+01 0.  0.
         -4    1    1    2    0  502  0.16692818993E+02  0.27188396412E+02 -0.34103890678E+02  0.46717741435E+02  0.12700000000E+01 0.  1.
<mgrwt>
<rscale>  1 0.12900813E+03</rscale>
<asrwt>0</asrwt>
<pdfrwt beam="2">  1       21 0.10461090E-01 0.12900813E+03</pdfrwt>
<pdfrwt beam="1">  1       -4 0.24173317E-01 0.12900813E+03</pdfrwt>
<totfact> 0.48060762E+04</totfact>
</mgrwt>
</event>
<event>
 6    3  0.3813045E-003  0.1275989E+03  0.7818608E-02  0.1231063E+00
         21   -1    0    0  501  502  0.00000000000E+00  0.00000000000E+00  0.18304088553E+02  0.18304088553E+02  0.00000000000E+00 0.  1.
         -4   -1    0    0    0  501 -0.00000000000E+00 -0.00000000000E+00 -0.39224674452E+03  0.39224880049E+03  0.12700000000E+01 0. -1.
         25    2    1    2    0    0 -0.68136419583E+01  0.24751404943E+02 -0.35858467192E+03  0.38061063900E+03  0.12498973488E+03 0.  0.
    9000005    1    3    3    0    0 -0.30501527831E+02  0.63972003287E+02 -0.28691846726E+03  0.29554351162E+03  0.10000000000E+01 0.  0.
    9000005    1    3    3    0    0  0.23687885873E+02 -0.39220598343E+02 -0.71666204657E+02  0.85067127385E+02  0.10000000000E+01 0.  0.
         -4    1    1    2    0  502  0.68136419583E+01 -0.24751404943E+02 -0.15357984049E+02  0.29942250040E+02  0.12700000000E+01 0.  1.
<mgrwt>
<rscale>  1 0.12759895E+03</rscale>
<asrwt>0</asrwt>
<pdfrwt beam="1">  1       21 0.28160137E-02 0.12759895E+03</pdfrwt>
<pdfrwt beam="2">  1       -4 0.60349199E-01 0.12759895E+03</pdfrwt>
<totfact> 0.73480495E+04</totfact>
</mgrwt>
</event>
<event>
 6    3  0.3813045E-003  0.1427206E+03  0.7818608E-02  0.1209714E+00
         -4   -1    0    0    0  501 -0.00000000000E+00  0.00000000000E+00  0.50726942700E+02  0.50742838073E+02  0.12700000000E+01 0.  1.
         21   -1    0    0  501  502  0.00000000000E+00 -0.00000000000E+00 -0.27565619121E+03  0.27565619121E+03  0.00000000000E+00 0. -1.
         25    2    1    2    0    0 -0.45587308976E+02  0.51623567022E+02 -0.74603627096E+02  0.16104304734E+03  0.12500386597E+03 0.  0.
    9000005    1    3    3    0    0  0.20312316814E+02  0.55426838884E+02 -0.74459533084E+02  0.95026031960E+02  0.10000000000E+01 0.  0.
    9000005    1    3    3    0    0 -0.65899625790E+02 -0.38032718621E+01 -0.14409401177E+00  0.66017015377E+02  0.10000000000E+01 0.  0.
         -4    1    1    2    0  502  0.45587308976E+02 -0.51623567022E+02 -0.15032562142E+03  0.16535598195E+03  0.12700000000E+01 0. -1.
<mgrwt>
<rscale>  1 0.14272057E+03</rscale>
<asrwt>0</asrwt>
<pdfrwt beam="2">  1       21 0.42408645E-01 0.14272057E+03</pdfrwt>
<pdfrwt beam="1">  1       -4 0.78055927E-02 0.14272057E+03</pdfrwt>
<totfact> 0.25277829E+04</totfact>
</mgrwt>
</event>
<event>
 6    3  0.3813045E-003  0.1278711E+03  0.7818608E-02  0.1230649E+00
          4   -1    0    0  502    0 -0.00000000000E+00  0.00000000000E+00  0.60066770051E+01  0.61394681075E+01  0.12700000000E+01 0. -1.
         21   -1    0    0  501  502  0.00000000000E+00 -0.00000000000E+00 -0.10324149365E+04  0.10324149365E+04  0.00000000000E+00 0.  1.
         25    2    1    2    0    0  0.26917815281E+02 -0.12320648231E+01 -0.74891817003E+03  0.75975618113E+03  0.12499977040E+03 0.  0.
    9000005    1    3    3    0    0  0.55769666490E+02  0.91512113733E+01 -0.15397093428E+03  0.16401844096E+03  0.10000000000E+01 0.  0.
    9000005    1    3    3    0    0 -0.28851851210E+02 -0.10383276196E+02 -0.59494723575E+03  0.59573774017E+03  0.10000000000E+01 0.  0.
          4    1    1    2  501    0 -0.26917815281E+02  0.12320648231E+01 -0.27749008948E+03  0.27879822349E+03  0.12700000000E+01 0.  1.
<mgrwt>
<rscale>  1 0.12787114E+03</rscale>
<asrwt>0</asrwt>
<pdfrwt beam="2">  1       21 0.15883304E+00 0.12787114E+03</pdfrwt>
<pdfrwt beam="1">  1        4 0.93437911E-03 0.12787114E+03</pdfrwt>
<totfact> 0.34482146E+04</totfact>
</mgrwt>
</event>
<event>
 6    3  0.3813045E-003  0.1278520E+03  0.7818608E-02  0.1230678E+00
         21   -1    0    0  501  502  0.00000000000E+00  0.00000000000E+00  0.22940027318E+02  0.22940027318E+02  0.00000000000E+00 0.  1.
         -4   -1    0    0    0  501 -0.00000000000E+00 -0.00000000000E+00 -0.41569625523E+03  0.41569819522E+03  0.12700000000E+01 0.  1.
         25    2    1    2    0    0  0.25379082945E+02 -0.87351536754E+01 -0.16224506718E+03  0.20656623181E+03  0.12500298212E+03 0.  0.
    9000005    1    3    3    0    0  0.45562230652E+02 -0.59161914992E+01 -0.30367739273E+01  0.46055837629E+02  0.10000000000E+01 0.  0.
    9000005    1    3    3    0    0 -0.20183147707E+02 -0.28189621762E+01 -0.15920829325E+03  0.16051039418E+03  0.10000000000E+01 0.  0.
         -4    1    1    2    0  502 -0.25379082945E+02  0.87351536754E+01 -0.23051116073E+03  0.23207199073E+03  0.12700000000E+01 0. -1.
<mgrwt>
<rscale>  1 0.12785205E+03</rscale>
<asrwt>0</asrwt>
<pdfrwt beam="1">  1       21 0.35292351E-02 0.12785205E+03</pdfrwt>
<pdfrwt beam="2">  1       -4 0.63956121E-01 0.12785205E+03</pdfrwt>
<totfact> 0.44873633E+04</totfact>
</mgrwt>
</event>
<event>
 6    3  0.3813045E-003  0.1270126E+03  0.7818608E-02  0.1231957E+00
          4   -1    0    0  502    0 -0.00000000000E+00  0.00000000000E+00  0.83201259480E+02  0.83210951677E+02  0.12700000000E+01 0. -1.
         21   -1    0    0  501  502  0.00000000000E+00 -0.00000000000E+00 -0.70743685546E+02  0.70743685546E+02  0.00000000000E+00 0. -1.
         25    2    1    2    0    0 -0.15084010063E+02 -0.16740403620E+02 -0.22205407185E+01  0.12703199949E+03  0.12499771846E+03 0.  0.
    9000005    1    3    3    0    0  0.87228945350E+01 -0.58217046836E+02 -0.35509369014E+02  0.68754845059E+02  0.10000000000E+01 0.  0.
    9000005    1    3    3    0    0 -0.23806904598E+02  0.41476643216E+02  0.33288828296E+02  0.58277154428E+02  0.10000000000E+01 0.  0.
          4    1    1    2  501    0  0.15084010063E+02  0.16740403620E+02  0.14678114652E+02  0.26922637736E+02  0.12700000000E+01 0.  1.
<mgrwt>
<rscale>  1 0.12701259E+03</rscale>
<asrwt>0</asrwt>
<pdfrwt beam="2">  1       21 0.10883644E-01 0.12701259E+03</pdfrwt>
<pdfrwt beam="1">  1        4 0.12801816E-01 0.12701259E+03</pdfrwt>
<totfact> 0.13814256E+05</totfact>
</mgrwt>
</event>
<event>
 6    3  0.3813045E-003  0.1301125E+03  0.7818608E-02  0.1227289E+00
         -4   -1    0    0    0  501 -0.00000000000E+00  0.00000000000E+00  0.82288033393E+01  0.83262299029E+01  0.12700000000E+01 0.  1.
         21   -1    0    0  501  502  0.00000000000E+00 -0.00000000000E+00 -0.13802136388E+04  0.13802136388E+04  0.00000000000E+00 0.  1.
         25    2    1    2    0    0 -0.35747794141E+02 -0.51495718553E+01 -0.52848309575E+03  0.54426430902E+03  0.12499933083E+03 0.  0.
    9000005    1    3    3    0    0  0.22456401328E+02 -0.14318229930E+02 -0.22551920556E+02  0.34912616483E+02  0.10000000000E+01 0.  0.
    9000005    1    3    3    0    0 -0.58204195469E+02  0.91686580746E+01 -0.50593117519E+03  0.50935169254E+03  0.10000000000E+01 0.  0.
         -4    1    1    2    0  502  0.35747794141E+02  0.51495718553E+01 -0.84350173968E+03  0.84427555965E+03  0.12700000000E+01 0.  1.
<mgrwt>
<rscale>  1 0.13011247E+03</rscale>
<asrwt>0</asrwt>
<pdfrwt beam="2">  1       21 0.21234023E+00 0.13011247E+03</pdfrwt>
<pdfrwt beam="1">  1       -4 0.12735110E-02 0.13011247E+03</pdfrwt>
<totfact> 0.96068878E+03</totfact>
</mgrwt>
</event>
<event>
 6    3  0.3813045E-003  0.1267190E+03  0.7818608E-02  0.1232407E+00
         21   -1    0    0  501  502  0.00000000000E+00  0.00000000000E+00  0.11496450320E+02  0.11496450320E+02  0.00000000000E+00 0. -1.
         -4   -1    0    0    0  501 -0.00000000000E+00 -0.00000000000E+00 -0.75931239238E+03  0.75931345446E+03  0.12700000000E+01 0. -1.
         25    2    1    2    0    0 -0.15806443791E+01  0.20730007736E+02 -0.73606843874E+03  0.74689655303E+03  0.12500193106E+03 0.  0.
    9000005    1    3    3    0    0 -0.47479000296E+02  0.41089103365E+02 -0.56867459461E+03  0.57213142235E+03  0.10000000000E+01 0.  0.
    9000005    1    3    3    0    0  0.45898355917E+02 -0.20359095628E+02 -0.16739384412E+03  0.17476513068E+03  0.10000000000E+01 0.  0.
         -4    1    1    2    0  502  0.15806443791E+01 -0.20730007736E+02 -0.11747503320E+02  0.23913351745E+02  0.12700000000E+01 0.  1.
<mgrwt>
<rscale>  1 0.12671904E+03</rscale>
<asrwt>0</asrwt>
<pdfrwt beam="1">  1       21 0.17686843E-02 0.12671904E+03</pdfrwt>
<pdfrwt beam="2">  1       -4 0.11682279E+00 0.12671904E+03</pdfrwt>
<totfact> 0.35696438E+04</totfact>
</mgrwt>
</event>
<event>
 6    3  0.3813045E-003  0.1308801E+03  0.7818608E-02  0.1226156E+00
         -4   -1    0    0    0  501 -0.00000000000E+00  0.00000000000E+00  0.69708003043E+02  0.69719571056E+02  0.12700000000E+01 0.  1.
         21   -1    0    0  501  502  0.00000000000E+00 -0.00000000000E+00 -0.10543861209E+03  0.10543861209E+03  0.00000000000E+00 0. -1.
         25    2    1    2    0    0 -0.38743224424E+02  0.19399786293E+01 -0.16732294741E+02  0.13194534012E+03  0.12499920854E+03 0.  0.
    9000005    1    3    3    0    0  0.18029482807E+02  0.27465447412E+02  0.37154933040E+02  0.49607480293E+02  0.10000000000E+01 0.  0.
    9000005    1    3    3    0    0 -0.56772707231E+02 -0.25525468783E+02 -0.53887227780E+02  0.82337859826E+02  0.10000000000E+01 0.  0.
         -4    1    1    2    0  502  0.38743224424E+02 -0.19399786293E+01 -0.18998314302E+02  0.43212843023E+02  0.12700000000E+01 0. -1.
<mgrwt>
<rscale>  1 0.13088011E+03</rscale>
<asrwt>0</asrwt>
<pdfrwt beam="2">  1       21 0.16221325E-01 0.13088011E+03</pdfrwt>
<pdfrwt beam="1">  1       -4 0.10725786E-01 0.13088011E+03</pdfrwt>
<totfact> 0.91983811E+04</totfact>
</mgrwt>
</event>
<event>
 6    3  0.3813045E-003  0.1276103E+03  0.7818608E-02  0.1231045E+00
         21   -1    0    0  501  502  0.00000000000E+00  0.00000000000E+00  0.11212781818E+04  0.11212781818E+04  0.00000000000E+00 0.  1.
         -4   -1    0    0    0  501 -0.00000000000E+00 -0.00000000000E+00 -0.57028254472E+01  0.58425266863E+01  0.12700000000E+01 0.  1.
         25    2    1    2    0    0 -0.83408929577E+01  0.24280450036E+02  0.76192489613E+03  0.77253733089E+03  0.12500107812E+03 0.  0.
    9000005    1    3    3    0    0  0.41537283572E+02  0.41240482203E+02  0.20707451650E+03  0.21519056364E+03  0.10000000000E+01 0.  0.
    9000005    1    3    3    0    0 -0.49878176529E+02 -0.16960032167E+02  0.55485037963E+03  0.55734676725E+03  0.10000000000E+01 0.  0.
         -4    1    1    2    0  502  0.83408929577E+01 -0.24280450036E+02  0.35365046022E+03  0.35458337759E+03  0.12700000000E+01 0. -1.
<mgrwt>
<rscale>  1 0.12761027E+03</rscale>
<asrwt>0</asrwt>
<pdfrwt beam="1">  1       21 0.17250416E+00 0.12761027E+03</pdfrwt>
<pdfrwt beam="2">  1       -4 0.88816023E-03 0.12761027E+03</pdfrwt>
<totfact> 0.29822753E+04</totfact>
</mgrwt>
</event>
<event>
 6    3  0.3813045E-003  0.1276609E+03  0.7818608E-02  0.1230968E+00
         21   -1    0    0  501  502  0.00000000000E+00  0.00000000000E+00  0.16159346957E+03  0.16159346957E+03  0.00000000000E+00 0. -1.
         -4   -1    0    0    0  501 -0.00000000000E+00 -0.00000000000E+00 -0.36685096434E+02  0.36707072893E+02  0.12700000000E+01 0. -1.
         25    2    1    2    0    0 -0.55452034749E+01  0.25335108640E+02  0.10887908010E+03  0.16778549459E+03  0.12499880439E+03 0.  0.
    9000005    1    3    3    0    0  0.42435090112E+02  0.51086962056E+02  0.86120439892E+02  0.10875819386E+03  0.10000000000E+01 0.  0.
    9000005    1    3    3    0    0 -0.47980293587E+02 -0.25751853416E+02  0.22758640208E+02  0.59027300728E+02  0.10000000000E+01 0.  0.
         -4    1    1    2    0  502  0.55452034749E+01 -0.25335108640E+02  0.16029293035E+02  0.30515047872E+02  0.12700000000E+01 0.  1.
<mgrwt>
<rscale>  1 0.12766095E+03</rscale>
<asrwt>0</asrwt>
<pdfrwt beam="1">  1       21 0.24860533E-01 0.12766095E+03</pdfrwt>
<pdfrwt beam="2">  1       -4 0.56459355E-02 0.12766095E+03</pdfrwt>
<totfact> 0.12017194E+05</totfact>
</mgrwt>
</event>
<event>
 6    3  0.3813045E-003  0.1311993E+03  0.7818608E-02  0.1225687E+00
         -4   -1    0    0    0  501 -0.00000000000E+00  0.00000000000E+00  0.10629473752E+03  0.10630232418E+03  0.12700000000E+01 0.  1.
         21   -1    0    0  501  502  0.00000000000E+00 -0.00000000000E+00 -0.17559492741E+03  0.17559492741E+03  0.00000000000E+00 0. -1.
         25    2    1    2    0    0 -0.36277346448E+02  0.16553948848E+02  0.61680678099E+02  0.14497508477E+03  0.12499276005E+03 0.  0.
    9000005    1    3    3    0    0 -0.36202723595E+02  0.57893813339E+02 -0.28315897391E+01  0.68347265630E+02  0.10000000000E+01 0.  0.
    9000005    1    3    3    0    0 -0.74622853697E-01 -0.41339864491E+02  0.64512267838E+02  0.76627819141E+02  0.10000000000E+01 0.  0.
         -4    1    1    2    0  502  0.36277346448E+02 -0.16553948848E+02 -0.13098086799E+03  0.13692216682E+03  0.12700000000E+01 0. -1.
<mgrwt>
<rscale>  1 0.13119935E+03</rscale>
<asrwt>0</asrwt>
<pdfrwt beam="2">  1       21 0.27014604E-01 0.13119935E+03</pdfrwt>
<pdfrwt beam="1">  1       -4 0.16353974E-01 0.13119935E+03</pdfrwt>
<totfact> 0.17224207E+04</totfact>
</mgrwt>
</event>
<event>
 6    3  0.3813045E-003  0.1280723E+03  0.7818608E-02  0.1230344E+00
          4   -1    0    0  502    0 -0.00000000000E+00  0.00000000000E+00  0.16075435388E+02  0.16125523957E+02  0.12700000000E+01 0. -1.
         21   -1    0    0  501  502  0.00000000000E+00 -0.00000000000E+00 -0.59457982336E+03  0.59457982336E+03  0.00000000000E+00 0. -1.
         25    2    1    2    0    0 -0.15443350295E+02 -0.23214223333E+02 -0.24886297194E+03  0.27988443912E+03  0.12500049291E+03 0.  0.
    9000005    1    3    3    0    0  0.32327262892E+02 -0.28169159525E+02 -0.21935331483E+03  0.22350711443E+03  0.10000000000E+01 0.  0.
    9000005    1    3    3    0    0 -0.47770613186E+02  0.49549361924E+01 -0.29509657110E+02  0.56377324694E+02  0.10000000000E+01 0.  0.
          4    1    1    2  501    0  0.15443350295E+02  0.23214223333E+02 -0.32964141603E+03  0.33082090819E+03  0.12700000000E+01 0.  1.
<mgrwt>
<rscale>  1 0.12807233E+03</rscale>
<asrwt>0</asrwt>
<pdfrwt beam="2">  1       21 0.91473815E-01 0.12807233E+03</pdfrwt>
<pdfrwt beam="1">  1        4 0.24771013E-02 0.12807233E+03</pdfrwt>
<totfact> 0.30139587E+04</totfact>
</mgrwt>
</event>
<event>
 6    3  0.3813045E-003  0.1342721E+03  0.7818608E-02  0.1221251E+00
         21   -1    0    0  501  502  0.00000000000E+00  0.00000000000E+00  0.11899787626E+03  0.11899787626E+03  0.00000000000E+00 0.  1.
         -4   -1    0    0    0  501 -0.00000000000E+00 -0.00000000000E+00 -0.83134862697E+02  0.83144562634E+02  0.12700000000E+01 0. -1.
         25    2    1    2    0    0  0.38539691762E+02 -0.30293129428E+02 -0.10468865679E+02  0.13467957900E+03  0.12500404121E+03 0.  0.
    9000005    1    3    3    0    0  0.94001518252E+01 -0.56578413631E+02 -0.52077068090E+02  0.77475807606E+02  0.10000000000E+01 0.  0.
    9000005    1    3    3    0    0  0.29139539937E+02  0.26285284202E+02  0.41608202411E+02  0.57203771390E+02  0.10000000000E+01 0.  0.
         -4    1    1    2    0  502 -0.38539691762E+02  0.30293129428E+02  0.46331879241E+02  0.67462859899E+02  0.12700000000E+01 0.  1.
<mgrwt>
<rscale>  1 0.13427208E+03</rscale>
<asrwt>0</asrwt>
<pdfrwt beam="1">  1       21 0.18307366E-01 0.13427208E+03</pdfrwt>
<pdfrwt beam="2">  1       -4 0.12791246E-01 0.13427208E+03</pdfrwt>
<totfact> 0.54796219E+04</totfact>
</mgrwt>
</event>
<event>
 6    3  0.3813045E-003  0.1271336E+03  0.7818608E-02  0.1231772E+00
         21   -1    0    0  501  502  0.00000000000E+00  0.00000000000E+00  0.53531980439E+02  0.53531980439E+02  0.00000000000E+00 0.  1.
         -4   -1    0    0    0  501 -0.00000000000E+00 -0.00000000000E+00 -0.32281865607E+03  0.32282115421E+03  0.12700000000E+01 0. -1.
         25    2    1    2    0    0  0.14485871019E+02  0.18088288197E+02 -0.30688042685E+03  0.33217248663E+03  0.12500375138E+03 0.  0.
    9000005    1    3    3    0    0  0.38494909052E+02  0.63933508565E+02 -0.16331226091E+03  0.17955847544E+03  0.10000000000E+01 0.  0.
    9000005    1    3    3    0    0 -0.24009038032E+02 -0.45845220368E+02 -0.14356816594E+03  0.15261401119E+03  0.10000000000E+01 0.  0.
         -4    1    1    2    0  502 -0.14485871019E+02 -0.18088288197E+02  0.37593751220E+02  0.44180648024E+02  0.12700000000E+01 0.  1.
<mgrwt>
<rscale>  1 0.12713365E+03</rscale>
<asrwt>0</asrwt>
<pdfrwt beam="1">  1       21 0.82356895E-02 0.12713365E+03</pdfrwt>
<pdfrwt beam="2">  1       -4 0.49665758E-01 0.12713365E+03</pdfrwt>
<totfact> 0.18150038E+04</totfact>
</mgrwt>
</event>
<event>
 6    3  0.3813045E-003  0.1268308E+03  0.7818608E-02  0.1232235E+00
          4   -1    0    0  502    0 -0.00000000000E+00  0.00000000000E+00  0.20650869836E+03  0.20651260348E+03  0.12700000000E+01 0. -1.
         21   -1    0    0  501  502  0.00000000000E+00 -0.00000000000E+00 -0.28129460795E+02  0.28129460795E+02  0.00000000000E+00 0. -1.
         25    2    1    2    0    0  0.20355129542E+01 -0.21376299877E+02  0.16868843092E+03  0.21104939290E+03  0.12499988003E+03 0.  0.
    9000005    1    3    3    0    0  0.47004051279E+02  0.85267436722E+01  0.18146996063E+02  0.51111639188E+02  0.10000000000E+01 0.  0.
    9000005    1    3    3    0    0 -0.44968538325E+02 -0.29903043549E+02  0.15054143486E+03  0.15993775371E+03  0.10000000000E+01 0.  0.
          4    1    1    2  501    0 -0.20355129542E+01  0.21376299877E+02  0.96908066392E+01  0.23592671378E+02  0.12700000000E+01 0.  1.
<mgrwt>
<rscale>  1 0.12683083E+03</rscale>
<asrwt>0</asrwt>
<pdfrwt beam="2">  1       21 0.43276095E-02 0.12683083E+03</pdfrwt>
<pdfrwt beam="1">  1        4 0.31773074E-01 0.12683083E+03</pdfrwt>
<totfact> 0.12988743E+05</totfact>
</mgrwt>
</event>
<event>
 6    3  0.3813045E-003  0.1285525E+03  0.7818608E-02  0.1229619E+00
         -4   -1    0    0    0  501 -0.00000000000E+00  0.00000000000E+00  0.54863312791E+03  0.54863459784E+03  0.12700000000E+01 0. -1.
         21   -1    0    0  501  502  0.00000000000E+00 -0.00000000000E+00 -0.11484494470E+02  0.11484494470E+02  0.00000000000E+00 0. -1.
         25    2    1    2    0    0  0.26521479896E+02 -0.14051677139E+02  0.42499009658E+03  0.44400712558E+03  0.12499962739E+03 0.  0.
    9000005    1    3    3    0    0  0.31518528160E+02 -0.63235404687E+02  0.16721489327E+03  0.18153224109E+03  0.10000000000E+01 0.  0.
    9000005    1    3    3    0    0 -0.49970482638E+01  0.49183727549E+02  0.25777520331E+03  0.26247488449E+03  0.10000000000E+01 0.  0.
         -4    1    1    2    0  502 -0.26521479896E+02  0.14051677139E+02  0.11215853687E+03  0.11611196673E+03  0.12700000000E+01 0.  1.
<mgrwt>
<rscale>  1 0.12855250E+03</rscale>
<asrwt>0</asrwt>
<pdfrwt beam="2">  1       21 0.17668457E-02 0.12855250E+03</pdfrwt>
<pdfrwt beam="1">  1       -4 0.84410591E-01 0.12855250E+03</pdfrwt>
<totfact> 0.75753352E+04</totfact>
</mgrwt>
</event>
<event>
 6    3  0.3813045E-003  0.1274536E+03  0.7818608E-02  0.1231284E+00
         -4   -1    0    0    0  501 -0.00000000000E+00  0.00000000000E+00  0.11404150501E+04  0.11404157573E+04  0.12700000000E+01 0.  1.
         21   -1    0    0  501  502  0.00000000000E+00 -0.00000000000E+00 -0.53399465667E+01  0.53399465667E+01  0.00000000000E+00 0.  1.
         25    2    1    2    0    0 -0.22872382737E+02  0.98044314035E+01  0.10251075967E+04  0.10330004901E+04  0.12500061969E+03 0.  0.
    9000005    1    3    3    0    0 -0.66653687897E+02 -0.43696453430E+00  0.83452025460E+03  0.83717857138E+03  0.10000000000E+01 0.  0.
    9000005    1    3    3    0    0  0.43781305160E+02  0.10241395938E+02  0.19058734215E+03  0.19582191875E+03  0.10000000000E+01 0.  0.
         -4    1    1    2    0  502  0.22872382737E+02 -0.98044314035E+01  0.10996750682E+03  0.11275521373E+03  0.12700000000E+01 0. -1.
<mgrwt>
<rscale>  1 0.12745363E+03</rscale>
<asrwt>0</asrwt>
<pdfrwt beam="2">  1       21 0.82153115E-03 0.12745363E+03</pdfrwt>
<pdfrwt beam="1">  1       -4 0.17545995E+00 0.12745363E+03</pdfrwt>
<totfact> 0.43257521E+04</totfact>
</mgrwt>
</event>
<event>
 6    3  0.3813045E-003  0.1391782E+03  0.7818608E-02  0.1214439E+00
          4   -1    0    0  502    0 -0.00000000000E+00  0.00000000000E+00  0.17486705452E+03  0.17487166624E+03  0.12700000000E+01 0. -1.
         21   -1    0    0  501  502  0.00000000000E+00 -0.00000000000E+00 -0.89989225751E+02  0.89989225751E+02  0.00000000000E+00 0.  1.
         25    2    1    2    0    0  0.46686988936E+02  0.39657418342E+02  0.12867543551E+03  0.18954669000E+03  0.12497277392E+03 0.  0.
    9000005    1    3    3    0    0  0.25196991693E+01 -0.63545368228E+01 -0.23525798919E+02  0.24519221784E+02  0.10000000000E+01 0.  0.
    9000005    1    3    3    0    0  0.44167289766E+02  0.46011955164E+02  0.15220123443E+03  0.16502746822E+03  0.10000000000E+01 0.  0.
          4    1    1    2  501    0 -0.46686988936E+02 -0.39657418342E+02 -0.43797606747E+02  0.75314201995E+02  0.12700000000E+01 0.  1.
<mgrwt>
<rscale>  1 0.13917823E+03</rscale>
<asrwt>0</asrwt>
<pdfrwt beam="2">  1       21 0.13844496E-01 0.13917823E+03</pdfrwt>
<pdfrwt beam="1">  1        4 0.26903668E-01 0.13917823E+03</pdfrwt>
<totfact> 0.24189133E+04</totfact>
</mgrwt>
</event>
<event>
 6    3  0.3813045E-003  0.1270143E+03  0.7818608E-02  0.1231954E+00
          4   -1    0    0  502    0 -0.00000000000E+00  0.00000000000E+00  0.54049598659E+02  0.54064517155E+02  0.12700000000E+01 0. -1.
         21   -1    0    0  501  502  0.00000000000E+00 -0.00000000000E+00 -0.12341815803E+03  0.12341815803E+03  0.00000000000E+00 0. -1.
         25    2    1    2    0    0  0.12644166669E+02 -0.18628315550E+02 -0.27544157497E+02  0.12996654547E+03  0.12500293292E+03 0.  0.
    9000005    1    3    3    0    0  0.55155213237E+02  0.11119655872E+02  0.19863867879E+02  0.59676775559E+02  0.10000000000E+01 0.  0.
    9000005    1    3    3    0    0 -0.42511046569E+02 -0.29747971422E+02 -0.47408025376E+02  0.70289769911E+02  0.10000000000E+01 0.  0.
          4    1    1    2  501    0 -0.12644166669E+02  0.18628315550E+02 -0.41824401878E+02  0.47516129719E+02  0.12700000000E+01 0.  1.
<mgrwt>
<rscale>  1 0.12701426E+03</rscale>
<asrwt>0</asrwt>
<pdfrwt beam="2">  1       21 0.18987409E-01 0.12701426E+03</pdfrwt>
<pdfrwt beam="1">  1        4 0.83169732E-02 0.12701426E+03</pdfrwt>
<totfact> 0.10522664E+05</totfact>
</mgrwt>
</event>
<event>
 6    3  0.3813045E-003  0.1279684E+03  0.7818608E-02  0.1230502E+00
          4   -1    0    0  502    0 -0.00000000000E+00  0.00000000000E+00  0.43505258683E+02  0.43523791575E+02  0.12700000000E+01 0.  1.
         21   -1    0    0  501  502  0.00000000000E+00 -0.00000000000E+00 -0.20741328376E+03  0.20741328376E+03  0.00000000000E+00 0. -1.
         25    2    1    2    0    0  0.24966330163E+02 -0.11264437866E+02 -0.56149953697E+02  0.13974525887E+03  0.12500285946E+03 0.  0.
    9000005    1    3    3    0    0 -0.46730883191E+02  0.82450855666E+01 -0.43467694540E+02  0.64359904820E+02  0.10000000000E+01 0.  0.
    9000005    1    3    3    0    0  0.71697213354E+02 -0.19509523433E+02 -0.12682259157E+02  0.75385354046E+02  0.10000000000E+01 0.  0.
          4    1    1    2  501    0 -0.24966330163E+02  0.11264437866E+02 -0.10775807138E+03  0.11119181647E+03  0.12700000000E+01 0. -1.
<mgrwt>
<rscale>  1 0.12796843E+03</rscale>
<asrwt>0</asrwt>
<pdfrwt beam="2">  1       21 0.31909735E-01 0.12796843E+03</pdfrwt>
<pdfrwt beam="1">  1        4 0.66948415E-02 0.12796843E+03</pdfrwt>
<totfact> 0.56500484E+04</totfact>
</mgrwt>
</event>
<event>
 6    3  0.3813045E-003  0.1272005E+03  0.7818608E-02  0.1231670E+00
         -4   -1    0    0    0  501 -0.00000000000E+00  0.00000000000E+00  0.47780462269E+02  0.47797337527E+02  0.12700000000E+01 0.  1.
         21   -1    0    0  501  502  0.00000000000E+00 -0.00000000000E+00 -0.22907890540E+03  0.22907890540E+03  0.00000000000E+00 0.  1.
         25    2    1    2    0    0 -0.19227683919E+02  0.13590751360E+02 -0.39589662235E+02  0.13321899865E+03  0.12500219155E+03 0.  0.
    9000005    1    3    3    0    0 -0.98311101759E+01  0.60966117058E+01  0.45663685204E+02  0.47116786265E+02  0.10000000000E+01 0.  0.
    9000005    1    3    3    0    0 -0.93965737435E+01  0.74941396544E+01 -0.85253347439E+02  0.86102212381E+02  0.10000000000E+01 0.  0.
         -4    1    1    2    0  502  0.19227683919E+02 -0.13590751360E+02 -0.14170878090E+03  0.14365724428E+03  0.12700000000E+01 0. -1.
<mgrwt>
<rscale>  1 0.12720047E+03</rscale>
<asrwt>0</asrwt>
<pdfrwt beam="2">  1       21 0.35242908E-01 0.12720047E+03</pdfrwt>
<pdfrwt beam="1">  1       -4 0.73524093E-02 0.12720047E+03</pdfrwt>
<totfact> 0.39878078E+04</totfact>
</mgrwt>
</event>
<event>
 6    3  0.3813045E-003  0.1851319E+03  0.7818608E-02  0.1162927E+00
         21   -1    0    0  501  502  0.00000000000E+00  0.00000000000E+00  0.28549773451E+02  0.28549773451E+02  0.00000000000E+00 0.  1.
         -4   -1    0    0    0  501 -0.00000000000E+00 -0.00000000000E+00 -0.92127227299E+03  0.92127314835E+03  0.12700000000E+01 0. -1.
         25    2    1    2    0    0  0.13590521329E+03 -0.13397401626E+02 -0.57264496561E+03  0.60182729253E+03  0.12499646406E+03 0.  0.
    9000005    1    3    3    0    0 -0.23894792713E+01  0.37536455788E+02 -0.10772652273E+03  0.11410827676E+03  0.10000000000E+01 0.  0.
    9000005    1    3    3    0    0  0.13829469256E+03 -0.50933857415E+02 -0.46491844287E+03  0.48771901577E+03  0.10000000000E+01 0.  0.
         -4    1    1    2    0  502 -0.13590521329E+03  0.13397401626E+02 -0.32007753393E+03  0.34799562928E+03  0.12700000000E+01 0.  1.
<mgrwt>
<rscale>  1 0.18513194E+03</rscale>
<asrwt>0</asrwt>
<pdfrwt beam="1">  1       21 0.43922733E-02 0.18513194E+03</pdfrwt>
<pdfrwt beam="2">  1       -4 0.14173642E+00 0.18513194E+03</pdfrwt>
<totfact> 0.51573599E+03</totfact>
</mgrwt>
</event>
<event>
 6    3  0.3813045E-003  0.1266679E+03  0.7818608E-02  0.1232485E+00
         21   -1    0    0  501  502  0.00000000000E+00  0.00000000000E+00  0.46704916301E+02  0.46704916301E+02  0.00000000000E+00 0. -1.
          4   -1    0    0  502    0 -0.00000000000E+00 -0.00000000000E+00 -0.39817464834E+03  0.39817667370E+03  0.12700000000E+01 0.  1.
         25    2    1    2    0    0  0.17953594463E+02 -0.98946621831E+01 -0.38514347622E+03  0.40543834164E+03  0.12499806282E+03 0.  0.
    9000005    1    3    3    0    0  0.14571497956E+02  0.14141962007E+02 -0.38007866694E+03  0.38062201290E+03  0.10000000000E+01 0.  0.
    9000005    1    3    3    0    0  0.33820965077E+01 -0.24036624190E+02 -0.50648092765E+01  0.24816328743E+02  0.10000000000E+01 0.  0.
          4    1    1    2  501    0 -0.17953594463E+02  0.98946621831E+01  0.33673744180E+02  0.39443248357E+02  0.12700000000E+01 0. -1.
<mgrwt>
<rscale>  1 0.12666788E+03</rscale>
<asrwt>0</asrwt>
<pdfrwt beam="1">  1       21 0.71853717E-02 0.12666788E+03</pdfrwt>
<pdfrwt beam="2">  1        4 0.61259122E-01 0.12666788E+03</pdfrwt>
<totfact> 0.14866436E+04</totfact>
</mgrwt>
</event>
<event>
 6    3  0.3813045E-003  0.1431157E+03  0.7818608E-02  0.1209197E+00
         21   -1    0    0  501  502  0.00000000000E+00  0.00000000000E+00  0.21774409602E+02  0.21774409602E+02  0.00000000000E+00 0. -1.
          4   -1    0    0  502    0 -0.00000000000E+00 -0.00000000000E+00 -0.11446875601E+04  0.11446882646E+04  0.12700000000E+01 0.  1.
         25    2    1    2    0    0 -0.51933434406E+02 -0.46469415788E+02 -0.10684900713E+04  0.10780320649E+04  0.12500244925E+03 0.  0.
    9000005    1    3    3    0    0 -0.16350467816E+02 -0.55002052008E+02 -0.98735717413E+03  0.98902363613E+03  0.10000000000E+01 0.  0.
    9000005    1    3    3    0    0 -0.35582966590E+02  0.85326362197E+01 -0.81132897175E+02  0.89008428793E+02  0.10000000000E+01 0.  0.
          4    1    1    2  501    0  0.51933434406E+02  0.46469415788E+02 -0.54423079224E+02  0.88430609323E+02  0.12700000000E+01 0. -1.
<mgrwt>
<rscale>  1 0.14311569E+03</rscale>
<asrwt>0</asrwt>
<pdfrwt beam="1">  1       21 0.33499088E-02 0.14311569E+03</pdfrwt>
<pdfrwt beam="2">  1        4 0.17610870E+00 0.14311569E+03</pdfrwt>
<totfact> 0.45301034E+03</totfact>
</mgrwt>
</event>
<event>
 6    3  0.3813045E-003  0.1282951E+03  0.7818608E-02  0.1230008E+00
          4   -1    0    0  502    0 -0.00000000000E+00  0.00000000000E+00  0.26492932905E+03  0.26493237305E+03  0.12700000000E+01 0. -1.
         21   -1    0    0  501  502  0.00000000000E+00 -0.00000000000E+00 -0.90840425676E+02  0.90840425676E+02  0.00000000000E+00 0.  1.
         25    2    1    2    0    0 -0.28471519450E+02  0.49256360695E+01  0.24645098434E+03  0.27784480009E+03  0.12499902377E+03 0.  0.
    9000005    1    3    3    0    0 -0.55148926073E+02 -0.45196214706E+02  0.12950217902E+03  0.14783746563E+03  0.10000000000E+01 0.  0.
    9000005    1    3    3    0    0  0.26677406623E+02  0.50121850775E+02  0.11694880531E+03  0.13000733446E+03  0.10000000000E+01 0.  0.
          4    1    1    2  501    0  0.28471519450E+02 -0.49256360695E+01 -0.72362080965E+02  0.77927998640E+02  0.12700000000E+01 0.  1.
<mgrwt>
<rscale>  1 0.12829515E+03</rscale>
<asrwt>0</asrwt>
<pdfrwt beam="2">  1       21 0.13975450E-01 0.12829515E+03</pdfrwt>
<pdfrwt beam="1">  1        4 0.40759275E-01 0.12829515E+03</pdfrwt>
<totfact> 0.10648321E+04</totfact>
</mgrwt>
</event>
<event>
 6    3  0.3813045E-003  0.1278202E+03  0.7818608E-02  0.1230726E+00
         21   -1    0    0  501  502  0.00000000000E+00  0.00000000000E+00  0.58073209214E+01  0.58073209214E+01  0.00000000000E+00 0. -1.
         -4   -1    0    0    0  501 -0.00000000000E+00 -0.00000000000E+00 -0.15420380475E+04  0.15420385705E+04  0.12700000000E+01 0.  1.
         25    2    1    2    0    0  0.25727564600E+02 -0.76268862804E+01 -0.14801924149E+04  0.14857010424E+04  0.12497169862E+03 0.  0.
    9000005    1    3    3    0    0  0.11180787967E+02 -0.44684532238E+02 -0.13138707652E+04  0.13146783276E+04  0.10000000000E+01 0.  0.
    9000005    1    3    3    0    0  0.14546776633E+02  0.37057645957E+02 -0.16632164967E+03  0.17102271482E+03  0.10000000000E+01 0.  0.
         -4    1    1    2    0  502 -0.25727564600E+02  0.76268862804E+01 -0.56038311714E+02  0.62144848977E+02  0.12700000000E+01 0. -1.
<mgrwt>
<rscale>  1 0.12782020E+03</rscale>
<asrwt>0</asrwt>
<pdfrwt beam="1">  1       21 0.89343247E-03 0.12782020E+03</pdfrwt>
<pdfrwt beam="2">  1       -4 0.23724775E+00 0.12782020E+03</pdfrwt>
<totfact> 0.15819350E+04</totfact>
</mgrwt>
</event>
<event>
 6    3  0.3813045E-003  0.1315246E+03  0.7818608E-02  0.1225211E+00
         -4   -1    0    0    0  501 -0.00000000000E+00  0.00000000000E+00  0.89487607627E+02  0.89496619036E+02  0.12700000000E+01 0. -1.
         21   -1    0    0  501  502  0.00000000000E+00 -0.00000000000E+00 -0.87529025986E+02  0.87529025986E+02  0.00000000000E+00 0. -1.
         25    2    1    2    0    0 -0.39574436225E+02  0.10383748925E+02  0.18610052463E+02  0.13283466602E+03  0.12499902480E+03 0.  0.
    9000005    1    3    3    0    0  0.55106050700E+01 -0.76267189379E+01 -0.48825976167E+02  0.49734390101E+02  0.10000000000E+01 0.  0.
    9000005    1    3    3    0    0 -0.45085041295E+02  0.18010467863E+02  0.67436028630E+02  0.83100275924E+02  0.10000000000E+01 0.  0.
         -4    1    1    2    0  502  0.39574436225E+02 -0.10383748925E+02 -0.16651470821E+02  0.44190978997E+02  0.12700000000E+01 0.  1.
<mgrwt>
<rscale>  1 0.13152458E+03</rscale>
<asrwt>0</asrwt>
<pdfrwt beam="2">  1       21 0.13466004E-01 0.13152458E+03</pdfrwt>
<pdfrwt beam="1">  1       -4 0.13768726E-01 0.13152458E+03</pdfrwt>
<totfact> 0.83950885E+04</totfact>
</mgrwt>
</event>
<event>
 6    3  0.3813045E-003  0.1269583E+03  0.7818608E-02  0.1232040E+00
          4   -1    0    0  502    0 -0.00000000000E+00  0.00000000000E+00  0.35503151900E+02  0.35525859523E+02  0.12700000000E+01 0. -1.
         21   -1    0    0  501  502  0.00000000000E+00 -0.00000000000E+00 -0.15778727162E+03  0.15778727162E+03  0.00000000000E+00 0.  1.
         25    2    1    2    0    0 -0.84507570101E+01 -0.20538683618E+02 -0.10949628612E+03  0.16765393382E+03  0.12500060814E+03 0.  0.
    9000005    1    3    3    0    0 -0.36485772629E+02  0.43595323050E+02 -0.45777257617E+02  0.72995349928E+02  0.10000000000E+01 0.  0.
    9000005    1    3    3    0    0  0.28035015619E+02 -0.64134006669E+02 -0.63719028499E+02  0.94658583895E+02  0.10000000000E+01 0.  0.
          4    1    1    2  501    0  0.84507570101E+01  0.20538683618E+02 -0.12787833604E+02  0.25659197320E+02  0.12700000000E+01 0.  1.
<mgrwt>
<rscale>  1 0.12695828E+03</rscale>
<asrwt>0</asrwt>
<pdfrwt beam="2">  1       21 0.24274965E-01 0.12695828E+03</pdfrwt>
<pdfrwt beam="1">  1        4 0.54641632E-02 0.12695828E+03</pdfrwt>
<totfact> 0.13241726E+05</totfact>
</mgrwt>
</event>
<event>
 6    3  0.3813045E-003  0.1312502E+03  0.7818608E-02  0.1225612E+00
         21   -1    0    0  501  502  0.00000000000E+00  0.00000000000E+00  0.16305466770E+02  0.16305466770E+02  0.00000000000E+00 0. -1.
          4   -1    0    0  502    0 -0.00000000000E+00 -0.00000000000E+00 -0.85662376773E+03  0.85662470916E+03  0.12700000000E+01 0.  1.
         25    2    1    2    0    0  0.77518305683E+01  0.39270436121E+02 -0.81510822735E+03  0.82560767872E+03  0.12499743534E+03 0.  0.
    9000005    1    3    3    0    0  0.43700555130E+02  0.45936413011E+02 -0.20926036717E+03  0.21865679461E+03  0.10000000000E+01 0.  0.
    9000005    1    3    3    0    0 -0.35948724562E+02 -0.66659768900E+01 -0.60584786018E+03  0.60695088412E+03  0.10000000000E+01 0.  0.
          4    1    1    2  501    0 -0.77518305683E+01 -0.39270436121E+02 -0.25210073608E+02  0.47322497204E+02  0.12700000000E+01 0. -1.
<mgrwt>
<rscale>  1 0.13125021E+03</rscale>
<asrwt>0</asrwt>
<pdfrwt beam="1">  1       21 0.25085339E-02 0.13125021E+03</pdfrwt>
<pdfrwt beam="2">  1        4 0.13179212E+00 0.13125021E+03</pdfrwt>
<totfact> 0.15215696E+04</totfact>
</mgrwt>
</event>
<event>
 6    3  0.3813045E-003  0.1411441E+03  0.7818608E-02  0.1211798E+00
         21   -1    0    0  501  502  0.00000000000E+00  0.00000000000E+00  0.51488884681E+02  0.51488884681E+02  0.00000000000E+00 0. -1.
          4   -1    0    0  502    0 -0.00000000000E+00 -0.00000000000E+00 -0.22752141100E+03  0.22752495547E+03  0.12700000000E+01 0.  1.
         25    2    1    2    0    0 -0.44914188928E+02  0.47737176756E+02 -0.15619801256E+03  0.21052191911E+03  0.12500214754E+03 0.  0.
    9000005    1    3    3    0    0  0.38747801194E+02  0.31806307995E+02 -0.30506173974E+02  0.58691225717E+02  0.10000000000E+01 0.  0.
    9000005    1    3    3    0    0 -0.83661990122E+02  0.15930868762E+02 -0.12569183858E+03  0.15183069340E+03  0.10000000000E+01 0.  0.
          4    1    1    2  501    0  0.44914188928E+02 -0.47737176756E+02 -0.19834513760E+02  0.68491921040E+02  0.12700000000E+01 0. -1.
<mgrwt>
<rscale>  1 0.14114411E+03</rscale>
<asrwt>0</asrwt>
<pdfrwt beam="1">  1       21 0.79213668E-02 0.14114411E+03</pdfrwt>
<pdfrwt beam="2">  1        4 0.35004772E-01 0.14114411E+03</pdfrwt>
<totfact> 0.39260331E+04</totfact>
</mgrwt>
</event>
