<event>
 5    1  0.3277540E-002  0.1250008E+03  0.7818608E-02  0.1235068E+00
          4   -1    0    0  501    0  0.00000000000E+00  0.00000000000E+00  0.43355174327E+03  0.43355360337E+03  0.12700000000E+01 0.  1.
         -4   -1    0    0    0  501 -0.00000000000E+00 -0.00000000000E+00 -0.89633584070E+01  0.90528831834E+01  0.12700000000E+01 0.  1.
         25    2    1    2    0    0  0.00000000000E+00  0.00000000000E+00  0.42458838487E+03  0.44260648655E+03  0.12500082150E+03 0.  0.
    9000005    1    3    3    0    0  0.14367191630E+02  0.32839966803E+02  0.31038980589E+02  0.47426763868E+02  0.10000000000E+01 0.  0.
    9000005    1    3    3    0    0 -0.14367191630E+02 -0.32839966803E+02  0.39354940428E+03  0.39517972269E+03  0.10000000000E+01 0.  0.
<mgrwt>
<rscale>  0 0.12500082E+03</rscale>
<asrwt>0</asrwt>
<pdfrwt beam="1">  1        4 0.66707310E-01 0.12500082E+03</pdfrwt>
<pdfrwt beam="2">  1       -4 0.13860076E-02 0.12500082E+03</pdfrwt>
<totfact> 0.60608573E+03</totfact>
</mgrwt>
</event>
<event>
 5    1  0.3277540E-002  0.1250000E+03  0.7818608E-02  0.1235069E+00
         -4   -1    0    0    0  501 -0.00000000000E+00  0.00000000000E+00  0.67040926125E+02  0.67052954265E+02  0.12700000000E+01 0. -1.
          4   -1    0    0  501    0  0.00000000000E+00 -0.00000000000E+00 -0.58242506503E+02  0.58256351274E+02  0.12700000000E+01 0. -1.
         25    2    1    2    0    0  0.00000000000E+00  0.00000000000E+00  0.87984196218E+01  0.12530930554E+03  0.12500003947E+03 0.  0.
    9000005    1    3    3    0    0  0.60496307309E+02  0.32459400486E+01 -0.10965587296E+02  0.61575834786E+02  0.10000000000E+01 0.  0.
    9000005    1    3    3    0    0 -0.60496307309E+02 -0.32459400486E+01  0.19764006917E+02  0.63733470753E+02  0.10000000000E+01 0.  0.
<mgrwt>
<rscale>  0 0.12500004E+03</rscale>
<asrwt>0</asrwt>
<pdfrwt beam="2">  1        4 0.89623758E-02 0.12500004E+03</pdfrwt>
<pdfrwt beam="1">  1       -4 0.10315979E-01 0.12500004E+03</pdfrwt>
<totfact> 0.10446139E+04</totfact>
</mgrwt>
</event>
<event>
 5    1  0.3277540E-002  0.1250011E+03  0.7818608E-02  0.1235068E+00
          4   -1    0    0  501    0  0.00000000000E+00  0.00000000000E+00  0.62014959298E+01  0.63302015582E+01  0.12700000000E+01 0. -1.
         -4   -1    0    0    0  501 -0.00000000000E+00 -0.00000000000E+00 -0.62330069118E+03  0.62330198502E+03  0.12700000000E+01 0. -1.
         25    2    1    2    0    0  0.00000000000E+00  0.00000000000E+00 -0.61709919525E+03  0.62963218657E+03  0.12500109436E+03 0.  0.
    9000005    1    3    3    0    0 -0.15634944125E+02  0.58774010716E+02 -0.23617022414E+03  0.24387744993E+03  0.10000000000E+01 0.  0.
    9000005    1    3    3    0    0  0.15634944125E+02 -0.58774010716E+02 -0.38092897111E+03  0.38575473664E+03  0.10000000000E+01 0.  0.
<mgrwt>
<rscale>  0 0.12500109E+03</rscale>
<asrwt>0</asrwt>
<pdfrwt beam="1">  1        4 0.96407675E-03 0.12500109E+03</pdfrwt>
<pdfrwt beam="2">  1       -4 0.95902365E-01 0.12500109E+03</pdfrwt>
<totfact> 0.47047907E+03</totfact>
</mgrwt>
</event>
<event>
 5    1  0.3277540E-002  0.1250018E+03  0.7818608E-02  0.1235066E+00
          4   -1    0    0  501    0  0.00000000000E+00  0.00000000000E+00  0.49461118945E+02  0.49477420985E+02  0.12700000000E+01 0.  1.
         -4   -1    0    0    0  501 -0.00000000000E+00 -0.00000000000E+00 -0.78944002738E+02  0.78954217546E+02  0.12700000000E+01 0.  1.
         25    2    1    2    0    0  0.00000000000E+00  0.00000000000E+00 -0.29482883793E+02  0.12843163853E+03  0.12500178134E+03 0.  0.
    9000005    1    3    3    0    0 -0.10742459080E+02  0.59745258546E+02  0.51402966722E+00  0.60713759333E+02  0.10000000000E+01 0.  0.
    9000005    1    3    3    0    0  0.10742459080E+02 -0.59745258546E+02 -0.29996913460E+02  0.67717879198E+02  0.10000000000E+01 0.  0.
<mgrwt>
<rscale>  0 0.12500178E+03</rscale>
<asrwt>0</asrwt>
<pdfrwt beam="1">  1        4 0.76114427E-02 0.12500178E+03</pdfrwt>
<pdfrwt beam="2">  1       -4 0.12147271E-01 0.12500178E+03</pdfrwt>
<totfact> 0.10377759E+04</totfact>
</mgrwt>
</event>
<event>
 5    1  0.3277540E-002  0.1249997E+03  0.7818608E-02  0.1235070E+00
         -4   -1    0    0    0  501 -0.00000000000E+00  0.00000000000E+00  0.30178130078E+02  0.30204841251E+02  0.12700000000E+01 0. -1.
          4   -1    0    0  501    0  0.00000000000E+00 -0.00000000000E+00 -0.12935215306E+03  0.12935838744E+03  0.12700000000E+01 0. -1.
         25    2    1    2    0    0  0.00000000000E+00  0.00000000000E+00 -0.99174022978E+02  0.15956322869E+03  0.12499974846E+03 0.  0.
    9000005    1    3    3    0    0 -0.62446323136E+01  0.26995349177E+02 -0.12108846154E+03  0.12422221954E+03  0.10000000000E+01 0.  0.
    9000005    1    3    3    0    0  0.62446323136E+01 -0.26995349177E+02  0.21914438562E+02  0.35341009145E+02  0.10000000000E+01 0.  0.
<mgrwt>
<rscale>  0 0.12499975E+03</rscale>
<asrwt>0</asrwt>
<pdfrwt beam="2">  1        4 0.19902865E-01 0.12499975E+03</pdfrwt>
<pdfrwt beam="1">  1       -4 0.46453236E-02 0.12499975E+03</pdfrwt>
<totfact> 0.97427608E+03</totfact>
</mgrwt>
</event>
<event>
 5    1  0.3277540E-002  0.1250127E+03  0.7818608E-02  0.1235049E+00
          4   -1    0    0  501    0  0.00000000000E+00  0.00000000000E+00  0.32325728422E+03  0.32325977897E+03  0.12700000000E+01 0.  1.
         -4   -1    0    0    0  501 -0.00000000000E+00 -0.00000000000E+00 -0.12050574207E+02  0.12117311530E+02  0.12700000000E+01 0.  1.
         25    2    1    2    0    0  0.00000000000E+00  0.00000000000E+00  0.31120671001E+03  0.33537709050E+03  0.12501270526E+03 0.  0.
    9000005    1    3    3    0    0 -0.34680474343E+02 -0.35150399332E+02  0.25838285576E+03  0.26306080291E+03  0.10000000000E+01 0.  0.
    9000005    1    3    3    0    0  0.34680474343E+02  0.35150399332E+02  0.52823854251E+02  0.72316287597E+02  0.10000000000E+01 0.  0.
<mgrwt>
<rscale>  0 0.12501271E+03</rscale>
<asrwt>0</asrwt>
<pdfrwt beam="1">  1        4 0.49737212E-01 0.12501271E+03</pdfrwt>
<pdfrwt beam="2">  1       -4 0.18592602E-02 0.12501271E+03</pdfrwt>
<totfact> 0.71343714E+03</totfact>
</mgrwt>
</event>
<event>
 5    1  0.3277540E-002  0.1250010E+03  0.7818608E-02  0.1235068E+00
          4   -1    0    0  501    0  0.00000000000E+00  0.00000000000E+00  0.70779182363E+03  0.70779296302E+03  0.12700000000E+01 0.  1.
         -4   -1    0    0    0  501 -0.00000000000E+00 -0.00000000000E+00 -0.54447945516E+01  0.55909469421E+01  0.12700000000E+01 0.  1.
         25    2    1    2    0    0  0.00000000000E+00  0.00000000000E+00  0.70234702908E+03  0.71338390996E+03  0.12500101493E+03 0.  0.
    9000005    1    3    3    0    0  0.11943181392E+02 -0.41435190436E+02  0.93041877801E+02  0.10255391564E+03  0.10000000000E+01 0.  0.
    9000005    1    3    3    0    0 -0.11943181392E+02  0.41435190436E+02  0.60930515128E+03  0.61082999432E+03  0.10000000000E+01 0.  0.
<mgrwt>
<rscale>  0 0.12500101E+03</rscale>
<asrwt>0</asrwt>
<pdfrwt beam="1">  1        4 0.10890238E+00 0.12500101E+03</pdfrwt>
<pdfrwt beam="2">  1       -4 0.84899085E-03 0.12500101E+03</pdfrwt>
<totfact> 0.42388592E+03</totfact>
</mgrwt>
</event>
<event>
 5    1  0.3277540E-002  0.1250016E+03  0.7818608E-02  0.1235067E+00
          4   -1    0    0  501    0  0.00000000000E+00  0.00000000000E+00  0.17575849346E+01  0.21684106627E+01  0.12700000000E+01 0.  1.
         -4   -1    0    0    0  501 -0.00000000000E+00 -0.00000000000E+00 -0.19895804965E+04  0.19895809018E+04  0.12700000000E+01 0.  1.
         25    2    1    2    0    0  0.00000000000E+00  0.00000000000E+00 -0.19878229116E+04  0.19917493125E+04  0.12500158438E+03 0.  0.
    9000005    1    3    3    0    0 -0.21488570011E+01 -0.22279303541E+02 -0.64223600943E+02  0.68019525658E+02  0.10000000000E+01 0.  0.
    9000005    1    3    3    0    0  0.21488570011E+01  0.22279303541E+02 -0.19235993106E+04  0.19237297868E+04  0.10000000000E+01 0.  0.
<mgrwt>
<rscale>  0 0.12500158E+03</rscale>
<asrwt>0</asrwt>
<pdfrwt beam="1">  1        4 0.30203243E-03 0.12500158E+03</pdfrwt>
<pdfrwt beam="2">  1       -4 0.30611933E+00 0.12500158E+03</pdfrwt>
<totfact> 0.99690891E+02</totfact>
</mgrwt>
</event>
<event>
 5    1  0.3277540E-002  0.1250005E+03  0.7818608E-02  0.1235068E+00
         -4   -1    0    0    0  501 -0.00000000000E+00  0.00000000000E+00  0.75230798244E+03  0.75230905441E+03  0.12700000000E+01 0. -1.
          4   -1    0    0  501    0  0.00000000000E+00 -0.00000000000E+00 -0.51136512655E+01  0.52689969886E+01  0.12700000000E+01 0. -1.
         25    2    1    2    0    0  0.00000000000E+00  0.00000000000E+00  0.74719433117E+03  0.75757805139E+03  0.12500054167E+03 0.  0.
    9000005    1    3    3    0    0 -0.10782734531E+02 -0.34570716422E+02  0.68226445008E+03  0.68322557157E+03  0.10000000000E+01 0.  0.
    9000005    1    3    3    0    0  0.10782734531E+02  0.34570716422E+02  0.64929881091E+02  0.74352479827E+02  0.10000000000E+01 0.  0.
<mgrwt>
<rscale>  0 0.12500054E+03</rscale>
<asrwt>0</asrwt>
<pdfrwt beam="2">  1        4 0.79874778E-03 0.12500054E+03</pdfrwt>
<pdfrwt beam="1">  1       -4 0.11575171E+00 0.12500054E+03</pdfrwt>
<totfact> 0.40213802E+03</totfact>
</mgrwt>
</event>
<event>
 5    1  0.3277540E-002  0.1249980E+03  0.7818608E-02  0.1235072E+00
          4   -1    0    0  501    0  0.00000000000E+00  0.00000000000E+00  0.56629002277E+02  0.56643241423E+02  0.12700000000E+01 0.  1.
         -4   -1    0    0    0  501 -0.00000000000E+00 -0.00000000000E+00 -0.68948680359E+02  0.68960375748E+02  0.12700000000E+01 0.  1.
         25    2    1    2    0    0  0.00000000000E+00  0.00000000000E+00 -0.12319678083E+02  0.12560361717E+03  0.12499797670E+03 0.  0.
    9000005    1    3    3    0    0 -0.45090090789E+02  0.28143370808E+02  0.26862100923E+02  0.59562891752E+02  0.10000000000E+01 0.  0.
    9000005    1    3    3    0    0  0.45090090789E+02 -0.28143370808E+02 -0.39181779006E+02  0.66040725419E+02  0.10000000000E+01 0.  0.
<mgrwt>
<rscale>  0 0.12499798E+03</rscale>
<asrwt>0</asrwt>
<pdfrwt beam="1">  1        4 0.87141492E-02 0.12499798E+03</pdfrwt>
<pdfrwt beam="2">  1       -4 0.10609484E-01 0.12499798E+03</pdfrwt>
<totfact> 0.10440144E+04</totfact>
</mgrwt>
</event>
<event>
 5    1  0.3277540E-002  0.1250004E+03  0.7818608E-02  0.1235069E+00
         -4   -1    0    0    0  501 -0.00000000000E+00  0.00000000000E+00  0.12318734616E+02  0.12384026912E+02  0.12700000000E+01 0. -1.
          4   -1    0    0  501    0  0.00000000000E+00 -0.00000000000E+00 -0.31619582964E+03  0.31619838011E+03  0.12700000000E+01 0. -1.
         25    2    1    2    0    0  0.00000000000E+00  0.00000000000E+00 -0.30387709503E+03  0.32858240702E+03  0.12500043729E+03 0.  0.
    9000005    1    3    3    0    0 -0.59716182783E+02  0.14587160303E+02 -0.12237708990E+03  0.13695240000E+03  0.10000000000E+01 0.  0.
    9000005    1    3    3    0    0  0.59716182783E+02 -0.14587160303E+02 -0.18150000512E+03  0.19163000702E+03  0.10000000000E+01 0.  0.
<mgrwt>
<rscale>  0 0.12500044E+03</rscale>
<asrwt>0</asrwt>
<pdfrwt beam="2">  1        4 0.48650725E-01 0.12500044E+03</pdfrwt>
<pdfrwt beam="1">  1       -4 0.19004089E-02 0.12500044E+03</pdfrwt>
<totfact> 0.72146160E+03</totfact>
</mgrwt>
</event>
<event>
 5    1  0.3277540E-002  0.1250002E+03  0.7818608E-02  0.1235069E+00
         -4   -1    0    0    0  501 -0.00000000000E+00  0.00000000000E+00  0.47152337968E+02  0.47169437943E+02  0.12700000000E+01 0. -1.
          4   -1    0    0  501    0  0.00000000000E+00 -0.00000000000E+00 -0.82806517749E+02  0.82816256145E+02  0.12700000000E+01 0. -1.
         25    2    1    2    0    0  0.00000000000E+00  0.00000000000E+00 -0.35654179781E+02  0.12998569409E+03  0.12500024053E+03 0.  0.
    9000005    1    3    3    0    0  0.58976713277E+02 -0.17957336540E+02 -0.28459683768E+02  0.67909294245E+02  0.10000000000E+01 0.  0.
    9000005    1    3    3    0    0 -0.58976713277E+02  0.17957336540E+02 -0.71944960129E+01  0.62076399843E+02  0.10000000000E+01 0.  0.
<mgrwt>
<rscale>  0 0.12500024E+03</rscale>
<asrwt>0</asrwt>
<pdfrwt beam="2">  1        4 0.12741529E-01 0.12500024E+03</pdfrwt>
<pdfrwt beam="1">  1       -4 0.72562703E-02 0.12500024E+03</pdfrwt>
<totfact> 0.10344757E+04</totfact>
</mgrwt>
</event>
<event>
 5    1  0.3277540E-002  0.1249986E+03  0.7818608E-02  0.1235072E+00
         -4   -1    0    0    0  501 -0.00000000000E+00  0.00000000000E+00  0.96427674809E+03  0.96427758441E+03  0.12700000000E+01 0.  1.
          4   -1    0    0  501    0  0.00000000000E+00 -0.00000000000E+00 -0.39504711113E+01  0.41495929922E+01  0.12700000000E+01 0.  1.
         25    2    1    2    0    0  0.00000000000E+00  0.00000000000E+00  0.96032627698E+03  0.96842717740E+03  0.12499855874E+03 0.  0.
    9000005    1    3    3    0    0 -0.48646975066E+02  0.19666276183E+02  0.21721895480E+03  0.22346893504E+03  0.10000000000E+01 0.  0.
    9000005    1    3    3    0    0  0.48646975066E+02 -0.19666276183E+02  0.74310732217E+03  0.74495824237E+03  0.10000000000E+01 0.  0.
<mgrwt>
<rscale>  0 0.12499856E+03</rscale>
<asrwt>0</asrwt>
<pdfrwt beam="2">  1        4 0.62314602E-03 0.12499856E+03</pdfrwt>
<pdfrwt beam="1">  1       -4 0.14836569E+00 0.12499856E+03</pdfrwt>
<totfact> 0.31671623E+03</totfact>
</mgrwt>
</event>
<event>
 5    1  0.3277540E-002  0.1249991E+03  0.7818608E-02  0.1235071E+00
          4   -1    0    0  501    0  0.00000000000E+00  0.00000000000E+00  0.21462402777E+02  0.21499944953E+02  0.12700000000E+01 0.  1.
         -4   -1    0    0    0  501 -0.00000000000E+00 -0.00000000000E+00 -0.18180288186E+03  0.18180731765E+03  0.12700000000E+01 0.  1.
         25    2    1    2    0    0  0.00000000000E+00  0.00000000000E+00 -0.16034047908E+03  0.20330726261E+03  0.12499909518E+03 0.  0.
    9000005    1    3    3    0    0  0.61906831491E+02 -0.67603332989E+01 -0.71713290987E+02  0.94983967045E+02  0.10000000000E+01 0.  0.
    9000005    1    3    3    0    0 -0.61906831491E+02  0.67603332989E+01 -0.88627188097E+02  0.10832329556E+03  0.10000000000E+01 0.  0.
<mgrwt>
<rscale>  0 0.12499910E+03</rscale>
<asrwt>0</asrwt>
<pdfrwt beam="1">  1        4 0.33051373E-02 0.12499910E+03</pdfrwt>
<pdfrwt beam="2">  1       -4 0.27972902E-01 0.12499910E+03</pdfrwt>
<totfact> 0.89582506E+03</totfact>
</mgrwt>
</event>
<event>
 5    1  0.3277540E-002  0.1249990E+03  0.7818608E-02  0.1235071E+00
         -4   -1    0    0    0  501 -0.00000000000E+00  0.00000000000E+00  0.69468001303E+02  0.69479609276E+02  0.12700000000E+01 0. -1.
          4   -1    0    0  501    0  0.00000000000E+00 -0.00000000000E+00 -0.56206560812E+02  0.56220906950E+02  0.12700000000E+01 0. -1.
         25    2    1    2    0    0  0.00000000000E+00  0.00000000000E+00  0.13261440492E+02  0.12570051623E+03  0.12499901590E+03 0.  0.
    9000005    1    3    3    0    0  0.54719572285E+02 -0.18664737737E+02  0.30482694742E+02  0.65366648259E+02  0.10000000000E+01 0.  0.
    9000005    1    3    3    0    0 -0.54719572285E+02  0.18664737737E+02 -0.17221254251E+02  0.60333867967E+02  0.10000000000E+01 0.  0.
<mgrwt>
<rscale>  0 0.12499902E+03</rscale>
<asrwt>0</asrwt>
<pdfrwt beam="2">  1        4 0.86491597E-02 0.12499902E+03</pdfrwt>
<pdfrwt beam="1">  1       -4 0.10689381E-01 0.12499902E+03</pdfrwt>
<totfact> 0.10437765E+04</totfact>
</mgrwt>
</event>
<event>
 5    1  0.3277540E-002  0.1250006E+03  0.7818608E-02  0.1235068E+00
          4   -1    0    0  501    0  0.00000000000E+00  0.00000000000E+00  0.13880629672E+02  0.13938607538E+02  0.12700000000E+01 0.  1.
         -4   -1    0    0    0  501 -0.00000000000E+00 -0.00000000000E+00 -0.28077414584E+03  0.28077701806E+03  0.12700000000E+01 0.  1.
         25    2    1    2    0    0  0.00000000000E+00  0.00000000000E+00 -0.26689351616E+03  0.29471562560E+03  0.12500060400E+03 0.  0.
    9000005    1    3    3    0    0  0.28824273517E+02  0.43428707037E+02 -0.52168999817E+02  0.73752938115E+02  0.10000000000E+01 0.  0.
    9000005    1    3    3    0    0 -0.28824273517E+02 -0.43428707037E+02 -0.21472451635E+03  0.22096268748E+03  0.10000000000E+01 0.  0.
<mgrwt>
<rscale>  0 0.12500060E+03</rscale>
<asrwt>0</asrwt>
<pdfrwt beam="1">  1        4 0.21401625E-02 0.12500060E+03</pdfrwt>
<pdfrwt beam="2">  1       -4 0.43200699E-01 0.12500060E+03</pdfrwt>
<totfact> 0.76265497E+03</totfact>
</mgrwt>
</event>
<event>
 5    1  0.3277540E-002  0.1250028E+03  0.7818608E-02  0.1235065E+00
          4   -1    0    0  501    0  0.00000000000E+00  0.00000000000E+00  0.50532005715E+02  0.50547962388E+02  0.12700000000E+01 0.  1.
         -4   -1    0    0    0  501 -0.00000000000E+00 -0.00000000000E+00 -0.77272635353E+02  0.77283071072E+02  0.12700000000E+01 0.  1.
         25    2    1    2    0    0  0.00000000000E+00  0.00000000000E+00 -0.26740629637E+02  0.12783103346E+03  0.12500284734E+03 0.  0.
    9000005    1    3    3    0    0  0.40186685118E+02  0.44653628928E+02  0.42387920397E+01  0.60231915088E+02  0.10000000000E+01 0.  0.
    9000005    1    3    3    0    0 -0.40186685118E+02 -0.44653628928E+02 -0.30979421677E+02  0.67599118372E+02  0.10000000000E+01 0.  0.
<mgrwt>
<rscale>  0 0.12500285E+03</rscale>
<asrwt>0</asrwt>
<pdfrwt beam="1">  1        4 0.77761849E-02 0.12500285E+03</pdfrwt>
<pdfrwt beam="2">  1       -4 0.11890128E-01 0.12500285E+03</pdfrwt>
<totfact> 0.10390470E+04</totfact>
</mgrwt>
</event>
<event>
 5    1  0.3277540E-002  0.1250019E+03  0.7818608E-02  0.1235066E+00
          4   -1    0    0  501    0  0.00000000000E+00  0.00000000000E+00  0.26058284265E+02  0.26089213841E+02  0.12700000000E+01 0. -1.
         -4   -1    0    0    0  501 -0.00000000000E+00 -0.00000000000E+00 -0.14978642377E+03  0.14979180768E+03  0.12700000000E+01 0. -1.
         25    2    1    2    0    0  0.00000000000E+00  0.00000000000E+00 -0.12372813951E+03  0.17588102152E+03  0.12500192488E+03 0.  0.
    9000005    1    3    3    0    0  0.14643658594E+02  0.27958791841E+02 -0.13775537434E+03  0.14132824891E+03  0.10000000000E+01 0.  0.
    9000005    1    3    3    0    0 -0.14643658594E+02 -0.27958791841E+02  0.14027234833E+02  0.34552772614E+02  0.10000000000E+01 0.  0.
<mgrwt>
<rscale>  0 0.12500192E+03</rscale>
<asrwt>0</asrwt>
<pdfrwt beam="1">  1        4 0.40117602E-02 0.12500192E+03</pdfrwt>
<pdfrwt beam="2">  1       -4 0.23046858E-01 0.12500192E+03</pdfrwt>
<totfact> 0.94359657E+03</totfact>
</mgrwt>
</event>
<event>
 5    1  0.3277540E-002  0.1249992E+03  0.7818608E-02  0.1235071E+00
         -4   -1    0    0    0  501 -0.00000000000E+00  0.00000000000E+00  0.49540068584E+02  0.49556344652E+02  0.12700000000E+01 0. -1.
          4   -1    0    0  501    0  0.00000000000E+00 -0.00000000000E+00 -0.78814973727E+02  0.78825205256E+02  0.12700000000E+01 0. -1.
         25    2    1    2    0    0  0.00000000000E+00  0.00000000000E+00 -0.29274905143E+02  0.12838154991E+03  0.12499920914E+03 0.  0.
    9000005    1    3    3    0    0  0.52510157374E+02 -0.12039320339E+02 -0.47163594004E+02  0.71607726267E+02  0.10000000000E+01 0.  0.
    9000005    1    3    3    0    0 -0.52510157374E+02  0.12039320339E+02  0.17888688861E+02  0.56773823641E+02  0.10000000000E+01 0.  0.
<mgrwt>
<rscale>  0 0.12499921E+03</rscale>
<asrwt>0</asrwt>
<pdfrwt beam="2">  1        4 0.12127420E-01 0.12499921E+03</pdfrwt>
<pdfrwt beam="1">  1       -4 0.76235881E-02 0.12499921E+03</pdfrwt>
<totfact> 0.10379441E+04</totfact>
</mgrwt>
</event>
<event>
 5    1  0.3277540E-002  0.1250126E+03  0.7818608E-02  0.1235050E+00
          4   -1    0    0  501    0  0.00000000000E+00  0.00000000000E+00  0.20576656953E+03  0.20577048874E+03  0.12700000000E+01 0. -1.
         -4   -1    0    0    0  501 -0.00000000000E+00 -0.00000000000E+00 -0.18962389157E+02  0.19004870495E+02  0.12700000000E+01 0. -1.
         25    2    1    2    0    0  0.00000000000E+00  0.00000000000E+00  0.18680418037E+03  0.22477535924E+03  0.12501264062E+03 0.  0.
    9000005    1    3    3    0    0 -0.39768932518E+02  0.36937969217E+02  0.14911343264E+03  0.15868773537E+03  0.10000000000E+01 0.  0.
    9000005    1    3    3    0    0  0.39768932518E+02 -0.36937969217E+02  0.37690747736E+02  0.66087623867E+02  0.10000000000E+01 0.  0.
<mgrwt>
<rscale>  0 0.12501264E+03</rscale>
<asrwt>0</asrwt>
<pdfrwt beam="1">  1        4 0.31659966E-01 0.12501264E+03</pdfrwt>
<pdfrwt beam="2">  1       -4 0.29208598E-02 0.12501264E+03</pdfrwt>
<totfact> 0.86094004E+03</totfact>
</mgrwt>
</event>
<event>
 5    1  0.3277540E-002  0.1249971E+03  0.7818608E-02  0.1235074E+00
          4   -1    0    0  501    0  0.00000000000E+00  0.00000000000E+00  0.16694972622E+02  0.16743207902E+02  0.12700000000E+01 0. -1.
         -4   -1    0    0    0  501 -0.00000000000E+00 -0.00000000000E+00 -0.23357916174E+03  0.23358261429E+03  0.12700000000E+01 0. -1.
         25    2    1    2    0    0  0.00000000000E+00  0.00000000000E+00 -0.21688418912E+03  0.25032582219E+03  0.12499706303E+03 0.  0.
    9000005    1    3    3    0    0 -0.48000650501E+02 -0.38513700884E+02 -0.13016870258E+03  0.14398700891E+03  0.10000000000E+01 0.  0.
    9000005    1    3    3    0    0  0.48000650501E+02  0.38513700884E+02 -0.86715486539E+02  0.10633881328E+03  0.10000000000E+01 0.  0.
<mgrwt>
<rscale>  0 0.12499706E+03</rscale>
<asrwt>0</asrwt>
<pdfrwt beam="1">  1        4 0.25724335E-02 0.12499706E+03</pdfrwt>
<pdfrwt beam="2">  1       -4 0.35939229E-01 0.12499706E+03</pdfrwt>
<totfact> 0.82288544E+03</totfact>
</mgrwt>
</event>
<event>
 5    1  0.3277540E-002  0.1249901E+03  0.7818608E-02  0.1235085E+00
         -4   -1    0    0    0  501 -0.00000000000E+00  0.00000000000E+00  0.87567402711E+01  0.88483557894E+01  0.12700000000E+01 0.  1.
          4   -1    0    0  501    0  0.00000000000E+00 -0.00000000000E+00 -0.44360087244E+03  0.44360269040E+03  0.12700000000E+01 0.  1.
         25    2    1    2    0    0  0.00000000000E+00  0.00000000000E+00 -0.43484413217E+03  0.45245104619E+03  0.12499011927E+03 0.  0.
    9000005    1    3    3    0    0 -0.24486261821E+02 -0.56949321642E+02 -0.24588609222E+03  0.25358188539E+03  0.10000000000E+01 0.  0.
    9000005    1    3    3    0    0  0.24486261821E+02  0.56949321642E+02 -0.18895803995E+03  0.19886916080E+03  0.10000000000E+01 0.  0.
<mgrwt>
<rscale>  0 0.12499012E+03</rscale>
<asrwt>0</asrwt>
<pdfrwt beam="2">  1        4 0.68253458E-01 0.12499012E+03</pdfrwt>
<pdfrwt beam="1">  1       -4 0.13543783E-02 0.12499012E+03</pdfrwt>
<totfact> 0.59765060E+03</totfact>
</mgrwt>
</event>
<event>
 5    1  0.3277540E-002  0.1250020E+03  0.7818608E-02  0.1235066E+00
         -4   -1    0    0    0  501 -0.00000000000E+00  0.00000000000E+00  0.25964793411E+02  0.25995834221E+02  0.12700000000E+01 0.  1.
          4   -1    0    0  501    0  0.00000000000E+00 -0.00000000000E+00 -0.15032524509E+03  0.15033060970E+03  0.12700000000E+01 0.  1.
         25    2    1    2    0    0  0.00000000000E+00  0.00000000000E+00 -0.12436045168E+03  0.17632644392E+03  0.12500197152E+03 0.  0.
    9000005    1    3    3    0    0 -0.26903915992E+02 -0.42634089690E+02 -0.10085978388E+02  0.51421914194E+02  0.10000000000E+01 0.  0.
    9000005    1    3    3    0    0  0.26903915992E+02  0.42634089690E+02 -0.11427447329E+03  0.12490452973E+03  0.10000000000E+01 0.  0.
<mgrwt>
<rscale>  0 0.12500197E+03</rscale>
<asrwt>0</asrwt>
<pdfrwt beam="2">  1        4 0.23129761E-01 0.12500197E+03</pdfrwt>
<pdfrwt beam="1">  1       -4 0.39973841E-02 0.12500197E+03</pdfrwt>
<totfact> 0.94278297E+03</totfact>
</mgrwt>
</event>
<event>
 5    1  0.3277540E-002  0.1250005E+03  0.7818608E-02  0.1235069E+00
         -4   -1    0    0    0  501 -0.00000000000E+00  0.00000000000E+00  0.14808563066E+02  0.14862921654E+02  0.12700000000E+01 0. -1.
          4   -1    0    0  501    0  0.00000000000E+00 -0.00000000000E+00 -0.26324613149E+03  0.26324919495E+03  0.12700000000E+01 0. -1.
         25    2    1    2    0    0  0.00000000000E+00  0.00000000000E+00 -0.24843756842E+03  0.27811211660E+03  0.12500049600E+03 0.  0.
    9000005    1    3    3    0    0 -0.59686741140E+01 -0.59947647616E+02 -0.16117708049E+03  0.17207090632E+03  0.10000000000E+01 0.  0.
    9000005    1    3    3    0    0  0.59686741140E+01  0.59947647616E+02 -0.87260487926E+02  0.10604121028E+03  0.10000000000E+01 0.  0.
<mgrwt>
<rscale>  0 0.12500050E+03</rscale>
<asrwt>0</asrwt>
<pdfrwt beam="2">  1        4 0.40503818E-01 0.12500050E+03</pdfrwt>
<pdfrwt beam="1">  1       -4 0.22826578E-02 0.12500050E+03</pdfrwt>
<totfact> 0.78428229E+03</totfact>
</mgrwt>
</event>
<event>
 5    1  0.3277540E-002  0.1250020E+03  0.7818608E-02  0.1235066E+00
          4   -1    0    0  501    0  0.00000000000E+00  0.00000000000E+00  0.15086941772E+03  0.15087476298E+03  0.12700000000E+01 0.  1.
         -4   -1    0    0    0  501 -0.00000000000E+00 -0.00000000000E+00 -0.25871055452E+02  0.25902208597E+02  0.12700000000E+01 0.  1.
         25    2    1    2    0    0  0.00000000000E+00  0.00000000000E+00  0.12499836227E+03  0.17677697158E+03  0.12500202842E+03 0.  0.
    9000005    1    3    3    0    0 -0.46280093875E+02 -0.12594594421E+02  0.58448113048E+01  0.48328384174E+02  0.10000000000E+01 0.  0.
    9000005    1    3    3    0    0  0.46280093875E+02  0.12594594421E+02  0.11915355097E+03  0.12844858740E+03  0.10000000000E+01 0.  0.
<mgrwt>
<rscale>  0 0.12500203E+03</rscale>
<asrwt>0</asrwt>
<pdfrwt beam="1">  1        4 0.23213487E-01 0.12500203E+03</pdfrwt>
<pdfrwt beam="2">  1       -4 0.39829701E-02 0.12500203E+03</pdfrwt>
<totfact> 0.94196112E+03</totfact>
</mgrwt>
</event>
<event>
 5    1  0.3277540E-002  0.1250008E+03  0.7818608E-02  0.1235068E+00
         -4   -1    0    0    0  501 -0.00000000000E+00  0.00000000000E+00  0.49804891264E+03  0.49805053185E+03  0.12700000000E+01 0.  1.
          4   -1    0    0  501    0  0.00000000000E+00 -0.00000000000E+00 -0.77901552073E+01  0.78929980460E+01  0.12700000000E+01 0.  1.
         25    2    1    2    0    0  0.00000000000E+00  0.00000000000E+00  0.49025875743E+03  0.50594352990E+03  0.12500082484E+03 0.  0.
    9000005    1    3    3    0    0  0.27129671207E+02  0.33703767109E+02  0.42764246860E+03  0.42982676037E+03  0.10000000000E+01 0.  0.
    9000005    1    3    3    0    0 -0.27129671207E+02 -0.33703767109E+02  0.62616288827E+02  0.76116769529E+02  0.10000000000E+01 0.  0.
<mgrwt>
<rscale>  0 0.12500082E+03</rscale>
<asrwt>0</asrwt>
<pdfrwt beam="2">  1        4 0.12065209E-02 0.12500082E+03</pdfrwt>
<pdfrwt beam="1">  1       -4 0.76630946E-01 0.12500082E+03</pdfrwt>
<totfact> 0.55405146E+03</totfact>
</mgrwt>
</event>
<event>
 5    1  0.3277540E-002  0.1249982E+03  0.7818608E-02  0.1235072E+00
         -4   -1    0    0    0  501 -0.00000000000E+00  0.00000000000E+00  0.10375235068E+03  0.10376012323E+03  0.12700000000E+01 0. -1.
          4   -1    0    0  501    0  0.00000000000E+00 -0.00000000000E+00 -0.37628793815E+02  0.37650219441E+02  0.12700000000E+01 0. -1.
         25    2    1    2    0    0  0.00000000000E+00  0.00000000000E+00  0.66123556866E+02  0.14141034267E+03  0.12499824095E+03 0.  0.
    9000005    1    3    3    0    0 -0.44630479235E+02 -0.39473639232E+02  0.54379845928E+02  0.80673511850E+02  0.10000000000E+01 0.  0.
    9000005    1    3    3    0    0  0.44630479235E+02  0.39473639232E+02  0.11743710938E+02  0.60736830816E+02  0.10000000000E+01 0.  0.
<mgrwt>
<rscale>  0 0.12499824E+03</rscale>
<asrwt>0</asrwt>
<pdfrwt beam="2">  1        4 0.57912913E-02 0.12499824E+03</pdfrwt>
<pdfrwt beam="1">  1       -4 0.15964146E-01 0.12499824E+03</pdfrwt>
<totfact> 0.10104839E+04</totfact>
</mgrwt>
</event>
<event>
 5    1  0.3277540E-002  0.1249963E+03  0.7818608E-02  0.1235075E+00
          4   -1    0    0  501    0  0.00000000000E+00  0.00000000000E+00  0.21484166798E+03  0.21484542164E+03  0.12700000000E+01 0. -1.
         -4   -1    0    0    0  501 -0.00000000000E+00 -0.00000000000E+00 -0.18154819862E+02  0.18199186361E+02  0.12700000000E+01 0. -1.
         25    2    1    2    0    0  0.00000000000E+00  0.00000000000E+00  0.19668684812E+03  0.23304460801E+03  0.12499629233E+03 0.  0.
    9000005    1    3    3    0    0  0.24339984402E+02  0.57521967150E+02  0.10198104877E+03  0.11959241553E+03  0.10000000000E+01 0.  0.
    9000005    1    3    3    0    0 -0.24339984402E+02 -0.57521967150E+02  0.94705799352E+02  0.11345219247E+03  0.10000000000E+01 0.  0.
<mgrwt>
<rscale>  0 0.12499629E+03</rscale>
<asrwt>0</asrwt>
<pdfrwt beam="1">  1        4 0.33056263E-01 0.12499629E+03</pdfrwt>
<pdfrwt beam="2">  1       -4 0.27967510E-02 0.12499629E+03</pdfrwt>
<totfact> 0.84851296E+03</totfact>
</mgrwt>
</event>
<event>
 5    1  0.3277540E-002  0.1249999E+03  0.7818608E-02  0.1235069E+00
          4   -1    0    0  501    0  0.00000000000E+00  0.00000000000E+00  0.43159582342E+02  0.43178263605E+02  0.12700000000E+01 0. -1.
         -4   -1    0    0    0  501 -0.00000000000E+00 -0.00000000000E+00 -0.90464279406E+02  0.90473193535E+02  0.12700000000E+01 0. -1.
         25    2    1    2    0    0  0.00000000000E+00  0.00000000000E+00 -0.47304697064E+02  0.13365145714E+03  0.12499991053E+03 0.  0.
    9000005    1    3    3    0    0 -0.24842927716E+02 -0.56727996941E+02 -0.14706182739E+02  0.63659315934E+02  0.10000000000E+01 0.  0.
    9000005    1    3    3    0    0  0.24842927716E+02  0.56727996941E+02 -0.32598514324E+02  0.69992141206E+02  0.10000000000E+01 0.  0.
<mgrwt>
<rscale>  0 0.12499991E+03</rscale>
<asrwt>0</asrwt>
<pdfrwt beam="1">  1        4 0.66420585E-02 0.12499991E+03</pdfrwt>
<pdfrwt beam="2">  1       -4 0.13919704E-01 0.12499991E+03</pdfrwt>
<totfact> 0.10266594E+04</totfact>
</mgrwt>
</event>
<event>
 5    1  0.3277540E-002  0.1250002E+03  0.7818608E-02  0.1235069E+00
          4   -1    0    0  501    0  0.00000000000E+00  0.00000000000E+00  0.17303191145E+04  0.17303195806E+04  0.12700000000E+01 0. -1.
         -4   -1    0    0    0  501 -0.00000000000E+00 -0.00000000000E+00 -0.20784241315E+01  0.24357230693E+01  0.12700000000E+01 0. -1.
         25    2    1    2    0    0  0.00000000000E+00  0.00000000000E+00  0.17282406904E+04  0.17327553037E+04  0.12500023378E+03 0.  0.
    9000005    1    3    3    0    0 -0.55135726023E+02  0.20208213632E+02  0.11604383938E+04  0.11619236576E+04  0.10000000000E+01 0.  0.
    9000005    1    3    3    0    0  0.55135726023E+02 -0.20208213632E+02  0.56780229658E+03  0.57083164610E+03  0.10000000000E+01 0.  0.
<mgrwt>
<rscale>  0 0.12500023E+03</rscale>
<asrwt>0</asrwt>
<pdfrwt beam="1">  1        4 0.26623012E+00 0.12500023E+03</pdfrwt>
<pdfrwt beam="2">  1       -4 0.34727839E-03 0.12500023E+03</pdfrwt>
<totfact> 0.13768432E+03</totfact>
</mgrwt>
</event>
<event>
 5    1  0.3277540E-002  0.1249986E+03  0.7818608E-02  0.1235071E+00
         -4   -1    0    0    0  501 -0.00000000000E+00  0.00000000000E+00  0.10804388545E+02  0.10878773453E+02  0.12700000000E+01 0.  1.
          4   -1    0    0  501    0  0.00000000000E+00 -0.00000000000E+00 -0.36021928663E+03  0.36022152540E+03  0.12700000000E+01 0.  1.
         25    2    1    2    0    0  0.00000000000E+00  0.00000000000E+00 -0.34941489809E+03  0.37110029885E+03  0.12499864321E+03 0.  0.
    9000005    1    3    3    0    0  0.46023973346E+02 -0.23002499124E+02 -0.69414469406E+02  0.86410008977E+02  0.10000000000E+01 0.  0.
    9000005    1    3    3    0    0 -0.46023973346E+02  0.23002499124E+02 -0.28000042868E+03  0.28469028988E+03  0.10000000000E+01 0.  0.
<mgrwt>
<rscale>  0 0.12499864E+03</rscale>
<asrwt>0</asrwt>
<pdfrwt beam="2">  1        4 0.55424237E-01 0.12499864E+03</pdfrwt>
<pdfrwt beam="1">  1       -4 0.16681080E-02 0.12499864E+03</pdfrwt>
<totfact> 0.67466010E+03</totfact>
</mgrwt>
</event>
<event>
 5    1  0.3277540E-002  0.1250030E+03  0.7818608E-02  0.1235065E+00
         -4   -1    0    0    0  501 -0.00000000000E+00  0.00000000000E+00  0.97754328564E+03  0.97754411061E+03  0.12700000000E+01 0. -1.
          4   -1    0    0  501    0  0.00000000000E+00 -0.00000000000E+00 -0.38944259338E+01  0.40962731054E+01  0.12700000000E+01 0. -1.
         25    2    1    2    0    0  0.00000000000E+00  0.00000000000E+00  0.97364885970E+03  0.98164038372E+03  0.12500296375E+03 0.  0.
    9000005    1    3    3    0    0  0.81129053278E+01 -0.19356364385E+02  0.94907814965E+03  0.94931070900E+03  0.10000000000E+01 0.  0.
    9000005    1    3    3    0    0 -0.81129053278E+01  0.19356364385E+02  0.24570710056E+02  0.32329674723E+02  0.10000000000E+01 0.  0.
<mgrwt>
<rscale>  0 0.12500296E+03</rscale>
<asrwt>0</asrwt>
<pdfrwt beam="2">  1        4 0.61473262E-03 0.12500296E+03</pdfrwt>
<pdfrwt beam="1">  1       -4 0.15040686E+00 0.12500296E+03</pdfrwt>
<totfact> 0.31216548E+03</totfact>
</mgrwt>
</event>
<event>
 5    1  0.3277540E-002  0.1250063E+03  0.7818608E-02  0.1235059E+00
          4   -1    0    0  501    0  0.00000000000E+00  0.00000000000E+00  0.13733129983E+03  0.13733717200E+03  0.12700000000E+01 0. -1.
         -4   -1    0    0    0  501 -0.00000000000E+00 -0.00000000000E+00 -0.28426211151E+02  0.28454566951E+02  0.12700000000E+01 0. -1.
         25    2    1    2    0    0  0.00000000000E+00  0.00000000000E+00  0.10890508867E+03  0.16579173895E+03  0.12500632930E+03 0.  0.
    9000005    1    3    3    0    0 -0.21231034887E+01  0.53573187173E+02  0.11866128300E+02  0.54921753005E+02  0.10000000000E+01 0.  0.
    9000005    1    3    3    0    0  0.21231034887E+01 -0.53573187173E+02  0.97038960374E+02  0.11086998594E+03  0.10000000000E+01 0.  0.
<mgrwt>
<rscale>  0 0.12500633E+03</rscale>
<asrwt>0</asrwt>
<pdfrwt beam="1">  1        4 0.21130525E-01 0.12500633E+03</pdfrwt>
<pdfrwt beam="2">  1       -4 0.43758963E-02 0.12500633E+03</pdfrwt>
<totfact> 0.96223978E+03</totfact>
</mgrwt>
</event>
<event>
 5    1  0.3277540E-002  0.1250064E+03  0.7818608E-02  0.1235059E+00
          4   -1    0    0  501    0  0.00000000000E+00  0.00000000000E+00  0.15329762944E+02  0.15382279802E+02  0.12700000000E+01 0. -1.
         -4   -1    0    0    0  501 -0.00000000000E+00 -0.00000000000E+00 -0.25435095088E+03  0.25435412148E+03  0.12700000000E+01 0. -1.
         25    2    1    2    0    0  0.00000000000E+00  0.00000000000E+00 -0.23902118794E+03  0.26973640129E+03  0.12500639141E+03 0.  0.
    9000005    1    3    3    0    0  0.11194597519E+02  0.61467654762E+02 -0.11641519124E+03  0.13212527520E+03  0.10000000000E+01 0.  0.
    9000005    1    3    3    0    0 -0.11194597519E+02 -0.61467654762E+02 -0.12260599670E+03  0.13761112609E+03  0.10000000000E+01 0.  0.
<mgrwt>
<rscale>  0 0.12500639E+03</rscale>
<asrwt>0</asrwt>
<pdfrwt beam="1">  1        4 0.23627089E-02 0.12500639E+03</pdfrwt>
<pdfrwt beam="2">  1       -4 0.39135196E-01 0.12500639E+03</pdfrwt>
<totfact> 0.79547510E+03</totfact>
</mgrwt>
</event>
<event>
 5    1  0.3277540E-002  0.1249988E+03  0.7818608E-02  0.1235071E+00
         -4   -1    0    0    0  501 -0.00000000000E+00  0.00000000000E+00  0.46817238821E+02  0.46834461146E+02  0.12700000000E+01 0.  1.
          4   -1    0    0  501    0  0.00000000000E+00 -0.00000000000E+00 -0.83397089091E+02  0.83406758532E+02  0.12700000000E+01 0.  1.
         25    2    1    2    0    0  0.00000000000E+00  0.00000000000E+00 -0.36579850270E+02  0.13024121968E+03  0.12499875942E+03 0.  0.
    9000005    1    3    3    0    0 -0.53156325888E+02 -0.32765878522E+02 -0.15743092904E+02  0.64405300647E+02  0.10000000000E+01 0.  0.
    9000005    1    3    3    0    0  0.53156325888E+02  0.32765878522E+02 -0.20836757366E+02  0.65835919032E+02  0.10000000000E+01 0.  0.
<mgrwt>
<rscale>  0 0.12499876E+03</rscale>
<asrwt>0</asrwt>
<pdfrwt beam="2">  1        4 0.12832390E-01 0.12499876E+03</pdfrwt>
<pdfrwt beam="1">  1       -4 0.72047207E-02 0.12499876E+03</pdfrwt>
<totfact> 0.10339640E+04</totfact>
</mgrwt>
</event>
<event>
 5    1  0.3277540E-002  0.1249995E+03  0.7818608E-02  0.1235070E+00
          4   -1    0    0  501    0  0.00000000000E+00  0.00000000000E+00  0.24546502601E+02  0.24579334611E+02  0.12700000000E+01 0.  1.
         -4   -1    0    0    0  501 -0.00000000000E+00 -0.00000000000E+00 -0.15899376157E+03  0.15899883370E+03  0.12700000000E+01 0.  1.
         25    2    1    2    0    0  0.00000000000E+00  0.00000000000E+00 -0.13444725897E+03  0.18357816831E+03  0.12499951374E+03 0.  0.
    9000005    1    3    3    0    0  0.25119918686E+01  0.14815825110E+02  0.21860688576E+02  0.26546345923E+02  0.10000000000E+01 0.  0.
    9000005    1    3    3    0    0 -0.25119918686E+01 -0.14815825110E+02 -0.15630794754E+03  0.15703182239E+03  0.10000000000E+01 0.  0.
<mgrwt>
<rscale>  0 0.12499951E+03</rscale>
<asrwt>0</asrwt>
<pdfrwt beam="1">  1        4 0.37793008E-02 0.12499951E+03</pdfrwt>
<pdfrwt beam="2">  1       -4 0.24463494E-01 0.12499951E+03</pdfrwt>
<totfact> 0.92977871E+03</totfact>
</mgrwt>
</event>
<event>
 5    1  0.3277540E-002  0.1249995E+03  0.7818608E-02  0.1235070E+00
          4   -1    0    0  501    0  0.00000000000E+00  0.00000000000E+00  0.64170173537E+02  0.64182739671E+02  0.12700000000E+01 0.  1.
         -4   -1    0    0    0  501 -0.00000000000E+00 -0.00000000000E+00 -0.60847643605E+02  0.60860895756E+02  0.12700000000E+01 0.  1.
         25    2    1    2    0    0  0.00000000000E+00  0.00000000000E+00  0.33225299315E+01  0.12504363543E+03  0.12499948622E+03 0.  0.
    9000005    1    3    3    0    0 -0.52090967583E+02  0.24819360251E+02  0.25664496348E+02  0.63159606710E+02  0.10000000000E+01 0.  0.
    9000005    1    3    3    0    0  0.52090967583E+02 -0.24819360251E+02 -0.22341966416E+02  0.61884028718E+02  0.10000000000E+01 0.  0.
<mgrwt>
<rscale>  0 0.12499949E+03</rscale>
<asrwt>0</asrwt>
<pdfrwt beam="1">  1        4 0.98743204E-02 0.12499949E+03</pdfrwt>
<pdfrwt beam="2">  1       -4 0.93631620E-02 0.12499949E+03</pdfrwt>
<totfact> 0.10452036E+04</totfact>
</mgrwt>
</event>
<event>
 5    1  0.3277540E-002  0.1250002E+03  0.7818608E-02  0.1235069E+00
         -4   -1    0    0    0  501 -0.00000000000E+00  0.00000000000E+00  0.94447426899E+01  0.95297462967E+01  0.12700000000E+01 0. -1.
          4   -1    0    0  501    0  0.00000000000E+00 -0.00000000000E+00 -0.41165240437E+03  0.41165436342E+03  0.12700000000E+01 0. -1.
         25    2    1    2    0    0  0.00000000000E+00  0.00000000000E+00 -0.40220766168E+03  0.42118410972E+03  0.12500020466E+03 0.  0.
    9000005    1    3    3    0    0  0.31329994517E+01 -0.62111538672E+02 -0.22176607654E+03  0.23032336318E+03  0.10000000000E+01 0.  0.
    9000005    1    3    3    0    0 -0.31329994517E+01  0.62111538672E+02 -0.18044158514E+03  0.19086074654E+03  0.10000000000E+01 0.  0.
<mgrwt>
<rscale>  0 0.12500020E+03</rscale>
<asrwt>0</asrwt>
<pdfrwt beam="2">  1        4 0.63337815E-01 0.12500020E+03</pdfrwt>
<pdfrwt beam="1">  1       -4 0.14597271E-02 0.12500020E+03</pdfrwt>
<totfact> 0.62543033E+03</totfact>
</mgrwt>
</event>
<event>
 5    1  0.3277540E-002  0.1249967E+03  0.7818608E-02  0.1235074E+00
         -4   -1    0    0    0  501 -0.00000000000E+00  0.00000000000E+00  0.73509567284E+01  0.74598568903E+01  0.12700000000E+01 0.  1.
          4   -1    0    0  501    0  0.00000000000E+00 -0.00000000000E+00 -0.52734906407E+03  0.52735059332E+03  0.12700000000E+01 0.  1.
         25    2    1    2    0    0  0.00000000000E+00  0.00000000000E+00 -0.51999810734E+03  0.53481045021E+03  0.12499674402E+03 0.  0.
    9000005    1    3    3    0    0  0.31882796762E+02 -0.53030388208E+02 -0.29737539195E+03  0.30374637206E+03  0.10000000000E+01 0.  0.
    9000005    1    3    3    0    0 -0.31882796762E+02  0.53030388208E+02 -0.22262271539E+03  0.23106407815E+03  0.10000000000E+01 0.  0.
<mgrwt>
<rscale>  0 0.12499674E+03</rscale>
<asrwt>0</asrwt>
<pdfrwt beam="2">  1        4 0.81139090E-01 0.12499674E+03</pdfrwt>
<pdfrwt beam="1">  1       -4 0.11394114E-02 0.12499674E+03</pdfrwt>
<totfact> 0.53264986E+03</totfact>
</mgrwt>
</event>
<event>
 5    1  0.3277540E-002  0.1250014E+03  0.7818608E-02  0.1235067E+00
         -4   -1    0    0    0  501 -0.00000000000E+00  0.00000000000E+00  0.30149844016E+03  0.30150111496E+03  0.12700000000E+01 0.  1.
          4   -1    0    0  501    0  0.00000000000E+00 -0.00000000000E+00 -0.12922547617E+02  0.12984804077E+02  0.12700000000E+01 0.  1.
         25    2    1    2    0    0  0.00000000000E+00  0.00000000000E+00  0.28857589255E+03  0.31448591903E+03  0.12500139004E+03 0.  0.
    9000005    1    3    3    0    0  0.45464631969E+02 -0.20066409550E+02  0.48962325855E+02  0.69771074991E+02  0.10000000000E+01 0.  0.
    9000005    1    3    3    0    0 -0.45464631969E+02  0.20066409550E+02  0.23961356669E+03  0.24471484404E+03  0.10000000000E+01 0.  0.
<mgrwt>
<rscale>  0 0.12500139E+03</rscale>
<asrwt>0</asrwt>
<pdfrwt beam="2">  1        4 0.19930791E-02 0.12500139E+03</pdfrwt>
<pdfrwt beam="1">  1       -4 0.46389367E-01 0.12500139E+03</pdfrwt>
<totfact> 0.73814512E+03</totfact>
</mgrwt>
</event>
<event>
 5    1  0.3277540E-002  0.1249943E+03  0.7818608E-02  0.1235078E+00
         -4   -1    0    0    0  501 -0.00000000000E+00  0.00000000000E+00  0.14295630104E+02  0.14351931579E+02  0.12700000000E+01 0. -1.
          4   -1    0    0  501    0  0.00000000000E+00 -0.00000000000E+00 -0.27262799071E+03  0.27263094876E+03  0.12700000000E+01 0. -1.
         25    2    1    2    0    0  0.00000000000E+00  0.00000000000E+00 -0.25833236061E+03  0.28698288034E+03  0.12499426014E+03 0.  0.
    9000005    1    3    3    0    0 -0.53168771941E+02 -0.21959088628E+02 -0.73125197942E+02  0.93045228019E+02  0.10000000000E+01 0.  0.
    9000005    1    3    3    0    0  0.53168771941E+02  0.21959088628E+02 -0.18520716267E+03  0.19393765232E+03  0.10000000000E+01 0.  0.
<mgrwt>
<rscale>  0 0.12499426E+03</rscale>
<asrwt>0</asrwt>
<pdfrwt beam="2">  1        4 0.41947322E-01 0.12499426E+03</pdfrwt>
<pdfrwt beam="1">  1       -4 0.22038863E-02 0.12499426E+03</pdfrwt>
<totfact> 0.77271099E+03</totfact>
</mgrwt>
</event>
<event>
 5    1  0.3277540E-002  0.1249780E+03  0.7818608E-02  0.1235104E+00
          4   -1    0    0  501    0  0.00000000000E+00  0.00000000000E+00  0.13591687903E+03  0.13592281231E+03  0.12700000000E+01 0. -1.
         -4   -1    0    0    0  501 -0.00000000000E+00 -0.00000000000E+00 -0.28709275864E+02  0.28737352360E+02  0.12700000000E+01 0. -1.
         25    2    1    2    0    0  0.00000000000E+00  0.00000000000E+00  0.10720760317E+03  0.16466016467E+03  0.12497799667E+03 0.  0.
    9000005    1    3    3    0    0 -0.56962910482E+02  0.24653755300E+02  0.63039817373E+02  0.88473721497E+02  0.10000000000E+01 0.  0.
    9000005    1    3    3    0    0  0.56962910482E+02 -0.24653755300E+02  0.44167785792E+02  0.76186443169E+02  0.10000000000E+01 0.  0.
<mgrwt>
<rscale>  0 0.12497800E+03</rscale>
<asrwt>0</asrwt>
<pdfrwt beam="1">  1        4 0.20912905E-01 0.12497800E+03</pdfrwt>
<pdfrwt beam="2">  1       -4 0.44194278E-02 0.12497800E+03</pdfrwt>
<totfact> 0.96499484E+03</totfact>
</mgrwt>
</event>
<event>
 5    1  0.3277540E-002  0.1250014E+03  0.7818608E-02  0.1235067E+00
          4   -1    0    0  501    0  0.00000000000E+00  0.00000000000E+00  0.13228131487E+02  0.13288956416E+02  0.12700000000E+01 0. -1.
         -4   -1    0    0    0  501 -0.00000000000E+00 -0.00000000000E+00 -0.29456593066E+03  0.29456866840E+03  0.12700000000E+01 0. -1.
         25    2    1    2    0    0  0.00000000000E+00  0.00000000000E+00 -0.28133779917E+03  0.30785762482E+03  0.12500143966E+03 0.  0.
    9000005    1    3    3    0    0  0.40902045994E+02  0.47231318479E+02 -0.14375006689E+03  0.15674455826E+03  0.10000000000E+01 0.  0.
    9000005    1    3    3    0    0 -0.40902045994E+02 -0.47231318479E+02 -0.13758773228E+03  0.15111306656E+03  0.10000000000E+01 0.  0.
<mgrwt>
<rscale>  0 0.12500144E+03</rscale>
<asrwt>0</asrwt>
<pdfrwt beam="1">  1        4 0.20399868E-02 0.12500144E+03</pdfrwt>
<pdfrwt beam="2">  1       -4 0.45322720E-01 0.12500144E+03</pdfrwt>
<totfact> 0.74621265E+03</totfact>
</mgrwt>
</event>
<event>
 5    1  0.3277540E-002  0.1249987E+03  0.7818608E-02  0.1235071E+00
          4   -1    0    0  501    0  0.00000000000E+00  0.00000000000E+00  0.18024764659E+02  0.18069450491E+02  0.12700000000E+01 0. -1.
         -4   -1    0    0    0  501 -0.00000000000E+00 -0.00000000000E+00 -0.21639625845E+03  0.21639998514E+03  0.12700000000E+01 0. -1.
         25    2    1    2    0    0  0.00000000000E+00  0.00000000000E+00 -0.19837149379E+03  0.23446943563E+03  0.12499866679E+03 0.  0.
    9000005    1    3    3    0    0  0.37240597001E+02  0.25954206204E+02 -0.17974989569E+03  0.18539554440E+03  0.10000000000E+01 0.  0.
    9000005    1    3    3    0    0 -0.37240597001E+02 -0.25954206204E+02 -0.18621598099E+02  0.49073891230E+02  0.10000000000E+01 0.  0.
<mgrwt>
<rscale>  0 0.12499867E+03</rscale>
<asrwt>0</asrwt>
<pdfrwt beam="1">  1        4 0.27767649E-02 0.12499867E+03</pdfrwt>
<pdfrwt beam="2">  1       -4 0.33295454E-01 0.12499867E+03</pdfrwt>
<totfact> 0.84630520E+03</totfact>
</mgrwt>
</event>
<event>
 5    1  0.3277540E-002  0.1250179E+03  0.7818608E-02  0.1235041E+00
          4   -1    0    0  501    0  0.00000000000E+00  0.00000000000E+00  0.61942650711E+02  0.61955668644E+02  0.12700000000E+01 0.  1.
         -4   -1    0    0    0  501 -0.00000000000E+00 -0.00000000000E+00 -0.63054403008E+02  0.63067191460E+02  0.12700000000E+01 0.  1.
         25    2    1    2    0    0  0.00000000000E+00  0.00000000000E+00 -0.11117522963E+01  0.12502286010E+03  0.12501791694E+03 0.  0.
    9000005    1    3    3    0    0  0.57478411784E+01  0.91671678366E+01  0.61003809567E+02  0.61964017188E+02  0.10000000000E+01 0.  0.
    9000005    1    3    3    0    0 -0.57478411784E+01 -0.91671678366E+01 -0.62115561864E+02  0.63058842917E+02  0.10000000000E+01 0.  0.
<mgrwt>
<rscale>  0 0.12501792E+03</rscale>
<asrwt>0</asrwt>
<pdfrwt beam="1">  1        4 0.95316236E-02 0.12501792E+03</pdfrwt>
<pdfrwt beam="2">  1       -4 0.97026625E-02 0.12501792E+03</pdfrwt>
<totfact> 0.10448135E+04</totfact>
</mgrwt>
</event>
<event>
 5    1  0.3277540E-002  0.1250000E+03  0.7818608E-02  0.1235069E+00
         -4   -1    0    0    0  501 -0.00000000000E+00  0.00000000000E+00  0.16225290727E+02  0.16274918101E+02  0.12700000000E+01 0. -1.
          4   -1    0    0  501    0  0.00000000000E+00 -0.00000000000E+00 -0.24033183656E+03  0.24033519210E+03  0.12700000000E+01 0. -1.
         25    2    1    2    0    0  0.00000000000E+00  0.00000000000E+00 -0.22410654583E+03  0.25661011020E+03  0.12500001910E+03 0.  0.
    9000005    1    3    3    0    0  0.17227376379E+02  0.25288681512E+02 -0.19574434639E+00  0.30615979902E+02  0.10000000000E+01 0.  0.
    9000005    1    3    3    0    0 -0.17227376379E+02 -0.25288681512E+02 -0.22391080148E+03  0.22599413030E+03  0.10000000000E+01 0.  0.
<mgrwt>
<rscale>  0 0.12500002E+03</rscale>
<asrwt>0</asrwt>
<pdfrwt beam="2">  1        4 0.36978202E-01 0.12500002E+03</pdfrwt>
<pdfrwt beam="1">  1       -4 0.25002744E-02 0.12500002E+03</pdfrwt>
<totfact> 0.81384116E+03</totfact>
</mgrwt>
</event>
<event>
 5    1  0.3277540E-002  0.1250046E+03  0.7818608E-02  0.1235062E+00
         -4   -1    0    0    0  501 -0.00000000000E+00  0.00000000000E+00  0.88172197473E+03  0.88172288936E+03  0.12700000000E+01 0.  1.
          4   -1    0    0  501    0  0.00000000000E+00 -0.00000000000E+00 -0.43386314183E+01  0.45206882865E+01  0.12700000000E+01 0.  1.
         25    2    1    2    0    0  0.00000000000E+00  0.00000000000E+00  0.87738334331E+03  0.88624357765E+03  0.12500459111E+03 0.  0.
    9000005    1    3    3    0    0 -0.37648660172E+02  0.62629545626E+01  0.87849458938E+02  0.95787126736E+02  0.10000000000E+01 0.  0.
    9000005    1    3    3    0    0  0.37648660172E+02 -0.62629545626E+01  0.78953388438E+03  0.79045645091E+03  0.10000000000E+01 0.  0.
<mgrwt>
<rscale>  0 0.12500459E+03</rscale>
<asrwt>0</asrwt>
<pdfrwt beam="2">  1        4 0.68155683E-03 0.12500459E+03</pdfrwt>
<pdfrwt beam="1">  1       -4 0.13566354E+00 0.12500459E+03</pdfrwt>
<totfact> 0.34684845E+03</totfact>
</mgrwt>
</event>
<event>
 5    1  0.3277540E-002  0.1249966E+03  0.7818608E-02  0.1235075E+00
          4   -1    0    0  501    0  0.00000000000E+00  0.00000000000E+00  0.20602110250E+01  0.24202002949E+01  0.12700000000E+01 0.  1.
         -4   -1    0    0    0  501 -0.00000000000E+00 -0.00000000000E+00 -0.17432455716E+04  0.17432460342E+04  0.12700000000E+01 0.  1.
         25    2    1    2    0    0  0.00000000000E+00  0.00000000000E+00 -0.17411853605E+04  0.17456662345E+04  0.12499656965E+03 0.  0.
    9000005    1    3    3    0    0  0.18675159312E+02  0.15547036740E+02 -0.16746301730E+04  0.16748067614E+04  0.10000000000E+01 0.  0.
    9000005    1    3    3    0    0 -0.18675159312E+02 -0.15547036740E+02 -0.66555187550E+02  0.70859473019E+02  0.10000000000E+01 0.  0.
<mgrwt>
<rscale>  0 0.12499657E+03</rscale>
<asrwt>0</asrwt>
<pdfrwt beam="1">  1        4 0.34468400E-03 0.12499657E+03</pdfrwt>
<pdfrwt beam="2">  1       -4 0.26821827E+00 0.12499657E+03</pdfrwt>
<totfact> 0.13560579E+03</totfact>
</mgrwt>
</event>
<event>
 5    1  0.3277540E-002  0.1249824E+03  0.7818608E-02  0.1235097E+00
          4   -1    0    0  501    0  0.00000000000E+00  0.00000000000E+00  0.15323322425E+02  0.15375861281E+02  0.12700000000E+01 0.  1.
         -4   -1    0    0    0  501 -0.00000000000E+00 -0.00000000000E+00 -0.25435971464E+03  0.25436288513E+03  0.12700000000E+01 0.  1.
         25    2    1    2    0    0  0.00000000000E+00  0.00000000000E+00 -0.23903639222E+03  0.26973874641E+03  0.12498237681E+03 0.  0.
    9000005    1    3    3    0    0 -0.99999293640E+01  0.53695761554E+02 -0.54023763593E+02  0.76829684556E+02  0.10000000000E+01 0.  0.
    9000005    1    3    3    0    0  0.99999293640E+01 -0.53695761554E+02 -0.18501262862E+03  0.19290906186E+03  0.10000000000E+01 0.  0.
<mgrwt>
<rscale>  0 0.12498238E+03</rscale>
<asrwt>0</asrwt>
<pdfrwt beam="1">  1        4 0.23617197E-02 0.12498238E+03</pdfrwt>
<pdfrwt beam="2">  1       -4 0.39136546E-01 0.12498238E+03</pdfrwt>
<totfact> 0.79589696E+03</totfact>
</mgrwt>
</event>
<event>
 5    1  0.3277540E-002  0.1249959E+03  0.7818608E-02  0.1235076E+00
          4   -1    0    0  501    0  0.00000000000E+00  0.00000000000E+00  0.41828137889E+02  0.41847413532E+02  0.12700000000E+01 0. -1.
         -4   -1    0    0    0  501 -0.00000000000E+00 -0.00000000000E+00 -0.93336863555E+02  0.93345503364E+02  0.12700000000E+01 0. -1.
         25    2    1    2    0    0  0.00000000000E+00  0.00000000000E+00 -0.51508725665E+02  0.13519291690E+03  0.12499590377E+03 0.  0.
    9000005    1    3    3    0    0  0.45126260411E+02 -0.40634137554E+02 -0.41704678909E+02  0.73673555339E+02  0.10000000000E+01 0.  0.
    9000005    1    3    3    0    0 -0.45126260411E+02  0.40634137554E+02 -0.98040467565E+01  0.61519361556E+02  0.10000000000E+01 0.  0.
<mgrwt>
<rscale>  0 0.12499590E+03</rscale>
<asrwt>0</asrwt>
<pdfrwt beam="1">  1        4 0.64372455E-02 0.12499590E+03</pdfrwt>
<pdfrwt beam="2">  1       -4 0.14361665E-01 0.12499590E+03</pdfrwt>
<totfact> 0.10234952E+04</totfact>
</mgrwt>
</event>
<event>
 5    1  0.3277540E-002  0.1249998E+03  0.7818608E-02  0.1235070E+00
          4   -1    0    0  501    0  0.00000000000E+00  0.00000000000E+00  0.56408454066E+03  0.56408597031E+03  0.12700000000E+01 0.  1.
         -4   -1    0    0    0  501 -0.00000000000E+00 -0.00000000000E+00 -0.68652350229E+01  0.69817155427E+01  0.12700000000E+01 0.  1.
         25    2    1    2    0    0  0.00000000000E+00  0.00000000000E+00  0.55721930563E+03  0.57106768586E+03  0.12499978905E+03 0.  0.
    9000005    1    3    3    0    0  0.34526337206E+02 -0.48927945458E+02  0.19698398281E+03  0.20588759383E+03  0.10000000000E+01 0.  0.
    9000005    1    3    3    0    0 -0.34526337206E+02  0.48927945458E+02  0.36023532282E+03  0.36518009203E+03  0.10000000000E+01 0.  0.
<mgrwt>
<rscale>  0 0.12499979E+03</rscale>
<asrwt>0</asrwt>
<pdfrwt beam="1">  1        4 0.86791351E-01 0.12499979E+03</pdfrwt>
<pdfrwt beam="2">  1       -4 0.10652595E-02 0.12499979E+03</pdfrwt>
<totfact> 0.50746573E+03</totfact>
</mgrwt>
</event>
<event>
 5    1  0.3277540E-002  0.1250001E+03  0.7818608E-02  0.1235069E+00
          4   -1    0    0  501    0  0.00000000000E+00  0.00000000000E+00  0.64612691190E+03  0.64612816003E+03  0.12700000000E+01 0.  1.
         -4   -1    0    0    0  501 -0.00000000000E+00 -0.00000000000E+00 -0.59776823584E+01  0.61111035319E+01  0.12700000000E+01 0.  1.
         25    2    1    2    0    0  0.00000000000E+00  0.00000000000E+00  0.64014922955E+03  0.65223926356E+03  0.12500008339E+03 0.  0.
    9000005    1    3    3    0    0 -0.12844187791E+02 -0.59736005728E+02  0.38848531780E+03  0.39326226069E+03  0.10000000000E+01 0.  0.
    9000005    1    3    3    0    0  0.12844187791E+02  0.59736005728E+02  0.25166391175E+03  0.25897700287E+03  0.10000000000E+01 0.  0.
<mgrwt>
<rscale>  0 0.12500008E+03</rscale>
<asrwt>0</asrwt>
<pdfrwt beam="1">  1        4 0.99414417E-01 0.12500008E+03</pdfrwt>
<pdfrwt beam="2">  1       -4 0.93000338E-03 0.12500008E+03</pdfrwt>
<totfact> 0.45727594E+03</totfact>
</mgrwt>
</event>
<event>
 5    1  0.3277540E-002  0.1249989E+03  0.7818608E-02  0.1235071E+00
          4   -1    0    0  501    0  0.00000000000E+00  0.00000000000E+00  0.20217105947E+03  0.20217504838E+03  0.12700000000E+01 0. -1.
         -4   -1    0    0    0  501 -0.00000000000E+00 -0.00000000000E+00 -0.19296129569E+02  0.19337877762E+02  0.12700000000E+01 0. -1.
         25    2    1    2    0    0  0.00000000000E+00  0.00000000000E+00  0.18287492990E+03  0.22151292614E+03  0.12499894584E+03 0.  0.
    9000005    1    3    3    0    0 -0.45565168522E+02  0.26011782877E+01  0.16708499028E+03  0.17320896249E+03  0.10000000000E+01 0.  0.
    9000005    1    3    3    0    0  0.45565168522E+02 -0.26011782877E+01  0.15789939622E+02  0.48303963649E+02  0.10000000000E+01 0.  0.
<mgrwt>
<rscale>  0 0.12499895E+03</rscale>
<asrwt>0</asrwt>
<pdfrwt beam="1">  1        4 0.31106758E-01 0.12499895E+03</pdfrwt>
<pdfrwt beam="2">  1       -4 0.29721536E-02 0.12499895E+03</pdfrwt>
<totfact> 0.86631553E+03</totfact>
</mgrwt>
</event>
<event>
 5    1  0.3277540E-002  0.1249994E+03  0.7818608E-02  0.1235070E+00
          4   -1    0    0  501    0  0.00000000000E+00  0.00000000000E+00  0.14430526786E+02  0.14486303991E+02  0.12700000000E+01 0. -1.
         -4   -1    0    0    0  501 -0.00000000000E+00 -0.00000000000E+00 -0.27011162794E+03  0.27011461354E+03  0.12700000000E+01 0. -1.
         25    2    1    2    0    0  0.00000000000E+00  0.00000000000E+00 -0.25568110115E+03  0.28460091753E+03  0.12499942709E+03 0.  0.
    9000005    1    3    3    0    0  0.15833223841E+02  0.60411920565E+02 -0.12278874930E+03  0.13776199794E+03  0.10000000000E+01 0.  0.
    9000005    1    3    3    0    0 -0.15833223841E+02 -0.60411920565E+02 -0.13289235186E+03  0.14683891959E+03  0.10000000000E+01 0.  0.
<mgrwt>
<rscale>  0 0.12499943E+03</rscale>
<asrwt>0</asrwt>
<pdfrwt beam="1">  1        4 0.22246015E-02 0.12499943E+03</pdfrwt>
<pdfrwt beam="2">  1       -4 0.41560152E-01 0.12499943E+03</pdfrwt>
<totfact> 0.77572975E+03</totfact>
</mgrwt>
</event>
<event>
 5    1  0.3277540E-002  0.1250007E+03  0.7818608E-02  0.1235068E+00
          4   -1    0    0  501    0  0.00000000000E+00  0.00000000000E+00  0.14883150490E+02  0.14937237646E+02  0.12700000000E+01 0. -1.
         -4   -1    0    0    0  501 -0.00000000000E+00 -0.00000000000E+00 -0.26193243056E+03  0.26193550939E+03  0.12700000000E+01 0. -1.
         25    2    1    2    0    0  0.00000000000E+00  0.00000000000E+00 -0.24704928007E+03  0.27687274703E+03  0.12500068507E+03 0.  0.
    9000005    1    3    3    0    0 -0.59055941056E+02 -0.17454806615E+02 -0.99977274039E+02  0.11742542217E+03  0.10000000000E+01 0.  0.
    9000005    1    3    3    0    0  0.59055941056E+02  0.17454806615E+02 -0.14707200603E+03  0.15944732486E+03  0.10000000000E+01 0.  0.
<mgrwt>
<rscale>  0 0.12500069E+03</rscale>
<asrwt>0</asrwt>
<pdfrwt beam="1">  1        4 0.22941130E-02 0.12500069E+03</pdfrwt>
<pdfrwt beam="2">  1       -4 0.40301691E-01 0.12500069E+03</pdfrwt>
<totfact> 0.78593396E+03</totfact>
</mgrwt>
</event>
<event>
 5    1  0.3277540E-002  0.1249999E+03  0.7818608E-02  0.1235070E+00
          4   -1    0    0  501    0  0.00000000000E+00  0.00000000000E+00  0.32396071343E+02  0.32420955237E+02  0.12700000000E+01 0. -1.
         -4   -1    0    0    0  501 -0.00000000000E+00 -0.00000000000E+00 -0.12050308099E+03  0.12050977316E+03  0.12700000000E+01 0. -1.
         25    2    1    2    0    0  0.00000000000E+00  0.00000000000E+00 -0.88107009647E+02  0.15293072840E+03  0.12499985016E+03 0.  0.
    9000005    1    3    3    0    0 -0.50280134996E+02  0.20724322907E+02 -0.81716035649E+02  0.98163638978E+02  0.10000000000E+01 0.  0.
    9000005    1    3    3    0    0  0.50280134996E+02 -0.20724322907E+02 -0.63909739977E+01  0.54767089423E+02  0.10000000000E+01 0.  0.
<mgrwt>
<rscale>  0 0.12499985E+03</rscale>
<asrwt>0</asrwt>
<pdfrwt beam="1">  1        4 0.49864400E-02 0.12499985E+03</pdfrwt>
<pdfrwt beam="2">  1       -4 0.18541364E-01 0.12499985E+03</pdfrwt>
<totfact> 0.98723010E+03</totfact>
</mgrwt>
</event>
<event>
 5    1  0.3277540E-002  0.1249992E+03  0.7818608E-02  0.1235070E+00
         -4   -1    0    0    0  501 -0.00000000000E+00  0.00000000000E+00  0.20088528502E+02  0.20128633271E+02  0.12700000000E+01 0.  1.
          4   -1    0    0  501    0  0.00000000000E+00 -0.00000000000E+00 -0.19421326953E+03  0.19421742188E+03  0.12700000000E+01 0.  1.
         25    2    1    2    0    0  0.00000000000E+00  0.00000000000E+00 -0.17412474103E+03  0.21434605515E+03  0.12499922368E+03 0.  0.
    9000005    1    3    3    0    0 -0.22819155715E+02  0.41185996171E+02 -0.15751874612E+03  0.16440850200E+03  0.10000000000E+01 0.  0.
    9000005    1    3    3    0    0  0.22819155715E+02 -0.41185996171E+02 -0.16605994903E+02  0.49937553152E+02  0.10000000000E+01 0.  0.
<mgrwt>
<rscale>  0 0.12499922E+03</rscale>
<asrwt>0</asrwt>
<pdfrwt beam="2">  1        4 0.29882368E-01 0.12499922E+03</pdfrwt>
<pdfrwt beam="1">  1       -4 0.30939474E-02 0.12499922E+03</pdfrwt>
<totfact> 0.87772519E+03</totfact>
</mgrwt>
</event>
<event>
 4    1  0.3277540E-002  0.1259766E+03  0.7818608E-02  0.1233551E+00
          4   -1    0    0  501    0  0.00000000000E+00  0.00000000000E+00  0.23019756626E+02  0.23054762959E+02  0.12700000000E+01 0.  1.
         -4   -1    0    0    0  501 -0.00000000000E+00 -0.00000000000E+00 -0.17218472550E+03  0.17218940907E+03  0.12700000000E+01 0.  1.
    9000005    1    1    2    0    0 -0.52299572361E+02 -0.33413777263E+02 -0.91188183075E+02  0.11030870552E+03  0.10000000000E+01 0.  0.
    9000005    1    1    2    0    0  0.52299572361E+02  0.33413777263E+02 -0.57976785802E+02  0.84935466515E+02  0.10000000000E+01 0.  0.
<mgrwt>
<rscale>  0 0.12597658E+03</rscale>
<asrwt>0</asrwt>
<pdfrwt beam="1">  1        4 0.35445542E-02 0.12597658E+03</pdfrwt>
<pdfrwt beam="2">  1       -4 0.26493010E-01 0.12597658E+03</pdfrwt>
<totfact> 0.88982629E+03</totfact>
</mgrwt>
</event>
<event>
 5    1  0.3277540E-002  0.1250482E+03  0.7818608E-02  0.1234994E+00
         -4   -1    0    0    0  501 -0.00000000000E+00  0.00000000000E+00  0.24997448712E+03  0.24997771323E+03  0.12700000000E+01 0.  1.
          4   -1    0    0  501    0  0.00000000000E+00 -0.00000000000E+00 -0.15609528684E+02  0.15661107423E+02  0.12700000000E+01 0.  1.
         25    2    1    2    0    0  0.00000000000E+00  0.00000000000E+00  0.23436495844E+03  0.26563882065E+03  0.12504818789E+03 0.  0.
    9000005    1    3    3    0    0  0.30933459716E+01 -0.39969393879E+02  0.15279762064E+02  0.42913778266E+02  0.10000000000E+01 0.  0.
    9000005    1    3    3    0    0 -0.30933459716E+01  0.39969393879E+02  0.21908519637E+03  0.22272504239E+03  0.10000000000E+01 0.  0.
<mgrwt>
<rscale>  0 0.12504819E+03</rscale>
<asrwt>0</asrwt>
<pdfrwt beam="2">  1        4 0.24056817E-02 0.12504819E+03</pdfrwt>
<pdfrwt beam="1">  1       -4 0.38461829E-01 0.12504819E+03</pdfrwt>
<totfact> 0.80035340E+03</totfact>
</mgrwt>
</event>
<event>
 5    1  0.3277540E-002  0.1250016E+03  0.7818608E-02  0.1235067E+00
          4   -1    0    0  501    0  0.00000000000E+00  0.00000000000E+00  0.21021572787E+02  0.21059900817E+02  0.12700000000E+01 0. -1.
         -4   -1    0    0    0  501 -0.00000000000E+00 -0.00000000000E+00 -0.18561599887E+03  0.18562034355E+03  0.12700000000E+01 0. -1.
         25    2    1    2    0    0  0.00000000000E+00  0.00000000000E+00 -0.16459442609E+03  0.20668024436E+03  0.12500159323E+03 0.  0.
    9000005    1    3    3    0    0 -0.15419130775E+02 -0.39197156804E+02 -0.59674740123E+01  0.42553230682E+02  0.10000000000E+01 0.  0.
    9000005    1    3    3    0    0  0.15419130775E+02  0.39197156804E+02 -0.15862695208E+03  0.16412701368E+03  0.10000000000E+01 0.  0.
<mgrwt>
<rscale>  0 0.12500159E+03</rscale>
<asrwt>0</asrwt>
<pdfrwt beam="1">  1        4 0.32373708E-02 0.12500159E+03</pdfrwt>
<pdfrwt beam="2">  1       -4 0.28559589E-01 0.12500159E+03</pdfrwt>
<totfact> 0.89017755E+03</totfact>
</mgrwt>
</event>
<event>
 5    1  0.3277540E-002  0.1250029E+03  0.7818608E-02  0.1235065E+00
          4   -1    0    0  501    0  0.00000000000E+00  0.00000000000E+00  0.93749824949E+01  0.94606129178E+01  0.12700000000E+01 0. -1.
         -4   -1    0    0    0  501 -0.00000000000E+00 -0.00000000000E+00 -0.41470570183E+03  0.41470764646E+03  0.12700000000E+01 0. -1.
         25    2    1    2    0    0  0.00000000000E+00  0.00000000000E+00 -0.40533071933E+03  0.42416825937E+03  0.12500288087E+03 0.  0.
    9000005    1    3    3    0    0  0.33425834019E+02  0.43771627789E+02 -0.10245254333E+03  0.11632181831E+03  0.10000000000E+01 0.  0.
    9000005    1    3    3    0    0 -0.33425834019E+02 -0.43771627789E+02 -0.30287817600E+03  0.30784644107E+03  0.10000000000E+01 0.  0.
<mgrwt>
<rscale>  0 0.12500288E+03</rscale>
<asrwt>0</asrwt>
<pdfrwt beam="1">  1        4 0.14490419E-02 0.12500288E+03</pdfrwt>
<pdfrwt beam="2">  1       -4 0.63807600E-01 0.12500288E+03</pdfrwt>
<totfact> 0.62264234E+03</totfact>
</mgrwt>
</event>
<event>
 5    1  0.3277540E-002  0.1249990E+03  0.7818608E-02  0.1235071E+00
         -4   -1    0    0    0  501 -0.00000000000E+00  0.00000000000E+00  0.40245107598E+02  0.40265141073E+02  0.12700000000E+01 0. -1.
          4   -1    0    0  501    0  0.00000000000E+00 -0.00000000000E+00 -0.97011530258E+02  0.97019842831E+02  0.12700000000E+01 0. -1.
         25    2    1    2    0    0  0.00000000000E+00  0.00000000000E+00 -0.56766422659E+02  0.13728498390E+03  0.12499896025E+03 0.  0.
    9000005    1    3    3    0    0 -0.21571222349E+02  0.33002551323E+02 -0.81632663831E+02  0.90660784420E+02  0.10000000000E+01 0.  0.
    9000005    1    3    3    0    0  0.21571222349E+02 -0.33002551323E+02  0.24866241172E+02  0.46624199483E+02  0.10000000000E+01 0.  0.
<mgrwt>
<rscale>  0 0.12499896E+03</rscale>
<asrwt>0</asrwt>
<pdfrwt beam="2">  1        4 0.14927031E-01 0.12499896E+03</pdfrwt>
<pdfrwt beam="1">  1       -4 0.61937355E-02 0.12499896E+03</pdfrwt>
<totfact> 0.10190369E+04</totfact>
</mgrwt>
</event>
<event>
 5    1  0.3277540E-002  0.1250284E+03  0.7818608E-02  0.1235025E+00
         -4   -1    0    0    0  501 -0.00000000000E+00  0.00000000000E+00  0.18258726458E+03  0.18259168132E+03  0.12700000000E+01 0. -1.
          4   -1    0    0  501    0  0.00000000000E+00 -0.00000000000E+00 -0.21380094664E+02  0.21417781114E+02  0.12700000000E+01 0. -1.
         25    2    1    2    0    0  0.00000000000E+00  0.00000000000E+00  0.16120716991E+03  0.20400946243E+03  0.12502843328E+03 0.  0.
    9000005    1    3    3    0    0 -0.17161477117E+02  0.31221269470E+02  0.16440624192E+03  0.16822513589E+03  0.10000000000E+01 0.  0.
    9000005    1    3    3    0    0  0.17161477117E+02 -0.31221269470E+02 -0.31990720040E+01  0.35784326539E+02  0.10000000000E+01 0.  0.
<mgrwt>
<rscale>  0 0.12502843E+03</rscale>
<asrwt>0</asrwt>
<pdfrwt beam="2">  1        4 0.32924840E-02 0.12502843E+03</pdfrwt>
<pdfrwt beam="1">  1       -4 0.28093588E-01 0.12502843E+03</pdfrwt>
<totfact> 0.89406778E+03</totfact>
</mgrwt>
</event>
<event>
 5    1  0.3277540E-002  0.1250007E+03  0.7818608E-02  0.1235068E+00
          4   -1    0    0  501    0  0.00000000000E+00  0.00000000000E+00  0.65603355651E+02  0.65615647316E+02  0.12700000000E+01 0.  1.
         -4   -1    0    0    0  501 -0.00000000000E+00 -0.00000000000E+00 -0.59519440374E+02  0.59532988187E+02  0.12700000000E+01 0.  1.
         25    2    1    2    0    0  0.00000000000E+00  0.00000000000E+00  0.60839152776E+01  0.12514863550E+03  0.12500066777E+03 0.  0.
    9000005    1    3    3    0    0 -0.41343038024E+02 -0.45714516351E+02 -0.72769365813E+01  0.62072680015E+02  0.10000000000E+01 0.  0.
    9000005    1    3    3    0    0  0.41343038024E+02  0.45714516351E+02  0.13360851859E+02  0.63075955488E+02  0.10000000000E+01 0.  0.
<mgrwt>
<rscale>  0 0.12500067E+03</rscale>
<asrwt>0</asrwt>
<pdfrwt beam="1">  1        4 0.10094812E-01 0.12500067E+03</pdfrwt>
<pdfrwt beam="2">  1       -4 0.91588247E-02 0.12500067E+03</pdfrwt>
<totfact> 0.10449477E+04</totfact>
</mgrwt>
</event>
<event>
 5    1  0.3277540E-002  0.1249995E+03  0.7818608E-02  0.1235070E+00
          4   -1    0    0  501    0  0.00000000000E+00  0.00000000000E+00  0.32410394367E+01  0.34809821359E+01  0.12700000000E+01 0. -1.
         -4   -1    0    0    0  501 -0.00000000000E+00 -0.00000000000E+00 -0.11619744418E+04  0.11619751358E+04  0.12700000000E+01 0. -1.
         25    2    1    2    0    0  0.00000000000E+00  0.00000000000E+00 -0.11587334024E+04  0.11654561180E+04  0.12499946064E+03 0.  0.
    9000005    1    3    3    0    0 -0.15624714346E+01 -0.62051626331E+02 -0.51189343401E+03  0.51564399874E+03  0.10000000000E+01 0.  0.
    9000005    1    3    3    0    0  0.15624714346E+01  0.62051626331E+02 -0.64683996837E+03  0.64981211925E+03  0.10000000000E+01 0.  0.
<mgrwt>
<rscale>  0 0.12499946E+03</rscale>
<asrwt>0</asrwt>
<pdfrwt beam="1">  1        4 0.51713290E-03 0.12499946E+03</pdfrwt>
<pdfrwt beam="2">  1       -4 0.17878349E+00 0.12499946E+03</pdfrwt>
<totfact> 0.25635612E+03</totfact>
</mgrwt>
</event>
<event>
 5    1  0.3277540E-002  0.1250026E+03  0.7818608E-02  0.1235065E+00
          4   -1    0    0  501    0  0.00000000000E+00  0.00000000000E+00  0.24111743101E+03  0.24112077562E+03  0.12700000000E+01 0.  1.
         -4   -1    0    0    0  501 -0.00000000000E+00 -0.00000000000E+00 -0.16172939927E+02  0.16222727449E+02  0.12700000000E+01 0.  1.
         25    2    1    2    0    0  0.00000000000E+00  0.00000000000E+00  0.22494449108E+03  0.25734350307E+03  0.12500261799E+03 0.  0.
    9000005    1    3    3    0    0 -0.28858083393E+01  0.60740112856E+02  0.82800856081E+02  0.10273592832E+03  0.10000000000E+01 0.  0.
    9000005    1    3    3    0    0  0.28858083393E+01 -0.60740112856E+02  0.14214363500E+03  0.15460757475E+03  0.10000000000E+01 0.  0.
<mgrwt>
<rscale>  0 0.12500262E+03</rscale>
<asrwt>0</asrwt>
<pdfrwt beam="1">  1        4 0.37099079E-01 0.12500262E+03</pdfrwt>
<pdfrwt beam="2">  1       -4 0.24922315E-02 0.12500262E+03</pdfrwt>
<totfact> 0.81275573E+03</totfact>
</mgrwt>
</event>
<event>
 5    1  0.3277540E-002  0.1250021E+03  0.7818608E-02  0.1235066E+00
         -4   -1    0    0    0  501 -0.00000000000E+00  0.00000000000E+00  0.13523532758E+03  0.13524129076E+03  0.12700000000E+01 0. -1.
          4   -1    0    0  501    0  0.00000000000E+00 -0.00000000000E+00 -0.28865263592E+02  0.28893188509E+02  0.12700000000E+01 0. -1.
         25    2    1    2    0    0  0.00000000000E+00  0.00000000000E+00  0.10637006399E+03  0.16413447927E+03  0.12500214707E+03 0.  0.
    9000005    1    3    3    0    0 -0.42339672571E+02 -0.45676917859E+02  0.59925932737E+02  0.86435791851E+02  0.10000000000E+01 0.  0.
    9000005    1    3    3    0    0  0.42339672571E+02  0.45676917859E+02  0.46444131252E+02  0.77698687416E+02  0.10000000000E+01 0.  0.
<mgrwt>
<rscale>  0 0.12500215E+03</rscale>
<asrwt>0</asrwt>
<pdfrwt beam="2">  1        4 0.44434165E-02 0.12500215E+03</pdfrwt>
<pdfrwt beam="1">  1       -4 0.20808042E-01 0.12500215E+03</pdfrwt>
<totfact> 0.96546902E+03</totfact>
</mgrwt>
</event>
<event>
 5    1  0.3277540E-002  0.1249984E+03  0.7818608E-02  0.1235072E+00
         -4   -1    0    0    0  501 -0.00000000000E+00  0.00000000000E+00  0.10177398805E+02  0.10256332017E+02  0.12700000000E+01 0.  1.
          4   -1    0    0  501    0  0.00000000000E+00 -0.00000000000E+00 -0.38224402421E+03  0.38224613398E+03  0.12700000000E+01 0.  1.
         25    2    1    2    0    0  0.00000000000E+00  0.00000000000E+00 -0.37206662540E+03  0.39250246600E+03  0.12499844829E+03 0.  0.
    9000005    1    3    3    0    0  0.28102204580E+02  0.94697023851E+01 -0.35875777434E+03  0.35998270767E+03  0.10000000000E+01 0.  0.
    9000005    1    3    3    0    0 -0.28102204580E+02 -0.94697023851E+01 -0.13308851060E+02  0.32519758333E+02  0.10000000000E+01 0.  0.
<mgrwt>
<rscale>  0 0.12499845E+03</rscale>
<asrwt>0</asrwt>
<pdfrwt beam="2">  1        4 0.58812996E-01 0.12499845E+03</pdfrwt>
<pdfrwt beam="1">  1       -4 0.15719880E-02 0.12499845E+03</pdfrwt>
<totfact> 0.65290823E+03</totfact>
</mgrwt>
</event>
<event>
 5    1  0.3277540E-002  0.1250049E+03  0.7818608E-02  0.1235062E+00
          4   -1    0    0  501    0  0.00000000000E+00  0.00000000000E+00  0.13867080175E+02  0.13925114454E+02  0.12700000000E+01 0.  1.
         -4   -1    0    0    0  501 -0.00000000000E+00 -0.00000000000E+00 -0.28106654748E+03  0.28106941671E+03  0.12700000000E+01 0.  1.
         25    2    1    2    0    0  0.00000000000E+00  0.00000000000E+00 -0.26719946730E+03  0.29499453117E+03  0.12500487227E+03 0.  0.
    9000005    1    3    3    0    0  0.40645728115E+01 -0.28309224370E+02 -0.24706403249E+01  0.28723457316E+02  0.10000000000E+01 0.  0.
    9000005    1    3    3    0    0 -0.40645728115E+01  0.28309224370E+02 -0.26472882698E+03  0.26627107385E+03  0.10000000000E+01 0.  0.
<mgrwt>
<rscale>  0 0.12500487E+03</rscale>
<asrwt>0</asrwt>
<pdfrwt beam="1">  1        4 0.21380820E-02 0.12500487E+03</pdfrwt>
<pdfrwt beam="2">  1       -4 0.43245688E-01 0.12500487E+03</pdfrwt>
<totfact> 0.76222790E+03</totfact>
</mgrwt>
</event>
<event>
 5    1  0.3277540E-002  0.1250015E+03  0.7818608E-02  0.1235067E+00
          4   -1    0    0  501    0  0.00000000000E+00  0.00000000000E+00  0.11271507023E+04  0.11271514177E+04  0.12700000000E+01 0.  1.
         -4   -1    0    0    0  501 -0.00000000000E+00 -0.00000000000E+00 -0.33485926627E+01  0.35813367366E+01  0.12700000000E+01 0.  1.
         25    2    1    2    0    0  0.00000000000E+00  0.00000000000E+00  0.11238021096E+04  0.11307327545E+04  0.12500152200E+03 0.  0.
    9000005    1    3    3    0    0  0.33405572240E+02  0.50944247731E+02  0.68792512882E+03  0.69061800693E+03  0.10000000000E+01 0.  0.
    9000005    1    3    3    0    0 -0.33405572240E+02 -0.50944247731E+02  0.43587698078E+03  0.44011474755E+03  0.10000000000E+01 0.  0.
<mgrwt>
<rscale>  0 0.12500152E+03</rscale>
<asrwt>0</asrwt>
<pdfrwt beam="1">  1        4 0.17342566E+00 0.12500152E+03</pdfrwt>
<pdfrwt beam="2">  1       -4 0.53312685E-03 0.12500152E+03</pdfrwt>
<totfact> 0.26600009E+03</totfact>
</mgrwt>
</event>
<event>
 5    1  0.3277540E-002  0.1250014E+03  0.7818608E-02  0.1235067E+00
          4   -1    0    0  501    0  0.00000000000E+00  0.00000000000E+00  0.67695341296E+02  0.67707253180E+02  0.12700000000E+01 0. -1.
         -4   -1    0    0    0  501 -0.00000000000E+00 -0.00000000000E+00 -0.57680698612E+02  0.57694678198E+02  0.12700000000E+01 0. -1.
         25    2    1    2    0    0  0.00000000000E+00  0.00000000000E+00  0.10014642683E+02  0.12540193138E+03  0.12500140529E+03 0.  0.
    9000005    1    3    3    0    0  0.36672583753E+01 -0.37828740262E+02  0.54773483162E+02  0.66675309009E+02  0.10000000000E+01 0.  0.
    9000005    1    3    3    0    0 -0.36672583753E+01  0.37828740262E+02 -0.44758840479E+02  0.58726622368E+02  0.10000000000E+01 0.  0.
<mgrwt>
<rscale>  0 0.12500141E+03</rscale>
<asrwt>0</asrwt>
<pdfrwt beam="1">  1        4 0.10416660E-01 0.12500141E+03</pdfrwt>
<pdfrwt beam="2">  1       -4 0.88759453E-02 0.12500141E+03</pdfrwt>
<totfact> 0.10443793E+04</totfact>
</mgrwt>
</event>
<event>
 5    1  0.3277540E-002  0.1249998E+03  0.7818608E-02  0.1235070E+00
          4   -1    0    0  501    0  0.00000000000E+00  0.00000000000E+00  0.92878969424E+02  0.92887651823E+02  0.12700000000E+01 0. -1.
         -4   -1    0    0    0  501 -0.00000000000E+00 -0.00000000000E+00 -0.42037043668E+02  0.42056223563E+02  0.12700000000E+01 0. -1.
         25    2    1    2    0    0  0.00000000000E+00  0.00000000000E+00  0.50841925756E+02  0.13494387539E+03  0.12499979236E+03 0.  0.
    9000005    1    3    3    0    0  0.27052776221E+02 -0.25522418304E+02  0.79635481824E+02  0.87897989185E+02  0.10000000000E+01 0.  0.
    9000005    1    3    3    0    0 -0.27052776221E+02  0.25522418304E+02 -0.28793556069E+02  0.47045886201E+02  0.10000000000E+01 0.  0.
<mgrwt>
<rscale>  0 0.12499979E+03</rscale>
<asrwt>0</asrwt>
<pdfrwt beam="1">  1        4 0.14291215E-01 0.12499979E+03</pdfrwt>
<pdfrwt beam="2">  1       -4 0.64693808E-02 0.12499979E+03</pdfrwt>
<totfact> 0.10239302E+04</totfact>
</mgrwt>
</event>
<event>
 5    1  0.3277540E-002  0.1250114E+03  0.7818608E-02  0.1235052E+00
         -4   -1    0    0    0  501 -0.00000000000E+00  0.00000000000E+00  0.21916000199E+03  0.21916368169E+03  0.12700000000E+01 0. -1.
          4   -1    0    0  501    0  0.00000000000E+00 -0.00000000000E+00 -0.17800521186E+02  0.17845768532E+02  0.12700000000E+01 0. -1.
         25    2    1    2    0    0  0.00000000000E+00  0.00000000000E+00  0.20135948081E+03  0.23700945023E+03  0.12501135543E+03 0.  0.
    9000005    1    3    3    0    0  0.17057142055E+02  0.60124752333E+02  0.10036358355E+03  0.11823612325E+03  0.10000000000E+01 0.  0.
    9000005    1    3    3    0    0 -0.17057142055E+02 -0.60124752333E+02  0.10099589726E+03  0.11877332698E+03  0.10000000000E+01 0.  0.
<mgrwt>
<rscale>  0 0.12501136E+03</rscale>
<asrwt>0</asrwt>
<pdfrwt beam="2">  1        4 0.27423054E-02 0.12501136E+03</pdfrwt>
<pdfrwt beam="1">  1       -4 0.33720686E-01 0.12501136E+03</pdfrwt>
<totfact> 0.84223454E+03</totfact>
</mgrwt>
</event>
<event>
 5    1  0.3277540E-002  0.1250014E+03  0.7818608E-02  0.1235067E+00
         -4   -1    0    0    0  501 -0.00000000000E+00  0.00000000000E+00  0.23643818492E+03  0.23644159572E+03  0.12700000000E+01 0. -1.
          4   -1    0    0  501    0  0.00000000000E+00 -0.00000000000E+00 -0.16493665326E+02  0.16542487597E+02  0.12700000000E+01 0. -1.
         25    2    1    2    0    0  0.00000000000E+00  0.00000000000E+00  0.21994451959E+03  0.25298408332E+03  0.12500141885E+03 0.  0.
    9000005    1    3    3    0    0 -0.92065787410E+01  0.51244842609E+02  0.40023619760E+02  0.65678650449E+02  0.10000000000E+01 0.  0.
    9000005    1    3    3    0    0  0.92065787410E+01 -0.51244842609E+02  0.17992089983E+03  0.18730543287E+03  0.10000000000E+01 0.  0.
<mgrwt>
<rscale>  0 0.12500142E+03</rscale>
<asrwt>0</asrwt>
<pdfrwt beam="2">  1        4 0.25415050E-02 0.12500142E+03</pdfrwt>
<pdfrwt beam="1">  1       -4 0.36379121E-01 0.12500142E+03</pdfrwt>
<totfact> 0.81898252E+03</totfact>
</mgrwt>
</event>
<event>
 5    1  0.3277540E-002  0.1250000E+03  0.7818608E-02  0.1235069E+00
          4   -1    0    0  501    0  0.00000000000E+00  0.00000000000E+00  0.69034388049E+02  0.69046068919E+02  0.12700000000E+01 0.  1.
         -4   -1    0    0    0  501 -0.00000000000E+00 -0.00000000000E+00 -0.56560478935E+02  0.56574735327E+02  0.12700000000E+01 0.  1.
         25    2    1    2    0    0  0.00000000000E+00  0.00000000000E+00  0.12473909114E+02  0.12562080425E+03  0.12499995220E+03 0.  0.
    9000005    1    3    3    0    0  0.38577191916E+02  0.45612230844E+02 -0.12200055985E+02  0.60979641724E+02  0.10000000000E+01 0.  0.
    9000005    1    3    3    0    0 -0.38577191916E+02 -0.45612230844E+02  0.24673965098E+02  0.64641162523E+02  0.10000000000E+01 0.  0.
<mgrwt>
<rscale>  0 0.12499995E+03</rscale>
<asrwt>0</asrwt>
<pdfrwt beam="1">  1        4 0.10622670E-01 0.12499995E+03</pdfrwt>
<pdfrwt beam="2">  1       -4 0.87036074E-02 0.12499995E+03</pdfrwt>
<totfact> 0.10439300E+04</totfact>
</mgrwt>
</event>
<event>
 5    1  0.3277540E-002  0.1250008E+03  0.7818608E-02  0.1235068E+00
         -4   -1    0    0    0  501 -0.00000000000E+00  0.00000000000E+00  0.57142478561E+02  0.57156589787E+02  0.12700000000E+01 0. -1.
          4   -1    0    0  501    0  0.00000000000E+00 -0.00000000000E+00 -0.68332207721E+02  0.68344008603E+02  0.12700000000E+01 0. -1.
         25    2    1    2    0    0  0.00000000000E+00  0.00000000000E+00 -0.11189729160E+02  0.12550059839E+03  0.12500076063E+03 0.  0.
    9000005    1    3    3    0    0  0.30069218618E+02 -0.50983447659E+02 -0.25720660958E+02  0.64544730564E+02  0.10000000000E+01 0.  0.
    9000005    1    3    3    0    0 -0.30069218618E+02  0.50983447659E+02  0.14530931799E+02  0.60955867826E+02  0.10000000000E+01 0.  0.
<mgrwt>
<rscale>  0 0.12500076E+03</rscale>
<asrwt>0</asrwt>
<pdfrwt beam="2">  1        4 0.10514641E-01 0.12500076E+03</pdfrwt>
<pdfrwt beam="1">  1       -4 0.87931438E-02 0.12500076E+03</pdfrwt>
<totfact> 0.10441762E+04</totfact>
</mgrwt>
</event>
<event>
 5    1  0.3277540E-002  0.1250012E+03  0.7818608E-02  0.1235067E+00
         -4   -1    0    0    0  501 -0.00000000000E+00  0.00000000000E+00  0.40795112637E+02  0.40814876149E+02  0.12700000000E+01 0. -1.
          4   -1    0    0  501    0  0.00000000000E+00 -0.00000000000E+00 -0.95707547655E+02  0.95715973474E+02  0.12700000000E+01 0. -1.
         25    2    1    2    0    0  0.00000000000E+00  0.00000000000E+00 -0.54912435018E+02  0.13653084962E+03  0.12500118951E+03 0.  0.
    9000005    1    3    3    0    0  0.20081649504E+01  0.56199620045E+02 -0.57226308871E+02  0.80238896096E+02  0.10000000000E+01 0.  0.
    9000005    1    3    3    0    0 -0.20081649504E+01 -0.56199620045E+02  0.23138738539E+01  0.56291953527E+02  0.10000000000E+01 0.  0.
<mgrwt>
<rscale>  0 0.12500119E+03</rscale>
<asrwt>0</asrwt>
<pdfrwt beam="2">  1        4 0.14726406E-01 0.12500119E+03</pdfrwt>
<pdfrwt beam="1">  1       -4 0.62783396E-02 0.12500119E+03</pdfrwt>
<totfact> 0.10205631E+04</totfact>
</mgrwt>
</event>
<event>
 5    1  0.3277540E-002  0.1250025E+03  0.7818608E-02  0.1235065E+00
         -4   -1    0    0    0  501 -0.00000000000E+00  0.00000000000E+00  0.53355632496E+02  0.53370744974E+02  0.12700000000E+01 0.  1.
          4   -1    0    0  501    0  0.00000000000E+00 -0.00000000000E+00 -0.73183537395E+02  0.73194556121E+02  0.12700000000E+01 0.  1.
         25    2    1    2    0    0  0.00000000000E+00  0.00000000000E+00 -0.19827904900E+02  0.12656530109E+03  0.12500251849E+03 0.  0.
    9000005    1    3    3    0    0 -0.33688448149E+01  0.59610098899E+02  0.87747173940E+01  0.60354856237E+02  0.10000000000E+01 0.  0.
    9000005    1    3    3    0    0  0.33688448149E+01 -0.59610098899E+02 -0.28602622294E+02  0.66210444857E+02  0.10000000000E+01 0.  0.
<mgrwt>
<rscale>  0 0.12500252E+03</rscale>
<asrwt>0</asrwt>
<pdfrwt beam="2">  1        4 0.11261016E-01 0.12500252E+03</pdfrwt>
<pdfrwt beam="1">  1       -4 0.82105689E-02 0.12500252E+03</pdfrwt>
<totfact> 0.10418012E+04</totfact>
</mgrwt>
</event>
<event>
 5    1  0.3277540E-002  0.1249992E+03  0.7818608E-02  0.1235071E+00
         -4   -1    0    0    0  501 -0.00000000000E+00  0.00000000000E+00  0.27681778148E+03  0.27682069475E+03  0.12700000000E+01 0. -1.
          4   -1    0    0  501    0  0.00000000000E+00 -0.00000000000E+00 -0.14079510573E+02  0.14136672804E+02  0.12700000000E+01 0. -1.
         25    2    1    2    0    0  0.00000000000E+00  0.00000000000E+00  0.26273827091E+03  0.29095736756E+03  0.12499916294E+03 0.  0.
    9000005    1    3    3    0    0  0.19385347619E+02  0.55903060251E+02  0.84568760884E+02  0.10321733946E+03  0.10000000000E+01 0.  0.
    9000005    1    3    3    0    0 -0.19385347619E+02 -0.55903060251E+02  0.17816951002E+03  0.18774002810E+03  0.10000000000E+01 0.  0.
<mgrwt>
<rscale>  0 0.12499916E+03</rscale>
<asrwt>0</asrwt>
<pdfrwt beam="2">  1        4 0.21706999E-02 0.12499916E+03</pdfrwt>
<pdfrwt beam="1">  1       -4 0.42591970E-01 0.12499916E+03</pdfrwt>
<totfact> 0.76748740E+03</totfact>
</mgrwt>
</event>
<event>
 5    1  0.3277540E-002  0.1249989E+03  0.7818608E-02  0.1235071E+00
          4   -1    0    0  501    0  0.00000000000E+00  0.00000000000E+00  0.26591714212E+03  0.26592017481E+03  0.12700000000E+01 0. -1.
         -4   -1    0    0    0  501 -0.00000000000E+00 -0.00000000000E+00 -0.14658891803E+02  0.14713803346E+02  0.12700000000E+01 0. -1.
         25    2    1    2    0    0  0.00000000000E+00  0.00000000000E+00  0.25125825031E+03  0.28063397816E+03  0.12499888538E+03 0.  0.
    9000005    1    3    3    0    0 -0.43655780059E+02 -0.72039462100E+01  0.26553235714E+02  0.51611997640E+02  0.10000000000E+01 0.  0.
    9000005    1    3    3    0    0  0.43655780059E+02  0.72039462100E+01  0.22470501460E+03  0.22902198052E+03  0.10000000000E+01 0.  0.
<mgrwt>
<rscale>  0 0.12499889E+03</rscale>
<asrwt>0</asrwt>
<pdfrwt beam="1">  1        4 0.40914785E-01 0.12499889E+03</pdfrwt>
<pdfrwt beam="2">  1       -4 0.22596715E-02 0.12499889E+03</pdfrwt>
<totfact> 0.78096054E+03</totfact>
</mgrwt>
</event>
<event>
 5    1  0.3277540E-002  0.1249811E+03  0.7818608E-02  0.1235099E+00
         -4   -1    0    0    0  501 -0.00000000000E+00  0.00000000000E+00  0.30710908653E+03  0.30711171245E+03  0.12700000000E+01 0.  1.
          4   -1    0    0  501    0  0.00000000000E+00 -0.00000000000E+00 -0.12681183030E+02  0.12744618591E+02  0.12700000000E+01 0.  1.
         25    2    1    2    0    0  0.00000000000E+00  0.00000000000E+00  0.29442790350E+03  0.31985633105E+03  0.12498112719E+03 0.  0.
    9000005    1    3    3    0    0 -0.37884886652E+02 -0.45426579479E+02  0.95695564179E+02  0.11250546548E+03  0.10000000000E+01 0.  0.
    9000005    1    3    3    0    0  0.37884886652E+02  0.45426579479E+02  0.19873233932E+03  0.20735086556E+03  0.10000000000E+01 0.  0.
<mgrwt>
<rscale>  0 0.12498113E+03</rscale>
<asrwt>0</asrwt>
<pdfrwt beam="2">  1        4 0.19560331E-02 0.12498113E+03</pdfrwt>
<pdfrwt beam="1">  1       -4 0.47252628E-01 0.12498113E+03</pdfrwt>
<totfact> 0.73203839E+03</totfact>
</mgrwt>
</event>
<event>
 5    1  0.3277540E-002  0.1249991E+03  0.7818608E-02  0.1235071E+00
          4   -1    0    0  501    0  0.00000000000E+00  0.00000000000E+00  0.15339985825E+03  0.15340511534E+03  0.12700000000E+01 0. -1.
         -4   -1    0    0    0  501 -0.00000000000E+00 -0.00000000000E+00 -0.25442615024E+02  0.25474292125E+02  0.12700000000E+01 0. -1.
         25    2    1    2    0    0  0.00000000000E+00  0.00000000000E+00  0.12795724323E+03  0.17887940746E+03  0.12499914528E+03 0.  0.
    9000005    1    3    3    0    0 -0.69823265812E+00  0.14517108021E+02  0.15095464606E+03  0.15165598940E+03  0.10000000000E+01 0.  0.
    9000005    1    3    3    0    0  0.69823265812E+00 -0.14517108021E+02 -0.22997402830E+02  0.27223418063E+02  0.10000000000E+01 0.  0.
<mgrwt>
<rscale>  0 0.12499915E+03</rscale>
<asrwt>0</asrwt>
<pdfrwt beam="1">  1        4 0.23602819E-01 0.12499915E+03</pdfrwt>
<pdfrwt beam="2">  1       -4 0.39170896E-02 0.12499915E+03</pdfrwt>
<totfact> 0.93820901E+03</totfact>
</mgrwt>
</event>
<event>
 5    1  0.3277540E-002  0.1250064E+03  0.7818608E-02  0.1235059E+00
          4   -1    0    0  501    0  0.00000000000E+00  0.00000000000E+00  0.10966348012E+03  0.10967083373E+03  0.12700000000E+01 0.  1.
         -4   -1    0    0    0  501 -0.00000000000E+00 -0.00000000000E+00 -0.35604122009E+02  0.35626765276E+02  0.12700000000E+01 0.  1.
         25    2    1    2    0    0  0.00000000000E+00  0.00000000000E+00  0.74059358109E+02  0.14529759901E+03  0.12500641485E+03 0.  0.
    9000005    1    3    3    0    0 -0.31759458311E+01  0.62402773011E+02  0.38433264071E+02  0.73364218107E+02  0.10000000000E+01 0.  0.
    9000005    1    3    3    0    0  0.31759458311E+01 -0.62402773011E+02  0.35626094038E+02  0.71933380900E+02  0.10000000000E+01 0.  0.
<mgrwt>
<rscale>  0 0.12500641E+03</rscale>
<asrwt>0</asrwt>
<pdfrwt beam="1">  1        4 0.16873612E-01 0.12500641E+03</pdfrwt>
<pdfrwt beam="2">  1       -4 0.54798648E-02 0.12500641E+03</pdfrwt>
<totfact> 0.10023498E+04</totfact>
</mgrwt>
</event>
<event>
 5    1  0.3277540E-002  0.1249985E+03  0.7818608E-02  0.1235072E+00
          4   -1    0    0  501    0  0.00000000000E+00  0.00000000000E+00  0.43468860744E+01  0.45286111054E+01  0.12700000000E+01 0. -1.
         -4   -1    0    0    0  501 -0.00000000000E+00 -0.00000000000E+00 -0.88002898751E+03  0.88002990390E+03  0.12700000000E+01 0. -1.
         25    2    1    2    0    0  0.00000000000E+00  0.00000000000E+00 -0.87568210144E+03  0.88455851500E+03  0.12499849476E+03 0.  0.
    9000005    1    3    3    0    0 -0.57690751637E+02 -0.23117058099E+02 -0.48399337658E+03  0.48796845162E+03  0.10000000000E+01 0.  0.
    9000005    1    3    3    0    0  0.57690751637E+02  0.23117058099E+02 -0.39168872485E+03  0.39659006338E+03  0.10000000000E+01 0.  0.
<mgrwt>
<rscale>  0 0.12499849E+03</rscale>
<asrwt>0</asrwt>
<pdfrwt beam="1">  1        4 0.68280174E-03 0.12499849E+03</pdfrwt>
<pdfrwt beam="2">  1       -4 0.13540299E+00 0.12499849E+03</pdfrwt>
<totfact> 0.34754513E+03</totfact>
</mgrwt>
</event>
<event>
 5    1  0.3277540E-002  0.1249998E+03  0.7818608E-02  0.1235070E+00
         -4   -1    0    0    0  501 -0.00000000000E+00  0.00000000000E+00  0.32185624321E+03  0.32185874882E+03  0.12700000000E+01 0.  1.
          4   -1    0    0  501    0  0.00000000000E+00 -0.00000000000E+00 -0.12100808440E+02  0.12167270233E+02  0.12700000000E+01 0.  1.
         25    2    1    2    0    0  0.00000000000E+00  0.00000000000E+00  0.30975543477E+03  0.33402601905E+03  0.12499980814E+03 0.  0.
    9000005    1    3    3    0    0 -0.22539510333E+02 -0.57951101576E+02  0.13821581309E+03  0.15156177186E+03  0.10000000000E+01 0.  0.
    9000005    1    3    3    0    0  0.22539510333E+02  0.57951101576E+02  0.17153962168E+03  0.18246424720E+03  0.10000000000E+01 0.  0.
<mgrwt>
<rscale>  0 0.12499981E+03</rscale>
<asrwt>0</asrwt>
<pdfrwt beam="2">  1        4 0.18669679E-02 0.12499981E+03</pdfrwt>
<pdfrwt beam="1">  1       -4 0.49521654E-01 0.12499981E+03</pdfrwt>
<totfact> 0.71518694E+03</totfact>
</mgrwt>
</event>
<event>
 5    1  0.3277540E-002  0.1249917E+03  0.7818608E-02  0.1235082E+00
          4   -1    0    0  501    0  0.00000000000E+00  0.00000000000E+00  0.24445336812E+02  0.24478304514E+02  0.12700000000E+01 0.  1.
         -4   -1    0    0    0  501 -0.00000000000E+00 -0.00000000000E+00 -0.15963096249E+03  0.15963601438E+03  0.12700000000E+01 0.  1.
         25    2    1    2    0    0  0.00000000000E+00  0.00000000000E+00 -0.13518562568E+03  0.18411431889E+03  0.12499171585E+03 0.  0.
    9000005    1    3    3    0    0  0.13105330617E+02  0.14220176422E+02 -0.15511960205E+03  0.15632355564E+03  0.10000000000E+01 0.  0.
    9000005    1    3    3    0    0 -0.13105330617E+02 -0.14220176422E+02  0.19933976370E+02  0.27790763250E+02  0.10000000000E+01 0.  0.
<mgrwt>
<rscale>  0 0.12499172E+03</rscale>
<asrwt>0</asrwt>
<pdfrwt beam="1">  1        4 0.37637457E-02 0.12499172E+03</pdfrwt>
<pdfrwt beam="2">  1       -4 0.24561534E-01 0.12499172E+03</pdfrwt>
<totfact> 0.92898859E+03</totfact>
</mgrwt>
</event>
<event>
 5    1  0.3277540E-002  0.1249938E+03  0.7818608E-02  0.1235079E+00
         -4   -1    0    0    0  501 -0.00000000000E+00  0.00000000000E+00  0.16587820229E+02  0.16636366188E+02  0.12700000000E+01 0. -1.
          4   -1    0    0  501    0  0.00000000000E+00 -0.00000000000E+00 -0.23507126835E+03  0.23507469898E+03  0.12700000000E+01 0. -1.
         25    2    1    2    0    0  0.00000000000E+00  0.00000000000E+00 -0.21848344812E+03  0.25171106517E+03  0.12499377276E+03 0.  0.
    9000005    1    3    3    0    0  0.14823948053E+02  0.48923034948E+02 -0.18161629837E+03  0.18867615806E+03  0.10000000000E+01 0.  0.
    9000005    1    3    3    0    0 -0.14823948053E+02 -0.48923034948E+02 -0.36867149743E+02  0.63034907112E+02  0.10000000000E+01 0.  0.
<mgrwt>
<rscale>  0 0.12499377E+03</rscale>
<asrwt>0</asrwt>
<pdfrwt beam="2">  1        4 0.36168806E-01 0.12499377E+03</pdfrwt>
<pdfrwt beam="1">  1       -4 0.25559707E-02 0.12499377E+03</pdfrwt>
<totfact> 0.82094940E+03</totfact>
</mgrwt>
</event>
<event>
 5    1  0.3277540E-002  0.1250075E+03  0.7818608E-02  0.1235058E+00
         -4   -1    0    0    0  501 -0.00000000000E+00  0.00000000000E+00  0.80250805684E+02  0.80260854175E+02  0.12700000000E+01 0.  1.
          4   -1    0    0  501    0  0.00000000000E+00 -0.00000000000E+00 -0.48659998247E+02  0.48676568587E+02  0.12700000000E+01 0.  1.
         25    2    1    2    0    0  0.00000000000E+00  0.00000000000E+00  0.31590807437E+02  0.12893742276E+03  0.12500751927E+03 0.  0.
    9000005    1    3    3    0    0  0.53317877853E+02  0.32098353943E+02  0.21686305615E+02  0.65912034378E+02  0.10000000000E+01 0.  0.
    9000005    1    3    3    0    0 -0.53317877853E+02 -0.32098353943E+02  0.99045018212E+01  0.63025388384E+02  0.10000000000E+01 0.  0.
<mgrwt>
<rscale>  0 0.12500752E+03</rscale>
<asrwt>0</asrwt>
<pdfrwt beam="2">  1        4 0.74882012E-02 0.12500752E+03</pdfrwt>
<pdfrwt beam="1">  1       -4 0.12348325E-01 0.12500752E+03</pdfrwt>
<totfact> 0.10365532E+04</totfact>
</mgrwt>
</event>
<event>
 5    1  0.3277540E-002  0.1249991E+03  0.7818608E-02  0.1235071E+00
         -4   -1    0    0    0  501 -0.00000000000E+00  0.00000000000E+00  0.11616888021E+02  0.11686102314E+02  0.12700000000E+01 0.  1.
          4   -1    0    0  501    0  0.00000000000E+00 -0.00000000000E+00 -0.33518237422E+03  0.33518478022E+03  0.12700000000E+01 0.  1.
         25    2    1    2    0    0  0.00000000000E+00  0.00000000000E+00 -0.32356548620E+03  0.34687088253E+03  0.12499914115E+03 0.  0.
    9000005    1    3    3    0    0  0.35028287394E+02  0.41399014593E+02 -0.75608945922E+02  0.93051448298E+02  0.10000000000E+01 0.  0.
    9000005    1    3    3    0    0 -0.35028287394E+02 -0.41399014593E+02 -0.24795654028E+03  0.25381943423E+03  0.10000000000E+01 0.  0.
<mgrwt>
<rscale>  0 0.12499914E+03</rscale>
<asrwt>0</asrwt>
<pdfrwt beam="2">  1        4 0.51572021E-01 0.12499914E+03</pdfrwt>
<pdfrwt beam="1">  1       -4 0.17927231E-02 0.12499914E+03</pdfrwt>
<totfact> 0.70071510E+03</totfact>
</mgrwt>
</event>
<event>
 5    1  0.3277540E-002  0.1249994E+03  0.7818608E-02  0.1235070E+00
         -4   -1    0    0    0  501 -0.00000000000E+00  0.00000000000E+00  0.25149329720E+03  0.25149650382E+03  0.12700000000E+01 0.  1.
          4   -1    0    0  501    0  0.00000000000E+00 -0.00000000000E+00 -0.15502794868E+02  0.15554727536E+02  0.12700000000E+01 0.  1.
         25    2    1    2    0    0  0.00000000000E+00  0.00000000000E+00  0.23599050233E+03  0.26705123136E+03  0.12499937192E+03 0.  0.
    9000005    1    3    3    0    0  0.25226870241E+02 -0.21609095680E+01  0.24005474295E+03  0.24138836784E+03  0.10000000000E+01 0.  0.
    9000005    1    3    3    0    0 -0.25226870241E+02  0.21609095680E+01 -0.40642406240E+01  0.25662863522E+02  0.10000000000E+01 0.  0.
<mgrwt>
<rscale>  0 0.12499937E+03</rscale>
<asrwt>0</asrwt>
<pdfrwt beam="2">  1        4 0.23892872E-02 0.12499937E+03</pdfrwt>
<pdfrwt beam="1">  1       -4 0.38695512E-01 0.12499937E+03</pdfrwt>
<totfact> 0.79927713E+03</totfact>
</mgrwt>
</event>
<event>
 4    1  0.3277540E-002  0.1249126E+03  0.7818608E-02  0.1235206E+00
          4   -1    0    0  501    0  0.00000000000E+00  0.00000000000E+00  0.13070060003E+02  0.13131617131E+02  0.12700000000E+01 0. -1.
         -4   -1    0    0    0  501 -0.00000000000E+00 -0.00000000000E+00 -0.29768800507E+03  0.29769071410E+03  0.12700000000E+01 0. -1.
    9000005    1    1    2    0    0 -0.86353554230E+01  0.80216718085E+01  0.10289534225E+02  0.15677726125E+02  0.10000000000E+01 0.  0.
    9000005    1    1    2    0    0  0.86353554230E+01 -0.80216718085E+01 -0.29490747929E+03  0.29514460511E+03  0.10000000000E+01 0.  0.
<mgrwt>
<rscale>  0 0.12491256E+03</rscale>
<asrwt>0</asrwt>
<pdfrwt beam="1">  1        4 0.20157222E-02 0.12491256E+03</pdfrwt>
<pdfrwt beam="2">  1       -4 0.45803093E-01 0.12491256E+03</pdfrwt>
<totfact> 0.74405294E+03</totfact>
</mgrwt>
</event>
<event>
 5    1  0.3277540E-002  0.1250034E+03  0.7818608E-02  0.1235064E+00
         -4   -1    0    0    0  501 -0.00000000000E+00  0.00000000000E+00  0.22516019851E+02  0.22551808130E+02  0.12700000000E+01 0.  1.
          4   -1    0    0  501    0  0.00000000000E+00 -0.00000000000E+00 -0.17332121949E+03  0.17332587235E+03  0.12700000000E+01 0.  1.
         25    2    1    2    0    0  0.00000000000E+00  0.00000000000E+00 -0.15080519964E+03  0.19587768048E+03  0.12500342984E+03 0.  0.
    9000005    1    3    3    0    0 -0.83598123201E+01 -0.59400280750E+02 -0.47938668165E+02  0.76794503192E+02  0.10000000000E+01 0.  0.
    9000005    1    3    3    0    0  0.83598123201E+01  0.59400280750E+02 -0.10286653147E+03  0.11908317729E+03  0.10000000000E+01 0.  0.
<mgrwt>
<rscale>  0 0.12500343E+03</rscale>
<asrwt>0</asrwt>
<pdfrwt beam="2">  1        4 0.26667913E-01 0.12500343E+03</pdfrwt>
<pdfrwt beam="1">  1       -4 0.34671140E-02 0.12500343E+03</pdfrwt>
<totfact> 0.90827582E+03</totfact>
</mgrwt>
</event>
<event>
 5    1  0.3277540E-002  0.1250039E+03  0.7818608E-02  0.1235063E+00
         -4   -1    0    0    0  501 -0.00000000000E+00  0.00000000000E+00  0.32679518099E+03  0.32679764873E+03  0.12700000000E+01 0.  1.
          4   -1    0    0  501    0  0.00000000000E+00 -0.00000000000E+00 -0.11917693387E+02  0.11985170657E+02  0.12700000000E+01 0.  1.
         25    2    1    2    0    0  0.00000000000E+00  0.00000000000E+00  0.31487748760E+03  0.33878281939E+03  0.12500386600E+03 0.  0.
    9000005    1    3    3    0    0  0.29213870009E+02 -0.26117508194E+02  0.28937511019E+03  0.29201802826E+03  0.10000000000E+01 0.  0.
    9000005    1    3    3    0    0 -0.29213870009E+02  0.26117508194E+02  0.25502377413E+02  0.46764791125E+02  0.10000000000E+01 0.  0.
<mgrwt>
<rscale>  0 0.12500387E+03</rscale>
<asrwt>0</asrwt>
<pdfrwt beam="2">  1        4 0.18388718E-02 0.12500387E+03</pdfrwt>
<pdfrwt beam="1">  1       -4 0.50281559E-01 0.12500387E+03</pdfrwt>
<totfact> 0.70970396E+03</totfact>
</mgrwt>
</event>
<event>
 5    1  0.3277540E-002  0.1249998E+03  0.7818608E-02  0.1235070E+00
         -4   -1    0    0    0  501 -0.00000000000E+00  0.00000000000E+00  0.33970736052E+02  0.33994467314E+02  0.12700000000E+01 0. -1.
          4   -1    0    0  501    0  0.00000000000E+00 -0.00000000000E+00 -0.11492097341E+03  0.11492799063E+03  0.12700000000E+01 0. -1.
         25    2    1    2    0    0  0.00000000000E+00  0.00000000000E+00 -0.80950237357E+02  0.14892245794E+03  0.12499983020E+03 0.  0.
    9000005    1    3    3    0    0 -0.30658850379E+02  0.49601979892E+02 -0.67245906011E+02  0.89013107973E+02  0.10000000000E+01 0.  0.
    9000005    1    3    3    0    0  0.30658850379E+02 -0.49601979892E+02 -0.13704331346E+02  0.59909349967E+02  0.10000000000E+01 0.  0.
<mgrwt>
<rscale>  0 0.12499983E+03</rscale>
<asrwt>0</asrwt>
<pdfrwt beam="2">  1        4 0.17682515E-01 0.12499983E+03</pdfrwt>
<pdfrwt beam="1">  1       -4 0.52286324E-02 0.12499983E+03</pdfrwt>
<totfact> 0.99519305E+03</totfact>
</mgrwt>
</event>
<event>
 5    1  0.3277540E-002  0.1249913E+03  0.7818608E-02  0.1235083E+00
          4   -1    0    0  501    0  0.00000000000E+00  0.00000000000E+00  0.28279042707E+02  0.28307545927E+02  0.12700000000E+01 0. -1.
         -4   -1    0    0    0  501 -0.00000000000E+00 -0.00000000000E+00 -0.13801208890E+03  0.13801793211E+03  0.12700000000E+01 0. -1.
         25    2    1    2    0    0  0.00000000000E+00  0.00000000000E+00 -0.10973304620E+03  0.16632547804E+03  0.12499129256E+03 0.  0.
    9000005    1    3    3    0    0 -0.18180639854E+02  0.33534020307E+02  0.10994749787E+02  0.39710838651E+02  0.10000000000E+01 0.  0.
    9000005    1    3    3    0    0  0.18180639854E+02 -0.33534020307E+02 -0.12072779598E+03  0.12661463938E+03  0.10000000000E+01 0.  0.
<mgrwt>
<rscale>  0 0.12499129E+03</rscale>
<asrwt>0</asrwt>
<pdfrwt beam="1">  1        4 0.43532641E-02 0.12499129E+03</pdfrwt>
<pdfrwt beam="2">  1       -4 0.21235271E-01 0.12499129E+03</pdfrwt>
<totfact> 0.96155760E+03</totfact>
</mgrwt>
</event>
<event>
 5    1  0.3277540E-002  0.1250087E+03  0.7818608E-02  0.1235056E+00
         -4   -1    0    0    0  501 -0.00000000000E+00  0.00000000000E+00  0.21928461633E+04  0.21928465311E+04  0.12700000000E+01 0.  1.
          4   -1    0    0  501    0  0.00000000000E+00 -0.00000000000E+00 -0.15548680581E+01  0.20076141756E+01  0.12700000000E+01 0.  1.
         25    2    1    2    0    0  0.00000000000E+00  0.00000000000E+00  0.21912912952E+04  0.21948541452E+04  0.12500871279E+03 0.  0.
    9000005    1    3    3    0    0  0.23208108548E+02  0.42236521125E+01  0.21117655016E+04  0.21118974855E+04  0.10000000000E+01 0.  0.
    9000005    1    3    3    0    0 -0.23208108548E+02 -0.42236521125E+01  0.79525793612E+02  0.82956659703E+02  0.10000000000E+01 0.  0.
<mgrwt>
<rscale>  0 0.12500871E+03</rscale>
<asrwt>0</asrwt>
<pdfrwt beam="2">  1        4 0.27406408E-03 0.12500871E+03</pdfrwt>
<pdfrwt beam="1">  1       -4 0.33739741E+00 0.12500871E+03</pdfrwt>
<totfact> 0.75260204E+02</totfact>
</mgrwt>
</event>
<event>
 5    1  0.3277540E-002  0.1249969E+03  0.7818608E-02  0.1235074E+00
          4   -1    0    0  501    0  0.00000000000E+00  0.00000000000E+00  0.91207749735E+01  0.92087695224E+01  0.12700000000E+01 0.  1.
         -4   -1    0    0    0  501 -0.00000000000E+00 -0.00000000000E+00 -0.42611448214E+03  0.42611637470E+03  0.12700000000E+01 0.  1.
         25    2    1    2    0    0  0.00000000000E+00  0.00000000000E+00 -0.41699370716E+03  0.43532514422E+03  0.12499691747E+03 0.  0.
    9000005    1    3    3    0    0 -0.39786162065E+02  0.18738312446E+02 -0.53879892359E+02  0.69556493915E+02  0.10000000000E+01 0.  0.
    9000005    1    3    3    0    0  0.39786162065E+02 -0.18738312446E+02 -0.36311381480E+03  0.36576865031E+03  0.10000000000E+01 0.  0.
<mgrwt>
<rscale>  0 0.12499692E+03</rscale>
<asrwt>0</asrwt>
<pdfrwt beam="1">  1        4 0.14101109E-02 0.12499692E+03</pdfrwt>
<pdfrwt beam="2">  1       -4 0.65562973E-01 0.12499692E+03</pdfrwt>
<totfact> 0.61260418E+03</totfact>
</mgrwt>
</event>
<event>
 5    1  0.3277540E-002  0.1250021E+03  0.7818608E-02  0.1235066E+00
         -4   -1    0    0    0  501 -0.00000000000E+00  0.00000000000E+00  0.33694501421E+01  0.36008463256E+01  0.12700000000E+01 0. -1.
          4   -1    0    0  501    0  0.00000000000E+00 -0.00000000000E+00 -0.11206334184E+04  0.11206341381E+04  0.12700000000E+01 0. -1.
         25    2    1    2    0    0  0.00000000000E+00  0.00000000000E+00 -0.11172639683E+04  0.11242349844E+04  0.12500210118E+03 0.  0.
    9000005    1    3    3    0    0  0.99724024518E+01 -0.60847485970E+02 -0.46712727388E+03  0.47118017293E+03  0.10000000000E+01 0.  0.
    9000005    1    3    3    0    0 -0.99724024518E+01  0.60847485970E+02 -0.65013669440E+03  0.65305481146E+03  0.10000000000E+01 0.  0.
<mgrwt>
<rscale>  0 0.12500210E+03</rscale>
<asrwt>0</asrwt>
<pdfrwt beam="2">  1        4 0.17242271E+00 0.12500210E+03</pdfrwt>
<pdfrwt beam="1">  1       -4 0.53623290E-03 0.12500210E+03</pdfrwt>
<totfact> 0.26783534E+03</totfact>
</mgrwt>
</event>
<event>
 5    1  0.3277540E-002  0.1249936E+03  0.7818608E-02  0.1235079E+00
          4   -1    0    0  501    0  0.00000000000E+00  0.00000000000E+00  0.22324777417E+02  0.22360871779E+02  0.12700000000E+01 0. -1.
         -4   -1    0    0    0  501 -0.00000000000E+00 -0.00000000000E+00 -0.17477610294E+03  0.17478071706E+03  0.12700000000E+01 0. -1.
         25    2    1    2    0    0  0.00000000000E+00  0.00000000000E+00 -0.15245132552E+03  0.19714158884E+03  0.12499359743E+03 0.  0.
    9000005    1    3    3    0    0  0.24069290600E+02 -0.52052639956E+02 -0.11537239956E+03  0.12884331049E+03  0.10000000000E+01 0.  0.
    9000005    1    3    3    0    0 -0.24069290600E+02  0.52052639956E+02 -0.37078925957E+02  0.68298278356E+02  0.10000000000E+01 0.  0.
<mgrwt>
<rscale>  0 0.12499360E+03</rscale>
<asrwt>0</asrwt>
<pdfrwt beam="1">  1        4 0.34377127E-02 0.12499360E+03</pdfrwt>
<pdfrwt beam="2">  1       -4 0.26891762E-01 0.12499360E+03</pdfrwt>
<totfact> 0.90632324E+03</totfact>
</mgrwt>
</event>
<event>
 5    1  0.3277540E-002  0.1250006E+03  0.7818608E-02  0.1235068E+00
         -4   -1    0    0    0  501 -0.00000000000E+00  0.00000000000E+00  0.29521170561E+03  0.29521443736E+03  0.12700000000E+01 0. -1.
          4   -1    0    0  501    0  0.00000000000E+00 -0.00000000000E+00 -0.13198892951E+02  0.13259852003E+02  0.12700000000E+01 0. -1.
         25    2    1    2    0    0  0.00000000000E+00  0.00000000000E+00  0.28201281266E+03  0.30847428937E+03  0.12500064279E+03 0.  0.
    9000005    1    3    3    0    0 -0.31036962950E+02 -0.16877096684E+02  0.13798051074E+02  0.37940949845E+02  0.10000000000E+01 0.  0.
    9000005    1    3    3    0    0  0.31036962950E+02  0.16877096684E+02  0.26821476158E+03  0.27053333952E+03  0.10000000000E+01 0.  0.
<mgrwt>
<rscale>  0 0.12500064E+03</rscale>
<asrwt>0</asrwt>
<pdfrwt beam="2">  1        4 0.20354984E-02 0.12500064E+03</pdfrwt>
<pdfrwt beam="1">  1       -4 0.45422081E-01 0.12500064E+03</pdfrwt>
<totfact> 0.74546926E+03</totfact>
</mgrwt>
</event>
<event>
 5    1  0.3277540E-002  0.1249717E+03  0.7818608E-02  0.1235113E+00
         -4   -1    0    0    0  501 -0.00000000000E+00  0.00000000000E+00  0.26842648115E+02  0.26872674929E+02  0.12700000000E+01 0. -1.
          4   -1    0    0  501    0  0.00000000000E+00 -0.00000000000E+00 -0.14534409784E+03  0.14534964629E+03  0.12700000000E+01 0. -1.
         25    2    1    2    0    0  0.00000000000E+00  0.00000000000E+00 -0.11850144973E+03  0.17222232122E+03  0.12497173416E+03 0.  0.
    9000005    1    3    3    0    0  0.21396255325E+02 -0.33734439793E+02 -0.12545173669E+03  0.13166225886E+03  0.10000000000E+01 0.  0.
    9000005    1    3    3    0    0 -0.21396255325E+02  0.33734439793E+02  0.69502869605E+01  0.40560062363E+02  0.10000000000E+01 0.  0.
<mgrwt>
<rscale>  0 0.12497173E+03</rscale>
<asrwt>0</asrwt>
<pdfrwt beam="2">  1        4 0.22363367E-01 0.12497173E+03</pdfrwt>
<pdfrwt beam="1">  1       -4 0.41323748E-02 0.12497173E+03</pdfrwt>
<totfact> 0.95096347E+03</totfact>
</mgrwt>
</event>
<event>
 4    1  0.3277540E-002  0.1249166E+03  0.7818608E-02  0.1235200E+00
          4   -1    0    0  501    0  0.00000000000E+00  0.00000000000E+00  0.46404776375E+03  0.46404950160E+03  0.12700000000E+01 0.  1.
         -4   -1    0    0    0  501 -0.00000000000E+00 -0.00000000000E+00 -0.83568167020E+01  0.84527679130E+01  0.12700000000E+01 0.  1.
    9000005    1    1    2    0    0  0.43887461487E+02 -0.28178952041E+02  0.35777324667E+03  0.36155616250E+03  0.10000000000E+01 0.  0.
    9000005    1    1    2    0    0 -0.43887461487E+02  0.28178952041E+02  0.97917700378E+02  0.11094610701E+03  0.10000000000E+01 0.  0.
<mgrwt>
<rscale>  0 0.12491659E+03</rscale>
<asrwt>0</asrwt>
<pdfrwt beam="1">  1        4 0.71399486E-01 0.12491659E+03</pdfrwt>
<pdfrwt beam="2">  1       -4 0.12931785E-02 0.12491659E+03</pdfrwt>
<totfact> 0.58169516E+03</totfact>
</mgrwt>
</event>
<event>
 5    1  0.3277540E-002  0.1249987E+03  0.7818608E-02  0.1235071E+00
         -4   -1    0    0    0  501 -0.00000000000E+00  0.00000000000E+00  0.28909791538E+02  0.28937673486E+02  0.12700000000E+01 0.  1.
          4   -1    0    0  501    0  0.00000000000E+00 -0.00000000000E+00 -0.13501976176E+03  0.13502573445E+03  0.12700000000E+01 0.  1.
         25    2    1    2    0    0  0.00000000000E+00  0.00000000000E+00 -0.10610997022E+03  0.16396340794E+03  0.12499869345E+03 0.  0.
    9000005    1    3    3    0    0  0.34919672969E+02  0.29789279210E+01  0.14811977120E+02  0.38061164433E+02  0.10000000000E+01 0.  0.
    9000005    1    3    3    0    0 -0.34919672969E+02 -0.29789279210E+01 -0.12092194734E+03  0.12590224351E+03  0.10000000000E+01 0.  0.
<mgrwt>
<rscale>  0 0.12499869E+03</rscale>
<asrwt>0</asrwt>
<pdfrwt beam="2">  1        4 0.20774875E-01 0.12499869E+03</pdfrwt>
<pdfrwt beam="1">  1       -4 0.44502645E-02 0.12499869E+03</pdfrwt>
<totfact> 0.96586902E+03</totfact>
</mgrwt>
</event>
<event>
 5    1  0.3277540E-002  0.1250206E+03  0.7818608E-02  0.1235037E+00
         -4   -1    0    0    0  501 -0.00000000000E+00  0.00000000000E+00  0.51246230748E+03  0.51246388115E+03  0.12700000000E+01 0. -1.
          4   -1    0    0  501    0  0.00000000000E+00 -0.00000000000E+00 -0.75705447371E+01  0.76763303483E+01  0.12700000000E+01 0. -1.
         25    2    1    2    0    0  0.00000000000E+00  0.00000000000E+00  0.50489176274E+03  0.52014021150E+03  0.12502058845E+03 0.  0.
    9000005    1    3    3    0    0  0.20013382013E+02 -0.54625672454E+02  0.34750410024E+03  0.35234159453E+03  0.10000000000E+01 0.  0.
    9000005    1    3    3    0    0 -0.20013382013E+02  0.54625672454E+02  0.15738766250E+03  0.16779861698E+03  0.10000000000E+01 0.  0.
<mgrwt>
<rscale>  0 0.12502059E+03</rscale>
<asrwt>0</asrwt>
<pdfrwt beam="2">  1        4 0.11729582E-02 0.12502059E+03</pdfrwt>
<pdfrwt beam="1">  1       -4 0.78848574E-01 0.12502059E+03</pdfrwt>
<totfact> 0.54310350E+03</totfact>
</mgrwt>
</event>
<event>
 5    1  0.3277540E-002  0.1250004E+03  0.7818608E-02  0.1235069E+00
          4   -1    0    0  501    0  0.00000000000E+00  0.00000000000E+00  0.66950687838E+01  0.68144586007E+01  0.12700000000E+01 0. -1.
         -4   -1    0    0    0  501 -0.00000000000E+00 -0.00000000000E+00 -0.57817872779E+03  0.57818012260E+03  0.12700000000E+01 0. -1.
         25    2    1    2    0    0  0.00000000000E+00  0.00000000000E+00 -0.57148365901E+03  0.58499458120E+03  0.12500035009E+03 0.  0.
    9000005    1    3    3    0    0  0.50476955417E+02  0.48705730450E+01 -0.11483567550E+03  0.12553835221E+03  0.10000000000E+01 0.  0.
    9000005    1    3    3    0    0 -0.50476955417E+02 -0.48705730450E+01 -0.45664798351E+03  0.45945622898E+03  0.10000000000E+01 0.  0.
<mgrwt>
<rscale>  0 0.12500035E+03</rscale>
<asrwt>0</asrwt>
<pdfrwt beam="1">  1        4 0.10393022E-02 0.12500035E+03</pdfrwt>
<pdfrwt beam="2">  1       -4 0.88959826E-01 0.12500035E+03</pdfrwt>
<totfact> 0.49828338E+03</totfact>
</mgrwt>
</event>
<event>
 5    1  0.3277540E-002  0.1249986E+03  0.7818608E-02  0.1235071E+00
          4   -1    0    0  501    0  0.00000000000E+00  0.00000000000E+00  0.20311327818E+03  0.20311724859E+03  0.12700000000E+01 0.  1.
         -4   -1    0    0    0  501 -0.00000000000E+00 -0.00000000000E+00 -0.19206324154E+02  0.19248267130E+02  0.12700000000E+01 0.  1.
         25    2    1    2    0    0  0.00000000000E+00  0.00000000000E+00  0.18390695403E+03  0.22236551572E+03  0.12499861935E+03 0.  0.
    9000005    1    3    3    0    0  0.27507869041E+02 -0.21518721924E+02  0.18414028398E+03  0.18742567177E+03  0.10000000000E+01 0.  0.
    9000005    1    3    3    0    0 -0.27507869041E+02  0.21518721924E+02 -0.23332995413E+00  0.34939843950E+02  0.10000000000E+01 0.  0.
<mgrwt>
<rscale>  0 0.12499862E+03</rscale>
<asrwt>0</asrwt>
<pdfrwt beam="1">  1        4 0.31251727E-01 0.12499862E+03</pdfrwt>
<pdfrwt beam="2">  1       -4 0.29583510E-02 0.12499862E+03</pdfrwt>
<totfact> 0.86498084E+03</totfact>
</mgrwt>
</event>
<event>
 5    1  0.3277540E-002  0.1249997E+03  0.7818608E-02  0.1235070E+00
          4   -1    0    0  501    0  0.00000000000E+00  0.00000000000E+00  0.26853974935E+03  0.26854275243E+03  0.12700000000E+01 0.  1.
         -4   -1    0    0    0  501 -0.00000000000E+00 -0.00000000000E+00 -0.14515378080E+02  0.14570830477E+02  0.12700000000E+01 0.  1.
         25    2    1    2    0    0  0.00000000000E+00  0.00000000000E+00  0.25402437127E+03  0.28311358290E+03  0.12499967850E+03 0.  0.
    9000005    1    3    3    0    0  0.44194609827E+02 -0.28310604476E+02  0.20383840702E+03  0.21048931099E+03  0.10000000000E+01 0.  0.
    9000005    1    3    3    0    0 -0.44194609827E+02  0.28310604476E+02  0.50185964248E+02  0.72624271914E+02  0.10000000000E+01 0.  0.
<mgrwt>
<rscale>  0 0.12499968E+03</rscale>
<asrwt>0</asrwt>
<pdfrwt beam="1">  1        4 0.41318302E-01 0.12499968E+03</pdfrwt>
<pdfrwt beam="2">  1       -4 0.22376318E-02 0.12499968E+03</pdfrwt>
<totfact> 0.77767626E+03</totfact>
</mgrwt>
</event>
<event>
 5    1  0.3277540E-002  0.1250006E+03  0.7818608E-02  0.1235068E+00
          4   -1    0    0  501    0  0.00000000000E+00  0.00000000000E+00  0.28542955150E+02  0.28571195087E+02  0.12700000000E+01 0.  1.
         -4   -1    0    0    0  501 -0.00000000000E+00 -0.00000000000E+00 -0.13675750664E+03  0.13676340345E+03  0.12700000000E+01 0.  1.
         25    2    1    2    0    0  0.00000000000E+00  0.00000000000E+00 -0.10821455149E+03  0.16533459854E+03  0.12500056127E+03 0.  0.
    9000005    1    3    3    0    0 -0.61691930306E+01  0.60473562907E+02 -0.73282551328E+02  0.95217871655E+02  0.10000000000E+01 0.  0.
    9000005    1    3    3    0    0  0.61691930306E+01 -0.60473562907E+02 -0.34932000165E+02  0.70116726883E+02  0.10000000000E+01 0.  0.
<mgrwt>
<rscale>  0 0.12500056E+03</rscale>
<asrwt>0</asrwt>
<pdfrwt beam="1">  1        4 0.43938498E-02 0.12500056E+03</pdfrwt>
<pdfrwt beam="2">  1       -4 0.21042242E-01 0.12500056E+03</pdfrwt>
<totfact> 0.96322848E+03</totfact>
</mgrwt>
</event>
<event>
 5    1  0.3277540E-002  0.1250137E+03  0.7818608E-02  0.1235048E+00
          4   -1    0    0  501    0  0.00000000000E+00  0.00000000000E+00  0.16263244328E+03  0.16263740193E+03  0.12700000000E+01 0.  1.
         -4   -1    0    0    0  501 -0.00000000000E+00 -0.00000000000E+00 -0.24002034558E+02  0.24035610309E+02  0.12700000000E+01 0.  1.
         25    2    1    2    0    0  0.00000000000E+00  0.00000000000E+00  0.13863040872E+03  0.18667301224E+03  0.12501369236E+03 0.  0.
    9000005    1    3    3    0    0  0.49464762495E+02  0.34807714047E+02  0.45811034094E+02  0.75881424148E+02  0.10000000000E+01 0.  0.
    9000005    1    3    3    0    0 -0.49464762495E+02 -0.34807714047E+02  0.92819374630E+02  0.11079158810E+03  0.10000000000E+01 0.  0.
<mgrwt>
<rscale>  0 0.12501369E+03</rscale>
<asrwt>0</asrwt>
<pdfrwt beam="1">  1        4 0.25023341E-01 0.12501369E+03</pdfrwt>
<pdfrwt beam="2">  1       -4 0.36955848E-02 0.12501369E+03</pdfrwt>
<totfact> 0.92401090E+03</totfact>
</mgrwt>
</event>
<event>
 5    1  0.3277540E-002  0.1250001E+03  0.7818608E-02  0.1235069E+00
          4   -1    0    0  501    0  0.00000000000E+00  0.00000000000E+00  0.56838809691E+02  0.56852996289E+02  0.12700000000E+01 0. -1.
         -4   -1    0    0    0  501 -0.00000000000E+00 -0.00000000000E+00 -0.68696545931E+02  0.68708284238E+02  0.12700000000E+01 0. -1.
         25    2    1    2    0    0  0.00000000000E+00  0.00000000000E+00 -0.11857736241E+02  0.12556128053E+03  0.12500011703E+03 0.  0.
    9000005    1    3    3    0    0  0.22562775860E+02  0.58268875552E+02 -0.49671767058E+01  0.62689820202E+02  0.10000000000E+01 0.  0.
    9000005    1    3    3    0    0 -0.22562775860E+02 -0.58268875552E+02 -0.68905595348E+01  0.62871460324E+02  0.10000000000E+01 0.  0.
<mgrwt>
<rscale>  0 0.12500012E+03</rscale>
<asrwt>0</asrwt>
<pdfrwt beam="1">  1        4 0.87464265E-02 0.12500012E+03</pdfrwt>
<pdfrwt beam="2">  1       -4 0.10570694E-01 0.12500012E+03</pdfrwt>
<totfact> 0.10440573E+04</totfact>
</mgrwt>
</event>
<event>
 5    1  0.3277540E-002  0.1249980E+03  0.7818608E-02  0.1235072E+00
         -4   -1    0    0    0  501 -0.00000000000E+00  0.00000000000E+00  0.76042697759E+02  0.76053302246E+02  0.12700000000E+01 0.  1.
          4   -1    0    0  501    0  0.00000000000E+00 -0.00000000000E+00 -0.51345482319E+02  0.51361186265E+02  0.12700000000E+01 0.  1.
         25    2    1    2    0    0  0.00000000000E+00  0.00000000000E+00  0.24697215440E+02  0.12741448851E+03  0.12499799771E+03 0.  0.
    9000005    1    3    3    0    0 -0.10758110776E+01  0.43880668968E+02 -0.32991106571E+02  0.54918881920E+02  0.10000000000E+01 0.  0.
    9000005    1    3    3    0    0  0.10758110776E+01 -0.43880668968E+02  0.57688322011E+02  0.72495606591E+02  0.10000000000E+01 0.  0.
<mgrwt>
<rscale>  0 0.12499800E+03</rscale>
<asrwt>0</asrwt>
<pdfrwt beam="2">  1        4 0.79013287E-02 0.12499800E+03</pdfrwt>
<pdfrwt beam="1">  1       -4 0.11700900E-01 0.12499800E+03</pdfrwt>
<totfact> 0.10400623E+04</totfact>
</mgrwt>
</event>
<event>
 5    1  0.3277540E-002  0.1249981E+03  0.7818608E-02  0.1235072E+00
          4   -1    0    0  501    0  0.00000000000E+00  0.00000000000E+00  0.17954885451E+02  0.17999744764E+02  0.12700000000E+01 0. -1.
         -4   -1    0    0    0  501 -0.00000000000E+00 -0.00000000000E+00 -0.21723456985E+03  0.21723828216E+03  0.12700000000E+01 0. -1.
         25    2    1    2    0    0  0.00000000000E+00  0.00000000000E+00 -0.19927968439E+03  0.23523802692E+03  0.12499814678E+03 0.  0.
    9000005    1    3    3    0    0 -0.31557901590E+02  0.74183597625E+01  0.90185864481E+00  0.32446056206E+02  0.10000000000E+01 0.  0.
    9000005    1    3    3    0    0  0.31557901590E+02 -0.74183597625E+01 -0.20018154304E+03  0.20279197072E+03  0.10000000000E+01 0.  0.
<mgrwt>
<rscale>  0 0.12499815E+03</rscale>
<asrwt>0</asrwt>
<pdfrwt beam="1">  1        4 0.27660265E-02 0.12499815E+03</pdfrwt>
<pdfrwt beam="2">  1       -4 0.33424438E-01 0.12499815E+03</pdfrwt>
<totfact> 0.84515223E+03</totfact>
</mgrwt>
</event>
<event>
 5    1  0.3277540E-002  0.1249993E+03  0.7818608E-02  0.1235070E+00
          4   -1    0    0  501    0  0.00000000000E+00  0.00000000000E+00  0.13686158294E+02  0.13744956488E+02  0.12700000000E+01 0. -1.
         -4   -1    0    0    0  501 -0.00000000000E+00 -0.00000000000E+00 -0.28474099661E+03  0.28474382882E+03  0.12700000000E+01 0. -1.
         25    2    1    2    0    0  0.00000000000E+00  0.00000000000E+00 -0.27105483831E+03  0.29848878530E+03  0.12499931831E+03 0.  0.
    9000005    1    3    3    0    0  0.33845652950E+02  0.40299102898E+02 -0.55055414341E+02  0.76168527400E+02  0.10000000000E+01 0.  0.
    9000005    1    3    3    0    0 -0.33845652950E+02 -0.40299102898E+02 -0.21599942397E+03  0.22232025791E+03  0.10000000000E+01 0.  0.
<mgrwt>
<rscale>  0 0.12499932E+03</rscale>
<asrwt>0</asrwt>
<pdfrwt beam="1">  1        4 0.21103038E-02 0.12499932E+03</pdfrwt>
<pdfrwt beam="2">  1       -4 0.43811044E-01 0.12499932E+03</pdfrwt>
<totfact> 0.75789943E+03</totfact>
</mgrwt>
</event>
<event>
 5    1  0.3277540E-002  0.1250011E+03  0.7818608E-02  0.1235068E+00
          4   -1    0    0  501    0  0.00000000000E+00  0.00000000000E+00  0.70693096030E+03  0.70693210108E+03  0.12700000000E+01 0. -1.
         -4   -1    0    0    0  501 -0.00000000000E+00 -0.00000000000E+00 -0.54516126888E+01  0.55975870613E+01  0.12700000000E+01 0. -1.
         25    2    1    2    0    0  0.00000000000E+00  0.00000000000E+00  0.70147934761E+03  0.71252968814E+03  0.12500112540E+03 0.  0.
    9000005    1    3    3    0    0 -0.16008377867E+01 -0.68922886210E+01  0.70466817769E+03  0.70470441106E+03  0.10000000000E+01 0.  0.
    9000005    1    3    3    0    0  0.16008377867E+01  0.68922886210E+01 -0.31888300759E+01  0.78252770754E+01  0.10000000000E+01 0.  0.
<mgrwt>
<rscale>  0 0.12500113E+03</rscale>
<asrwt>0</asrwt>
<pdfrwt beam="1">  1        4 0.10876990E+00 0.12500113E+03</pdfrwt>
<pdfrwt beam="2">  1       -4 0.85002639E-03 0.12500113E+03</pdfrwt>
<totfact> 0.42432438E+03</totfact>
</mgrwt>
</event>
<event>
 5    1  0.3277540E-002  0.1250000E+03  0.7818608E-02  0.1235069E+00
          4   -1    0    0  501    0  0.00000000000E+00  0.00000000000E+00  0.52675053123E+02  0.52690360803E+02  0.12700000000E+01 0. -1.
         -4   -1    0    0    0  501 -0.00000000000E+00 -0.00000000000E+00 -0.74125990408E+02  0.74136869059E+02  0.12700000000E+01 0. -1.
         25    2    1    2    0    0  0.00000000000E+00  0.00000000000E+00 -0.21450937285E+02  0.12682722986E+03  0.12500001410E+03 0.  0.
    9000005    1    3    3    0    0  0.34147027149E+02 -0.23945892952E+02  0.36493249068E+02  0.55427271987E+02  0.10000000000E+01 0.  0.
    9000005    1    3    3    0    0 -0.34147027149E+02  0.23945892952E+02 -0.57944186353E+02  0.71399957875E+02  0.10000000000E+01 0.  0.
<mgrwt>
<rscale>  0 0.12500001E+03</rscale>
<asrwt>0</asrwt>
<pdfrwt beam="1">  1        4 0.81058686E-02 0.12500001E+03</pdfrwt>
<pdfrwt beam="2">  1       -4 0.11406013E-01 0.12500001E+03</pdfrwt>
<totfact> 0.10412898E+04</totfact>
</mgrwt>
</event>
<event>
 5    1  0.3277540E-002  0.1249959E+03  0.7818608E-02  0.1235076E+00
          4   -1    0    0  501    0  0.00000000000E+00  0.00000000000E+00  0.23744308230E+02  0.23778247903E+02  0.12700000000E+01 0. -1.
         -4   -1    0    0    0  501 -0.00000000000E+00 -0.00000000000E+00 -0.16434841896E+03  0.16435332584E+03  0.12700000000E+01 0. -1.
         25    2    1    2    0    0  0.00000000000E+00  0.00000000000E+00 -0.14060411072E+03  0.18813157374E+03  0.12499589227E+03 0.  0.
    9000005    1    3    3    0    0 -0.41339670517E+02 -0.42863924403E+02 -0.41796006719E+02  0.72761188496E+02  0.10000000000E+01 0.  0.
    9000005    1    3    3    0    0  0.41339670517E+02  0.42863924403E+02 -0.98808104006E+02  0.11537038524E+03  0.10000000000E+01 0.  0.
<mgrwt>
<rscale>  0 0.12499589E+03</rscale>
<asrwt>0</asrwt>
<pdfrwt beam="1">  1        4 0.36559588E-02 0.12499589E+03</pdfrwt>
<pdfrwt beam="2">  1       -4 0.25287360E-01 0.12499589E+03</pdfrwt>
<totfact> 0.92181918E+03</totfact>
</mgrwt>
</event>
<event>
 5    1  0.3277540E-002  0.1249965E+03  0.7818608E-02  0.1235075E+00
          4   -1    0    0  501    0  0.00000000000E+00  0.00000000000E+00  0.15870899396E+03  0.15871407520E+03  0.12700000000E+01 0.  1.
         -4   -1    0    0    0  501 -0.00000000000E+00 -0.00000000000E+00 -0.24589396957E+02  0.24622171771E+02  0.12700000000E+01 0.  1.
         25    2    1    2    0    0  0.00000000000E+00  0.00000000000E+00  0.13411959701E+03  0.18333624697E+03  0.12499645255E+03 0.  0.
    9000005    1    3    3    0    0 -0.58905743371E+02 -0.20756021859E+02  0.70111602100E+02  0.93900669830E+02  0.10000000000E+01 0.  0.
    9000005    1    3    3    0    0  0.58905743371E+02  0.20756021859E+02  0.64007994907E+02  0.89435577136E+02  0.10000000000E+01 0.  0.
<mgrwt>
<rscale>  0 0.12499645E+03</rscale>
<asrwt>0</asrwt>
<pdfrwt beam="1">  1        4 0.24419681E-01 0.12499645E+03</pdfrwt>
<pdfrwt beam="2">  1       -4 0.37858960E-02 0.12499645E+03</pdfrwt>
<totfact> 0.93027287E+03</totfact>
</mgrwt>
</event>
<event>
 5    1  0.3277540E-002  0.1250003E+03  0.7818608E-02  0.1235069E+00
         -4   -1    0    0    0  501 -0.00000000000E+00  0.00000000000E+00  0.15261584864E+03  0.15262113273E+03  0.12700000000E+01 0. -1.
          4   -1    0    0  501    0  0.00000000000E+00 -0.00000000000E+00 -0.25573946864E+02  0.25605461492E+02  0.12700000000E+01 0. -1.
         25    2    1    2    0    0  0.00000000000E+00  0.00000000000E+00  0.12704190178E+03  0.17822659422E+03  0.12500029633E+03 0.  0.
    9000005    1    3    3    0    0  0.33627047505E+02  0.56387453708E+01  0.13819164751E+03  0.14233940148E+03  0.10000000000E+01 0.  0.
    9000005    1    3    3    0    0 -0.33627047505E+02 -0.56387453708E+01 -0.11149745728E+02  0.35887192744E+02  0.10000000000E+01 0.  0.
<mgrwt>
<rscale>  0 0.12500030E+03</rscale>
<asrwt>0</asrwt>
<pdfrwt beam="2">  1        4 0.39372840E-02 0.12500030E+03</pdfrwt>
<pdfrwt beam="1">  1       -4 0.23482192E-01 0.12500030E+03</pdfrwt>
<totfact> 0.93936575E+03</totfact>
</mgrwt>
</event>
<event>
 5    1  0.3277540E-002  0.1250015E+03  0.7818608E-02  0.1235067E+00
         -4   -1    0    0    0  501 -0.00000000000E+00  0.00000000000E+00  0.44656883914E+02  0.44674939070E+02  0.12700000000E+01 0.  1.
          4   -1    0    0  501    0  0.00000000000E+00 -0.00000000000E+00 -0.87434209642E+02  0.87443432662E+02  0.12700000000E+01 0.  1.
         25    2    1    2    0    0  0.00000000000E+00  0.00000000000E+00 -0.42777325729E+02  0.13211837173E+03  0.12500145820E+03 0.  0.
    9000005    1    3    3    0    0 -0.52920250728E+02  0.29014989020E+02 -0.38526610039E+02  0.71608115504E+02  0.10000000000E+01 0.  0.
    9000005    1    3    3    0    0  0.52920250728E+02 -0.29014989020E+02 -0.42507156893E+01  0.60510256228E+02  0.10000000000E+01 0.  0.
<mgrwt>
<rscale>  0 0.12500146E+03</rscale>
<asrwt>0</asrwt>
<pdfrwt beam="2">  1        4 0.13453515E-01 0.12500146E+03</pdfrwt>
<pdfrwt beam="1">  1       -4 0.68723882E-02 0.12500146E+03</pdfrwt>
<totfact> 0.10298834E+04</totfact>
</mgrwt>
</event>
<event>
 5    1  0.3277540E-002  0.1250067E+03  0.7818608E-02  0.1235059E+00
         -4   -1    0    0    0  501 -0.00000000000E+00  0.00000000000E+00  0.17951756505E+03  0.17952205731E+03  0.12700000000E+01 0.  1.
          4   -1    0    0  501    0  0.00000000000E+00 -0.00000000000E+00 -0.21738740099E+02  0.21775805865E+02  0.12700000000E+01 0.  1.
         25    2    1    2    0    0  0.00000000000E+00  0.00000000000E+00  0.15777882495E+03  0.20129786318E+03  0.12500668829E+03 0.  0.
    9000005    1    3    3    0    0 -0.26142644347E+02  0.20192181967E+02  0.16431874270E+03  0.16760910259E+03  0.10000000000E+01 0.  0.
    9000005    1    3    3    0    0  0.26142644347E+02 -0.20192181967E+02 -0.65399177507E+01  0.33688760592E+02  0.10000000000E+01 0.  0.
<mgrwt>
<rscale>  0 0.12500669E+03</rscale>
<asrwt>0</asrwt>
<pdfrwt beam="2">  1        4 0.33476184E-02 0.12500669E+03</pdfrwt>
<pdfrwt beam="1">  1       -4 0.27621283E-01 0.12500669E+03</pdfrwt>
<totfact> 0.89903618E+03</totfact>
</mgrwt>
</event>
<event>
 5    1  0.3277540E-002  0.1249986E+03  0.7818608E-02  0.1235071E+00
         -4   -1    0    0    0  501 -0.00000000000E+00  0.00000000000E+00  0.13305332544E+02  0.13365806152E+02  0.12700000000E+01 0. -1.
          4   -1    0    0  501    0  0.00000000000E+00 -0.00000000000E+00 -0.29285118712E+03  0.29285394089E+03  0.12700000000E+01 0. -1.
         25    2    1    2    0    0  0.00000000000E+00  0.00000000000E+00 -0.27954585458E+03  0.30621974705E+03  0.12499859467E+03 0.  0.
    9000005    1    3    3    0    0 -0.27255248524E+02 -0.79830968402E+01 -0.34058026711E+01  0.28621284022E+02  0.10000000000E+01 0.  0.
    9000005    1    3    3    0    0  0.27255248524E+02  0.79830968402E+01 -0.27614005190E+03  0.27759846302E+03  0.10000000000E+01 0.  0.
<mgrwt>
<rscale>  0 0.12499859E+03</rscale>
<asrwt>0</asrwt>
<pdfrwt beam="2">  1        4 0.45058888E-01 0.12499859E+03</pdfrwt>
<pdfrwt beam="1">  1       -4 0.20518381E-02 0.12499859E+03</pdfrwt>
<totfact> 0.74827546E+03</totfact>
</mgrwt>
</event>
<event>
 5    1  0.3277540E-002  0.1249993E+03  0.7818608E-02  0.1235070E+00
         -4   -1    0    0    0  501 -0.00000000000E+00  0.00000000000E+00  0.78826465111E+02  0.78836695148E+02  0.12700000000E+01 0.  1.
          4   -1    0    0  501    0  0.00000000000E+00 -0.00000000000E+00 -0.49532944498E+02  0.49549222907E+02  0.12700000000E+01 0.  1.
         25    2    1    2    0    0  0.00000000000E+00  0.00000000000E+00  0.29293520612E+02  0.12838591805E+03  0.12499933442E+03 0.  0.
    9000005    1    3    3    0    0  0.87052339101E+01  0.24269104856E+02  0.73113858380E+02  0.77533262766E+02  0.10000000000E+01 0.  0.
    9000005    1    3    3    0    0 -0.87052339101E+01 -0.24269104856E+02 -0.43820337767E+02  0.50852655289E+02  0.10000000000E+01 0.  0.
<mgrwt>
<rscale>  0 0.12499933E+03</rscale>
<asrwt>0</asrwt>
<pdfrwt beam="2">  1        4 0.76224922E-02 0.12499933E+03</pdfrwt>
<pdfrwt beam="1">  1       -4 0.12129187E-01 0.12499933E+03</pdfrwt>
<totfact> 0.10379318E+04</totfact>
</mgrwt>
</event>
<event>
 5    1  0.3277540E-002  0.1249979E+03  0.7818608E-02  0.1235073E+00
         -4   -1    0    0    0  501 -0.00000000000E+00  0.00000000000E+00  0.10870566572E+03  0.10871308412E+03  0.12700000000E+01 0.  1.
          4   -1    0    0  501    0  0.00000000000E+00 -0.00000000000E+00 -0.35913106005E+02  0.35935554579E+02  0.12700000000E+01 0.  1.
         25    2    1    2    0    0  0.00000000000E+00  0.00000000000E+00  0.72792559714E+02  0.14464863870E+03  0.12499788770E+03 0.  0.
    9000005    1    3    3    0    0  0.46976487837E+02 -0.21351895847E+02 -0.43930540356E+01  0.51797613743E+02  0.10000000000E+01 0.  0.
    9000005    1    3    3    0    0 -0.46976487837E+02  0.21351895847E+02  0.77185613749E+02  0.92851024957E+02  0.10000000000E+01 0.  0.
<mgrwt>
<rscale>  0 0.12499789E+03</rscale>
<asrwt>0</asrwt>
<pdfrwt beam="2">  1        4 0.55273906E-02 0.12499789E+03</pdfrwt>
<pdfrwt beam="1">  1       -4 0.16726246E-01 0.12499789E+03</pdfrwt>
<totfact> 0.10038610E+04</totfact>
</mgrwt>
</event>
<event>
 5    1  0.3277540E-002  0.1250027E+03  0.7818608E-02  0.1235065E+00
          4   -1    0    0  501    0  0.00000000000E+00  0.00000000000E+00  0.14232196054E+04  0.14232201721E+04  0.12700000000E+01 0.  1.
         -4   -1    0    0    0  501 -0.00000000000E+00 -0.00000000000E+00 -0.25972722042E+01  0.28911456039E+01  0.12700000000E+01 0.  1.
         25    2    1    2    0    0  0.00000000000E+00  0.00000000000E+00  0.14206223332E+04  0.14261113177E+04  0.12500270689E+03 0.  0.
    9000005    1    3    3    0    0 -0.28779581664E+02  0.52470544026E+02  0.91566575796E+03  0.91761985735E+03  0.10000000000E+01 0.  0.
    9000005    1    3    3    0    0  0.28779581664E+02 -0.52470544026E+02  0.50495657528E+03  0.50849146033E+03  0.10000000000E+01 0.  0.
<mgrwt>
<rscale>  0 0.12500271E+03</rscale>
<asrwt>0</asrwt>
<pdfrwt beam="1">  1        4 0.21898026E+00 0.12500271E+03</pdfrwt>
<pdfrwt beam="2">  1       -4 0.42222813E-03 0.12500271E+03</pdfrwt>
<totfact> 0.19426182E+03</totfact>
</mgrwt>
</event>
<event>
 5    1  0.3277540E-002  0.1249997E+03  0.7818608E-02  0.1235070E+00
          4   -1    0    0  501    0  0.00000000000E+00  0.00000000000E+00  0.44289984723E+02  0.44308189387E+02  0.12700000000E+01 0. -1.
         -4   -1    0    0    0  501 -0.00000000000E+00 -0.00000000000E+00 -0.88155871580E+02  0.88165019106E+02  0.12700000000E+01 0. -1.
         25    2    1    2    0    0  0.00000000000E+00  0.00000000000E+00 -0.43865886856E+02  0.13247320849E+03  0.12499973976E+03 0.  0.
    9000005    1    3    3    0    0  0.17346619148E+02 -0.57312823146E+02 -0.40878229199E+02  0.72509961490E+02  0.10000000000E+01 0.  0.
    9000005    1    3    3    0    0 -0.17346619148E+02  0.57312823146E+02 -0.29876576569E+01  0.59963247003E+02  0.10000000000E+01 0.  0.
<mgrwt>
<rscale>  0 0.12499974E+03</rscale>
<asrwt>0</asrwt>
<pdfrwt beam="1">  1        4 0.68159478E-02 0.12499974E+03</pdfrwt>
<pdfrwt beam="2">  1       -4 0.13564546E-01 0.12499974E+03</pdfrwt>
<totfact> 0.10291669E+04</totfact>
</mgrwt>
</event>
<event>
 5    1  0.3277540E-002  0.1250022E+03  0.7818608E-02  0.1235066E+00
         -4   -1    0    0    0  501 -0.00000000000E+00  0.00000000000E+00  0.34982598279E+03  0.34982828807E+03  0.12700000000E+01 0. -1.
          4   -1    0    0  501    0  0.00000000000E+00 -0.00000000000E+00 -0.11128199461E+02  0.11200434065E+02  0.12700000000E+01 0. -1.
         25    2    1    2    0    0  0.00000000000E+00  0.00000000000E+00  0.33869778333E+03  0.36102872214E+03  0.12500219908E+03 0.  0.
    9000005    1    3    3    0    0  0.11789017217E+02  0.50291199284E+01 -0.73055653666E+01  0.14786624345E+02  0.10000000000E+01 0.  0.
    9000005    1    3    3    0    0 -0.11789017217E+02 -0.50291199284E+01  0.34600334870E+03  0.34624209779E+03  0.10000000000E+01 0.  0.
<mgrwt>
<rscale>  0 0.12500220E+03</rscale>
<asrwt>0</asrwt>
<pdfrwt beam="2">  1        4 0.17177645E-02 0.12500220E+03</pdfrwt>
<pdfrwt beam="1">  1       -4 0.53825116E-01 0.12500220E+03</pdfrwt>
<totfact> 0.68524728E+03</totfact>
</mgrwt>
</event>
<event>
 5    1  0.3277540E-002  0.1250405E+03  0.7818608E-02  0.1235006E+00
          4   -1    0    0  501    0  0.00000000000E+00  0.00000000000E+00  0.54445558976E+03  0.54445707097E+03  0.12700000000E+01 0.  1.
         -4   -1    0    0    0  501 -0.00000000000E+00 -0.00000000000E+00 -0.71215816226E+01  0.72339356375E+01  0.12700000000E+01 0.  1.
         25    2    1    2    0    0  0.00000000000E+00  0.00000000000E+00  0.53733400814E+03  0.55169100660E+03  0.12504051528E+03 0.  0.
    9000005    1    3    3    0    0 -0.59884882884E+02 -0.79096785805E+01  0.19765821012E+03  0.20668461539E+03  0.10000000000E+01 0.  0.
    9000005    1    3    3    0    0  0.59884882884E+02  0.79096785805E+01  0.33967579802E+03  0.34500639121E+03  0.10000000000E+01 0.  0.
<mgrwt>
<rscale>  0 0.12504052E+03</rscale>
<asrwt>0</asrwt>
<pdfrwt beam="1">  1        4 0.83771198E-01 0.12504052E+03</pdfrwt>
<pdfrwt beam="2">  1       -4 0.11043839E-02 0.12504052E+03</pdfrwt>
<totfact> 0.52019963E+03</totfact>
</mgrwt>
</event>
<event>
 5    1  0.3277540E-002  0.1250109E+03  0.7818608E-02  0.1235052E+00
          4   -1    0    0  501    0  0.00000000000E+00  0.00000000000E+00  0.12458513892E+03  0.12459161184E+03  0.12700000000E+01 0. -1.
         -4   -1    0    0    0  501 -0.00000000000E+00 -0.00000000000E+00 -0.31339390161E+02  0.31365112397E+02  0.12700000000E+01 0. -1.
         25    2    1    2    0    0  0.00000000000E+00  0.00000000000E+00  0.93245748764E+02  0.15595672424E+03  0.12501092021E+03 0.  0.
    9000005    1    3    3    0    0 -0.43369452440E+02 -0.29456748421E+02  0.89063664968E+02  0.10335349946E+03  0.10000000000E+01 0.  0.
    9000005    1    3    3    0    0  0.43369452440E+02  0.29456748421E+02  0.41820837957E+01  0.52603224781E+02  0.10000000000E+01 0.  0.
<mgrwt>
<rscale>  0 0.12501092E+03</rscale>
<asrwt>0</asrwt>
<pdfrwt beam="1">  1        4 0.19169422E-01 0.12501092E+03</pdfrwt>
<pdfrwt beam="2">  1       -4 0.48239211E-02 0.12501092E+03</pdfrwt>
<totfact> 0.98103915E+03</totfact>
</mgrwt>
</event>
<event>
 5    1  0.3277540E-002  0.1250116E+03  0.7818608E-02  0.1235051E+00
         -4   -1    0    0    0  501 -0.00000000000E+00  0.00000000000E+00  0.33281786473E+03  0.33282028782E+03  0.12700000000E+01 0. -1.
          4   -1    0    0  501    0  0.00000000000E+00 -0.00000000000E+00 -0.11702255517E+02  0.11770967852E+02  0.12700000000E+01 0. -1.
         25    2    1    2    0    0  0.00000000000E+00  0.00000000000E+00  0.32111560921E+03  0.34459125567E+03  0.12501159548E+03 0.  0.
    9000005    1    3    3    0    0 -0.44335639116E+02  0.43670795457E+02  0.17643746057E+03  0.18709346531E+03  0.10000000000E+01 0.  0.
    9000005    1    3    3    0    0  0.44335639116E+02 -0.43670795457E+02  0.14467814865E+03  0.15749779036E+03  0.10000000000E+01 0.  0.
<mgrwt>
<rscale>  0 0.12501160E+03</rscale>
<asrwt>0</asrwt>
<pdfrwt beam="2">  1        4 0.18058186E-02 0.12501160E+03</pdfrwt>
<pdfrwt beam="1">  1       -4 0.51208229E-01 0.12501160E+03</pdfrwt>
<totfact> 0.70305655E+03</totfact>
</mgrwt>
</event>
<event>
 5    1  0.3277540E-002  0.1249988E+03  0.7818608E-02  0.1235071E+00
         -4   -1    0    0    0  501 -0.00000000000E+00  0.00000000000E+00  0.26890349436E+03  0.26890649337E+03  0.12700000000E+01 0.  1.
          4   -1    0    0  501    0  0.00000000000E+00 -0.00000000000E+00 -0.14495454105E+02  0.14550982431E+02  0.12700000000E+01 0.  1.
         25    2    1    2    0    0  0.00000000000E+00  0.00000000000E+00  0.25440804025E+03  0.28345747580E+03  0.12499875857E+03 0.  0.
    9000005    1    3    3    0    0 -0.45073188614E+02  0.43212565914E+02  0.13287514228E+03  0.14681866919E+03  0.10000000000E+01 0.  0.
    9000005    1    3    3    0    0  0.45073188614E+02 -0.43212565914E+02  0.12153289797E+03  0.13663880661E+03  0.10000000000E+01 0.  0.
<mgrwt>
<rscale>  0 0.12499876E+03</rscale>
<asrwt>0</asrwt>
<pdfrwt beam="2">  1        4 0.22345721E-02 0.12499876E+03</pdfrwt>
<pdfrwt beam="1">  1       -4 0.41374268E-01 0.12499876E+03</pdfrwt>
<totfact> 0.77724037E+03</totfact>
</mgrwt>
</event>
<event>
 5    1  0.3277540E-002  0.1249440E+03  0.7818608E-02  0.1235157E+00
         -4   -1    0    0    0  501 -0.00000000000E+00  0.00000000000E+00  0.13141538004E+02  0.13202761874E+02  0.12700000000E+01 0. -1.
          4   -1    0    0  501    0  0.00000000000E+00 -0.00000000000E+00 -0.29622570423E+03  0.29622842663E+03  0.12700000000E+01 0. -1.
         25    2    1    2    0    0  0.00000000000E+00  0.00000000000E+00 -0.28308416622E+03  0.30943118851E+03  0.12494404849E+03 0.  0.
    9000005    1    3    3    0    0 -0.33059711588E+02  0.52802707147E+02 -0.13027894292E+03  0.14441147246E+03  0.10000000000E+01 0.  0.
    9000005    1    3    3    0    0  0.33059711588E+02 -0.52802707147E+02 -0.15280522331E+03  0.16501971604E+03  0.10000000000E+01 0.  0.
<mgrwt>
<rscale>  0 0.12494405E+03</rscale>
<asrwt>0</asrwt>
<pdfrwt beam="2">  1        4 0.45578099E-01 0.12494405E+03</pdfrwt>
<pdfrwt beam="1">  1       -4 0.20266942E-02 0.12494405E+03</pdfrwt>
<totfact> 0.74523306E+03</totfact>
</mgrwt>
</event>
<event>
 5    1  0.3277540E-002  0.1250002E+03  0.7818608E-02  0.1235069E+00
         -4   -1    0    0    0  501 -0.00000000000E+00  0.00000000000E+00  0.24768731549E+03  0.24769057139E+03  0.12700000000E+01 0. -1.
          4   -1    0    0  501    0  0.00000000000E+00 -0.00000000000E+00 -0.15742020326E+02  0.15793166369E+02  0.12700000000E+01 0. -1.
         25    2    1    2    0    0  0.00000000000E+00  0.00000000000E+00  0.23194529516E+03  0.26348373776E+03  0.12500024046E+03 0.  0.
    9000005    1    3    3    0    0  0.41603959032E+02 -0.39854967436E+02  0.64948481934E+02  0.86825187255E+02  0.10000000000E+01 0.  0.
    9000005    1    3    3    0    0 -0.41603959032E+02  0.39854967436E+02  0.16699681323E+03  0.17665855050E+03  0.10000000000E+01 0.  0.
<mgrwt>
<rscale>  0 0.12500024E+03</rscale>
<asrwt>0</asrwt>
<pdfrwt beam="2">  1        4 0.24260340E-02 0.12500024E+03</pdfrwt>
<pdfrwt beam="1">  1       -4 0.38109926E-01 0.12500024E+03</pdfrwt>
<totfact> 0.80419208E+03</totfact>
</mgrwt>
</event>
<event>
 5    1  0.3277540E-002  0.1250062E+03  0.7818608E-02  0.1235060E+00
          4   -1    0    0  501    0  0.00000000000E+00  0.00000000000E+00  0.12470069718E+03  0.12470716409E+03  0.12700000000E+01 0.  1.
         -4   -1    0    0    0  501 -0.00000000000E+00 -0.00000000000E+00 -0.31307945053E+02  0.31333693103E+02  0.12700000000E+01 0.  1.
         25    2    1    2    0    0  0.00000000000E+00  0.00000000000E+00  0.93392752122E+02  0.15604085720E+03  0.12500617171E+03 0.  0.
    9000005    1    3    3    0    0  0.43055119160E+02 -0.27052478331E+02  0.92049063699E+02  0.10516468037E+03  0.10000000000E+01 0.  0.
    9000005    1    3    3    0    0 -0.43055119160E+02  0.27052478331E+02  0.13436884234E+01  0.50876176825E+02  0.10000000000E+01 0.  0.
<mgrwt>
<rscale>  0 0.12500617E+03</rscale>
<asrwt>0</asrwt>
<pdfrwt beam="1">  1        4 0.19187200E-01 0.12500617E+03</pdfrwt>
<pdfrwt beam="2">  1       -4 0.48190851E-02 0.12500617E+03</pdfrwt>
<totfact> 0.98097937E+03</totfact>
</mgrwt>
</event>
<event>
 5    1  0.3277540E-002  0.1250002E+03  0.7818608E-02  0.1235069E+00
         -4   -1    0    0    0  501 -0.00000000000E+00  0.00000000000E+00  0.96231277950E+03  0.96231361753E+03  0.12700000000E+01 0. -1.
          4   -1    0    0  501    0  0.00000000000E+00 -0.00000000000E+00 -0.39590502565E+01  0.41577612887E+01  0.12700000000E+01 0. -1.
         25    2    1    2    0    0  0.00000000000E+00  0.00000000000E+00  0.95835372924E+03  0.96647137882E+03  0.12500022290E+03 0.  0.
    9000005    1    3    3    0    0 -0.60541132042E+02  0.10343061545E+02  0.56836272313E+03  0.57167245222E+03  0.10000000000E+01 0.  0.
    9000005    1    3    3    0    0  0.60541132042E+02 -0.10343061545E+02  0.38999100611E+03  0.39479892659E+03  0.10000000000E+01 0.  0.
<mgrwt>
<rscale>  0 0.12500022E+03</rscale>
<asrwt>0</asrwt>
<pdfrwt beam="2">  1        4 0.62443388E-03 0.12500022E+03</pdfrwt>
<pdfrwt beam="1">  1       -4 0.14806364E+00 0.12500022E+03</pdfrwt>
<totfact> 0.31738104E+03</totfact>
</mgrwt>
</event>
<event>
 5    1  0.3277540E-002  0.1250080E+03  0.7818608E-02  0.1235057E+00
          4   -1    0    0  501    0  0.00000000000E+00  0.00000000000E+00  0.95578224175E+01  0.96418291504E+01  0.12700000000E+01 0. -1.
         -4   -1    0    0    0  501 -0.00000000000E+00 -0.00000000000E+00 -0.40687545078E+03  0.40687743284E+03  0.12700000000E+01 0. -1.
         25    2    1    2    0    0  0.00000000000E+00  0.00000000000E+00 -0.39731762837E+03  0.41651926199E+03  0.12500799092E+03 0.  0.
    9000005    1    3    3    0    0 -0.29831576262E+02  0.16275137764E+02 -0.37341734254E+03  0.37496175106E+03  0.10000000000E+01 0.  0.
    9000005    1    3    3    0    0  0.29831576262E+02 -0.16275137764E+02 -0.23900285829E+02  0.41557510924E+02  0.10000000000E+01 0.  0.
<mgrwt>
<rscale>  0 0.12500799E+03</rscale>
<asrwt>0</asrwt>
<pdfrwt beam="1">  1        4 0.14770491E-02 0.12500799E+03</pdfrwt>
<pdfrwt beam="2">  1       -4 0.62602824E-01 0.12500799E+03</pdfrwt>
<totfact> 0.62966147E+03</totfact>
</mgrwt>
</event>
<event>
 5    1  0.3277540E-002  0.1249978E+03  0.7818608E-02  0.1235073E+00
          4   -1    0    0  501    0  0.00000000000E+00  0.00000000000E+00  0.12297109391E+03  0.12297765178E+03  0.12700000000E+01 0.  1.
         -4   -1    0    0    0  501 -0.00000000000E+00 -0.00000000000E+00 -0.31744373177E+02  0.31769767522E+02  0.12700000000E+01 0.  1.
         25    2    1    2    0    0  0.00000000000E+00  0.00000000000E+00  0.91226720732E+02  0.15474741930E+03  0.12499779680E+03 0.  0.
    9000005    1    3    3    0    0 -0.74798710239E+01  0.36701089597E+02 -0.16313852352E+02  0.40866370364E+02  0.10000000000E+01 0.  0.
    9000005    1    3    3    0    0  0.74798710239E+01 -0.36701089597E+02  0.10754057308E+03  0.11388104894E+03  0.10000000000E+01 0.  0.
<mgrwt>
<rscale>  0 0.12499780E+03</rscale>
<asrwt>0</asrwt>
<pdfrwt beam="1">  1        4 0.18921088E-01 0.12499780E+03</pdfrwt>
<pdfrwt beam="2">  1       -4 0.48862076E-02 0.12499780E+03</pdfrwt>
<totfact> 0.98369980E+03</totfact>
</mgrwt>
</event>
<event>
 5    1  0.3277540E-002  0.1249974E+03  0.7818608E-02  0.1235073E+00
          4   -1    0    0  501    0  0.00000000000E+00  0.00000000000E+00  0.50154178495E+03  0.50154339289E+03  0.12700000000E+01 0. -1.
         -4   -1    0    0    0  501 -0.00000000000E+00 -0.00000000000E+00 -0.77347563085E+01  0.78383260427E+01  0.12700000000E+01 0. -1.
         25    2    1    2    0    0  0.00000000000E+00  0.00000000000E+00  0.49380702864E+03  0.50938171893E+03  0.12499741616E+03 0.  0.
    9000005    1    3    3    0    0 -0.40179546075E+02 -0.15091655470E+02  0.61812625523E+02  0.75259249675E+02  0.10000000000E+01 0.  0.
    9000005    1    3    3    0    0  0.40179546075E+02  0.15091655470E+02  0.43199440312E+03  0.43412246925E+03  0.10000000000E+01 0.  0.
<mgrwt>
<rscale>  0 0.12499742E+03</rscale>
<asrwt>0</asrwt>
<pdfrwt beam="1">  1        4 0.77168385E-01 0.12499742E+03</pdfrwt>
<pdfrwt beam="2">  1       -4 0.11980528E-02 0.12499742E+03</pdfrwt>
<totfact> 0.55146859E+03</totfact>
</mgrwt>
</event>
<event>
 5    1  0.3277540E-002  0.1249964E+03  0.7818608E-02  0.1235075E+00
         -4   -1    0    0    0  501 -0.00000000000E+00  0.00000000000E+00  0.29938315380E+02  0.29965240326E+02  0.12700000000E+01 0. -1.
          4   -1    0    0  501    0  0.00000000000E+00 -0.00000000000E+00 -0.13038046829E+03  0.13038665350E+03  0.12700000000E+01 0. -1.
         25    2    1    2    0    0  0.00000000000E+00  0.00000000000E+00 -0.10044215291E+03  0.16035189383E+03  0.12499641504E+03 0.  0.
    9000005    1    3    3    0    0  0.47020882608E+02  0.12836615319E+02 -0.10038836018E+03  0.11160002220E+03  0.10000000000E+01 0.  0.
    9000005    1    3    3    0    0 -0.47020882608E+02 -0.12836615319E+02 -0.53792728775E-01  0.48751871633E+02  0.10000000000E+01 0.  0.
<mgrwt>
<rscale>  0 0.12499642E+03</rscale>
<asrwt>0</asrwt>
<pdfrwt beam="2">  1        4 0.20061080E-01 0.12499642E+03</pdfrwt>
<pdfrwt beam="1">  1       -4 0.46084417E-02 0.12499642E+03</pdfrwt>
<totfact> 0.97282824E+03</totfact>
</mgrwt>
</event>
<event>
 5    1  0.3277540E-002  0.1250066E+03  0.7818608E-02  0.1235059E+00
         -4   -1    0    0    0  501 -0.00000000000E+00  0.00000000000E+00  0.19747412959E+03  0.19747821337E+03  0.12700000000E+01 0.  1.
          4   -1    0    0  501    0  0.00000000000E+00 -0.00000000000E+00 -0.19758486788E+02  0.19799260091E+02  0.12700000000E+01 0.  1.
         25    2    1    2    0    0  0.00000000000E+00  0.00000000000E+00  0.17771564280E+03  0.21727747346E+03  0.12500660294E+03 0.  0.
    9000005    1    3    3    0    0  0.16183473932E+02 -0.18135050439E+01  0.19373003179E+03  0.19441584001E+03  0.10000000000E+01 0.  0.
    9000005    1    3    3    0    0 -0.16183473932E+02  0.18135050439E+01 -0.16014388996E+02  0.22861633449E+02  0.10000000000E+01 0.  0.
<mgrwt>
<rscale>  0 0.12500660E+03</rscale>
<asrwt>0</asrwt>
<pdfrwt beam="2">  1        4 0.30432176E-02 0.12500660E+03</pdfrwt>
<pdfrwt beam="1">  1       -4 0.30384087E-01 0.12500660E+03</pdfrwt>
<totfact> 0.87288116E+03</totfact>
</mgrwt>
</event>
<event>
 5    1  0.3277540E-002  0.1249960E+03  0.7818608E-02  0.1235076E+00
         -4   -1    0    0    0  501 -0.00000000000E+00  0.00000000000E+00  0.75865646229E+03  0.75865752529E+03  0.12700000000E+01 0. -1.
          4   -1    0    0  501    0  0.00000000000E+00 -0.00000000000E+00 -0.50691752027E+01  0.52258432081E+01  0.12700000000E+01 0. -1.
         25    2    1    2    0    0  0.00000000000E+00  0.00000000000E+00  0.75358728709E+03  0.76388336850E+03  0.12499600555E+03 0.  0.
    9000005    1    3    3    0    0  0.40891746634E+02  0.19935800106E+02  0.63861179242E+03  0.64023088998E+03  0.10000000000E+01 0.  0.
    9000005    1    3    3    0    0 -0.40891746634E+02 -0.19935800106E+02  0.11497549467E+03  0.12365247852E+03  0.10000000000E+01 0.  0.
<mgrwt>
<rscale>  0 0.12499601E+03</rscale>
<asrwt>0</asrwt>
<pdfrwt beam="2">  1        4 0.79200622E-03 0.12499601E+03</pdfrwt>
<pdfrwt beam="1">  1       -4 0.11672852E+00 0.12499601E+03</pdfrwt>
<totfact> 0.39922220E+03</totfact>
</mgrwt>
</event>
<event>
 5    1  0.3277540E-002  0.1249980E+03  0.7818608E-02  0.1235072E+00
         -4   -1    0    0    0  501 -0.00000000000E+00  0.00000000000E+00  0.26634921744E+02  0.26665182472E+02  0.12700000000E+01 0.  1.
          4   -1    0    0  501    0  0.00000000000E+00 -0.00000000000E+00 -0.14653801304E+03  0.14654351629E+03  0.12700000000E+01 0.  1.
         25    2    1    2    0    0  0.00000000000E+00  0.00000000000E+00 -0.11990309130E+03  0.17320869876E+03  0.12499800808E+03 0.  0.
    9000005    1    3    3    0    0  0.35633803528E+02  0.51086877951E+02 -0.52955730140E+02  0.81761521557E+02  0.10000000000E+01 0.  0.
    9000005    1    3    3    0    0 -0.35633803528E+02 -0.51086877951E+02 -0.66947361160E+02  0.91447177206E+02  0.10000000000E+01 0.  0.
<mgrwt>
<rscale>  0 0.12499801E+03</rscale>
<asrwt>0</asrwt>
<pdfrwt beam="2">  1        4 0.22547060E-01 0.12499801E+03</pdfrwt>
<pdfrwt beam="1">  1       -4 0.41004314E-02 0.12499801E+03</pdfrwt>
<totfact> 0.94858181E+03</totfact>
</mgrwt>
</event>
<event>
 5    1  0.3277540E-002  0.1249997E+03  0.7818608E-02  0.1235070E+00
          4   -1    0    0  501    0  0.00000000000E+00  0.00000000000E+00  0.11485244424E+02  0.11555247271E+02  0.12700000000E+01 0. -1.
         -4   -1    0    0    0  501 -0.00000000000E+00 -0.00000000000E+00 -0.33900433205E+03  0.33900671092E+03  0.12700000000E+01 0. -1.
         25    2    1    2    0    0  0.00000000000E+00  0.00000000000E+00 -0.32751908763E+03  0.35056195819E+03  0.12499973509E+03 0.  0.
    9000005    1    3    3    0    0  0.30670908228E+02 -0.22897617005E+02 -0.25220912219E+02  0.45848662895E+02  0.10000000000E+01 0.  0.
    9000005    1    3    3    0    0 -0.30670908228E+02  0.22897617005E+02 -0.30229817541E+03  0.30471329530E+03  0.10000000000E+01 0.  0.
<mgrwt>
<rscale>  0 0.12499974E+03</rscale>
<asrwt>0</asrwt>
<pdfrwt beam="1">  1        4 0.17725288E-02 0.12499974E+03</pdfrwt>
<pdfrwt beam="2">  1       -4 0.52160073E-01 0.12499974E+03</pdfrwt>
<totfact> 0.69663190E+03</totfact>
</mgrwt>
</event>
<event>
 4    1  0.3277540E-002  0.1250624E+03  0.7818608E-02  0.1234972E+00
          4   -1    0    0  501    0  0.00000000000E+00  0.00000000000E+00  0.17187063227E+03  0.17187532439E+03  0.12700000000E+01 0.  1.
         -4   -1    0    0    0  501 -0.00000000000E+00 -0.00000000000E+00 -0.22727805328E+02  0.22763260641E+02  0.12700000000E+01 0.  1.
    9000005    1    1    2    0    0 -0.20584220429E+02 -0.43887053238E+02  0.13602910444E+03  0.14441156750E+03  0.10000000000E+01 0.  0.
    9000005    1    1    2    0    0  0.20584220429E+02  0.43887053238E+02  0.13113722495E+02  0.50227017533E+02  0.10000000000E+01 0.  0.
<mgrwt>
<rscale>  0 0.12506237E+03</rscale>
<asrwt>0</asrwt>
<pdfrwt beam="1">  1        4 0.26444723E-01 0.12506237E+03</pdfrwt>
<pdfrwt beam="2">  1       -4 0.34996738E-02 0.12506237E+03</pdfrwt>
<totfact> 0.90919400E+03</totfact>
</mgrwt>
</event>
<event>
 5    1  0.3277540E-002  0.1250041E+03  0.7818608E-02  0.1235063E+00
         -4   -1    0    0    0  501 -0.00000000000E+00  0.00000000000E+00  0.81798536746E+02  0.81808395130E+02  0.12700000000E+01 0.  1.
          4   -1    0    0  501    0  0.00000000000E+00 -0.00000000000E+00 -0.47736442471E+02  0.47753333284E+02  0.12700000000E+01 0.  1.
         25    2    1    2    0    0  0.00000000000E+00  0.00000000000E+00  0.34062094275E+02  0.12956172841E+03  0.12500406075E+03 0.  0.
    9000005    1    3    3    0    0 -0.48228604275E+02  0.29131170436E+01 -0.24050176334E+02  0.53980510399E+02  0.10000000000E+01 0.  0.
    9000005    1    3    3    0    0  0.48228604275E+02 -0.29131170436E+01  0.58112270610E+02  0.75581218015E+02  0.10000000000E+01 0.  0.
<mgrwt>
<rscale>  0 0.12500406E+03</rscale>
<asrwt>0</asrwt>
<pdfrwt beam="2">  1        4 0.73461257E-02 0.12500406E+03</pdfrwt>
<pdfrwt beam="1">  1       -4 0.12586448E-01 0.12500406E+03</pdfrwt>
<totfact> 0.10352943E+04</totfact>
</mgrwt>
</event>
<event>
 5    1  0.3277540E-002  0.1249994E+03  0.7818608E-02  0.1235070E+00
         -4   -1    0    0    0  501 -0.00000000000E+00  0.00000000000E+00  0.31835188961E+03  0.31835442280E+03  0.12700000000E+01 0.  1.
          4   -1    0    0  501    0  0.00000000000E+00 -0.00000000000E+00 -0.12234649458E+02  0.12300388098E+02  0.12700000000E+01 0.  1.
         25    2    1    2    0    0  0.00000000000E+00  0.00000000000E+00  0.30611724015E+03  0.33065481090E+03  0.12499935701E+03 0.  0.
    9000005    1    3    3    0    0  0.26476781424E+02 -0.36514286459E+02  0.38641245988E+02  0.59400833006E+02  0.10000000000E+01 0.  0.
    9000005    1    3    3    0    0 -0.26476781424E+02  0.36514286459E+02  0.26747599416E+03  0.27125397790E+03  0.10000000000E+01 0.  0.
<mgrwt>
<rscale>  0 0.12499936E+03</rscale>
<asrwt>0</asrwt>
<pdfrwt beam="2">  1        4 0.18875054E-02 0.12499936E+03</pdfrwt>
<pdfrwt beam="1">  1       -4 0.48982467E-01 0.12499936E+03</pdfrwt>
<totfact> 0.71907566E+03</totfact>
</mgrwt>
</event>
<event>
 5    1  0.3277540E-002  0.1249995E+03  0.7818608E-02  0.1235070E+00
         -4   -1    0    0    0  501 -0.00000000000E+00  0.00000000000E+00  0.58113125365E+02  0.58127000952E+02  0.12700000000E+01 0. -1.
          4   -1    0    0  501    0  0.00000000000E+00 -0.00000000000E+00 -0.67189630396E+02  0.67201631920E+02  0.12700000000E+01 0. -1.
         25    2    1    2    0    0  0.00000000000E+00  0.00000000000E+00 -0.90765050307E+01  0.12532863287E+03  0.12499953310E+03 0.  0.
    9000005    1    3    3    0    0  0.29142752959E+02  0.34009650097E+02  0.39157038208E+02  0.59499831857E+02  0.10000000000E+01 0.  0.
    9000005    1    3    3    0    0 -0.29142752959E+02 -0.34009650097E+02 -0.48233543239E+02  0.65828801015E+02  0.10000000000E+01 0.  0.
<mgrwt>
<rscale>  0 0.12499953E+03</rscale>
<asrwt>0</asrwt>
<pdfrwt beam="2">  1        4 0.10338857E-01 0.12499953E+03</pdfrwt>
<pdfrwt beam="1">  1       -4 0.89424714E-02 0.12499953E+03</pdfrwt>
<totfact> 0.10445839E+04</totfact>
</mgrwt>
</event>
<event>
 5    1  0.3277540E-002  0.1249998E+03  0.7818608E-02  0.1235070E+00
         -4   -1    0    0    0  501 -0.00000000000E+00  0.00000000000E+00  0.15510180517E+04  0.15510185717E+04  0.12700000000E+01 0. -1.
          4   -1    0    0  501    0  0.00000000000E+00 -0.00000000000E+00 -0.23578414167E+01  0.26781180232E+01  0.12700000000E+01 0. -1.
         25    2    1    2    0    0  0.00000000000E+00  0.00000000000E+00  0.15486602103E+04  0.15536966897E+04  0.12499982633E+03 0.  0.
    9000005    1    3    3    0    0 -0.39281128314E+02  0.46094326539E+02  0.96590117671E+03  0.96779841762E+03  0.10000000000E+01 0.  0.
    9000005    1    3    3    0    0  0.39281128314E+02 -0.46094326539E+02  0.58275903358E+03  0.58589827205E+03  0.10000000000E+01 0.  0.
<mgrwt>
<rscale>  0 0.12499983E+03</rscale>
<asrwt>0</asrwt>
<pdfrwt beam="2">  1        4 0.38742150E-03 0.12499983E+03</pdfrwt>
<pdfrwt beam="1">  1       -4 0.23864283E+00 0.12499983E+03</pdfrwt>
<totfact> 0.16898782E+03</totfact>
</mgrwt>
</event>
<event>
 5    1  0.3277540E-002  0.1249962E+03  0.7818608E-02  0.1235075E+00
          4   -1    0    0  501    0  0.00000000000E+00  0.00000000000E+00  0.12853967447E+03  0.12854594825E+03  0.12700000000E+01 0.  1.
         -4   -1    0    0    0  501 -0.00000000000E+00 -0.00000000000E+00 -0.30367337949E+02  0.30393882840E+02  0.12700000000E+01 0.  1.
         25    2    1    2    0    0  0.00000000000E+00  0.00000000000E+00  0.98172336517E+02  0.15893983109E+03  0.12499624894E+03 0.  0.
    9000005    1    3    3    0    0  0.38224256886E+02 -0.39929830709E+02  0.12024478116E+02  0.56578028146E+02  0.10000000000E+01 0.  0.
    9000005    1    3    3    0    0 -0.38224256886E+02  0.39929830709E+02  0.86147858402E+02  0.10236180294E+03  0.10000000000E+01 0.  0.
<mgrwt>
<rscale>  0 0.12499625E+03</rscale>
<asrwt>0</asrwt>
<pdfrwt beam="1">  1        4 0.19777859E-01 0.12499625E+03</pdfrwt>
<pdfrwt beam="2">  1       -4 0.46744226E-02 0.12499625E+03</pdfrwt>
<totfact> 0.97555793E+03</totfact>
</mgrwt>
</event>
<event>
 5    1  0.3277540E-002  0.1250027E+03  0.7818608E-02  0.1235065E+00
         -4   -1    0    0    0  501 -0.00000000000E+00  0.00000000000E+00  0.11197036901E+02  0.11268830257E+02  0.12700000000E+01 0.  1.
          4   -1    0    0  501    0  0.00000000000E+00 -0.00000000000E+00 -0.34769168616E+03  0.34769400559E+03  0.12700000000E+01 0.  1.
         25    2    1    2    0    0  0.00000000000E+00  0.00000000000E+00 -0.33649464926E+03  0.35896283585E+03  0.12500267414E+03 0.  0.
    9000005    1    3    3    0    0 -0.89827421121E+01 -0.17995584350E+01  0.92723505375E+01  0.13073046734E+02  0.10000000000E+01 0.  0.
    9000005    1    3    3    0    0  0.89827421121E+01  0.17995584350E+01 -0.34576699979E+03  0.34588978911E+03  0.10000000000E+01 0.  0.
<mgrwt>
<rscale>  0 0.12500267E+03</rscale>
<asrwt>0</asrwt>
<pdfrwt beam="2">  1        4 0.53496722E-01 0.12500267E+03</pdfrwt>
<pdfrwt beam="1">  1       -4 0.17283223E-02 0.12500267E+03</pdfrwt>
<totfact> 0.68745597E+03</totfact>
</mgrwt>
</event>
<event>
 5    1  0.3277540E-002  0.1250004E+03  0.7818608E-02  0.1235069E+00
         -4   -1    0    0    0  501 -0.00000000000E+00  0.00000000000E+00  0.28255961022E+02  0.28284487502E+02  0.12700000000E+01 0.  1.
          4   -1    0    0  501    0  0.00000000000E+00 -0.00000000000E+00 -0.13814484528E+03  0.13815068287E+03  0.12700000000E+01 0.  1.
         25    2    1    2    0    0  0.00000000000E+00  0.00000000000E+00 -0.10988888425E+03  0.16643517037E+03  0.12500039621E+03 0.  0.
    9000005    1    3    3    0    0 -0.41699316375E+02  0.43789099262E+02 -0.75952964381E+02  0.97088469957E+02  0.10000000000E+01 0.  0.
    9000005    1    3    3    0    0  0.41699316375E+02 -0.43789099262E+02 -0.33935919874E+02  0.69346700412E+02  0.10000000000E+01 0.  0.
<mgrwt>
<rscale>  0 0.12500040E+03</rscale>
<asrwt>0</asrwt>
<pdfrwt beam="2">  1        4 0.21255696E-01 0.12500040E+03</pdfrwt>
<pdfrwt beam="1">  1       -4 0.43497144E-02 0.12500040E+03</pdfrwt>
<totfact> 0.96115427E+03</totfact>
</mgrwt>
</event>
<event>
 5    1  0.3277540E-002  0.1249997E+03  0.7818608E-02  0.1235070E+00
         -4   -1    0    0    0  501 -0.00000000000E+00  0.00000000000E+00  0.87585927952E+03  0.87586020027E+03  0.12700000000E+01 0. -1.
          4   -1    0    0  501    0  0.00000000000E+00 -0.00000000000E+00 -0.43685342805E+01  0.45493946586E+01  0.12700000000E+01 0. -1.
         25    2    1    2    0    0  0.00000000000E+00  0.00000000000E+00  0.87149074524E+03  0.88040959493E+03  0.12499974323E+03 0.  0.
    9000005    1    3    3    0    0  0.60570849010E+02  0.14436542601E+02  0.47300993490E+03  0.47709185701E+03  0.10000000000E+01 0.  0.
    9000005    1    3    3    0    0 -0.60570849010E+02 -0.14436542601E+02  0.39848081034E+03  0.40331773792E+03  0.10000000000E+01 0.  0.
<mgrwt>
<rscale>  0 0.12499974E+03</rscale>
<asrwt>0</asrwt>
<pdfrwt beam="2">  1        4 0.68606605E-03 0.12499974E+03</pdfrwt>
<pdfrwt beam="1">  1       -4 0.13476143E+00 0.12499974E+03</pdfrwt>
<totfact> 0.34914431E+03</totfact>
</mgrwt>
</event>
<event>
 5    1  0.3277540E-002  0.1250011E+03  0.7818608E-02  0.1235067E+00
          4   -1    0    0  501    0  0.00000000000E+00  0.00000000000E+00  0.30663886130E+02  0.30690174529E+02  0.12700000000E+01 0.  1.
         -4   -1    0    0    0  501 -0.00000000000E+00 -0.00000000000E+00 -0.12730756980E+03  0.12731390430E+03  0.12700000000E+01 0.  1.
         25    2    1    2    0    0  0.00000000000E+00  0.00000000000E+00 -0.96643683674E+02  0.15800407883E+03  0.12500114933E+03 0.  0.
    9000005    1    3    3    0    0 -0.25792499545E+02 -0.87936815983E+00  0.23619672751E+02  0.34998789436E+02  0.10000000000E+01 0.  0.
    9000005    1    3    3    0    0  0.25792499545E+02  0.87936815983E+00 -0.12026335642E+03  0.12300528940E+03  0.10000000000E+01 0.  0.
<mgrwt>
<rscale>  0 0.12500115E+03</rscale>
<asrwt>0</asrwt>
<pdfrwt beam="1">  1        4 0.47200305E-02 0.12500115E+03</pdfrwt>
<pdfrwt beam="2">  1       -4 0.19588289E-01 0.12500115E+03</pdfrwt>
<totfact> 0.97726443E+03</totfact>
</mgrwt>
</event>
<event>
 5    1  0.3277540E-002  0.1249981E+03  0.7818608E-02  0.1235072E+00
          4   -1    0    0  501    0  0.00000000000E+00  0.00000000000E+00  0.51362830590E+01  0.52909643414E+01  0.12700000000E+01 0.  1.
         -4   -1    0    0    0  501 -0.00000000000E+00 -0.00000000000E+00 -0.74906117697E+03  0.74906225359E+03  0.12700000000E+01 0.  1.
         25    2    1    2    0    0  0.00000000000E+00  0.00000000000E+00 -0.74392489392E+03  0.75435321793E+03  0.12499811844E+03 0.  0.
    9000005    1    3    3    0    0 -0.42693684399E+02 -0.43013649177E+02 -0.46392469521E+03  0.46786755341E+03  0.10000000000E+01 0.  0.
    9000005    1    3    3    0    0  0.42693684399E+02  0.43013649177E+02 -0.28000019871E+03  0.28648566452E+03  0.10000000000E+01 0.  0.
<mgrwt>
<rscale>  0 0.12499812E+03</rscale>
<asrwt>0</asrwt>
<pdfrwt beam="1">  1        4 0.80217936E-03 0.12499812E+03</pdfrwt>
<pdfrwt beam="2">  1       -4 0.11525208E+00 0.12499812E+03</pdfrwt>
<totfact> 0.40368468E+03</totfact>
</mgrwt>
</event>
<event>
 5    1  0.3277540E-002  0.1249988E+03  0.7818608E-02  0.1235071E+00
          4   -1    0    0  501    0  0.00000000000E+00  0.00000000000E+00  0.39205761144E+01  0.41211426897E+01  0.12700000000E+01 0. -1.
         -4   -1    0    0    0  501 -0.00000000000E+00 -0.00000000000E+00 -0.97127620644E+03  0.97127703674E+03  0.12700000000E+01 0. -1.
         25    2    1    2    0    0  0.00000000000E+00  0.00000000000E+00 -0.96735563032E+03  0.97539817943E+03  0.12499877163E+03 0.  0.
    9000005    1    3    3    0    0  0.19629133891E+02 -0.59327779131E+02 -0.48140341360E+03  0.48544344150E+03  0.10000000000E+01 0.  0.
    9000005    1    3    3    0    0 -0.19629133891E+02  0.59327779131E+02 -0.48595221672E+03  0.48995473792E+03  0.10000000000E+01 0.  0.
<mgrwt>
<rscale>  0 0.12499877E+03</rscale>
<asrwt>0</asrwt>
<pdfrwt beam="1">  1        4 0.61865840E-03 0.12499877E+03</pdfrwt>
<pdfrwt beam="2">  1       -4 0.14944241E+00 0.12499877E+03</pdfrwt>
<totfact> 0.31431934E+03</totfact>
</mgrwt>
</event>
<event>
 5    1  0.3277540E-002  0.1249990E+03  0.7818608E-02  0.1235071E+00
         -4   -1    0    0    0  501 -0.00000000000E+00  0.00000000000E+00  0.49114275246E+03  0.49114439445E+03  0.12700000000E+01 0. -1.
          4   -1    0    0  501    0  0.00000000000E+00 -0.00000000000E+00 -0.79009034128E+01  0.80023230838E+01  0.12700000000E+01 0. -1.
         25    2    1    2    0    0  0.00000000000E+00  0.00000000000E+00  0.48324184905E+03  0.49914671753E+03  0.12499904379E+03 0.  0.
    9000005    1    3    3    0    0  0.61224875848E+02  0.24306573123E+01  0.29065719995E+03  0.29704713666E+03  0.10000000000E+01 0.  0.
    9000005    1    3    3    0    0 -0.61224875848E+02 -0.24306573123E+01  0.19258464910E+03  0.20209958087E+03  0.10000000000E+01 0.  0.
<mgrwt>
<rscale>  0 0.12499904E+03</rscale>
<asrwt>0</asrwt>
<pdfrwt beam="2">  1        4 0.12234513E-02 0.12499904E+03</pdfrwt>
<pdfrwt beam="1">  1       -4 0.75568358E-01 0.12499904E+03</pdfrwt>
<totfact> 0.55931803E+03</totfact>
</mgrwt>
</event>
<event>
 5    1  0.3277540E-002  0.1249962E+03  0.7818608E-02  0.1235075E+00
          4   -1    0    0  501    0  0.00000000000E+00  0.00000000000E+00  0.18968583580E+02  0.19011051076E+02  0.12700000000E+01 0.  1.
         -4   -1    0    0    0  501 -0.00000000000E+00 -0.00000000000E+00 -0.20564552895E+03  0.20564945046E+03  0.12700000000E+01 0.  1.
         25    2    1    2    0    0  0.00000000000E+00  0.00000000000E+00 -0.18667694537E+03  0.22466050154E+03  0.12499623602E+03 0.  0.
    9000005    1    3    3    0    0  0.41188445005E+02  0.54149581330E+01 -0.17724173168E+03  0.18204790914E+03  0.10000000000E+01 0.  0.
    9000005    1    3    3    0    0 -0.41188445005E+02 -0.54149581330E+01 -0.94352136851E+01  0.42612592397E+02  0.10000000000E+01 0.  0.
<mgrwt>
<rscale>  0 0.12499624E+03</rscale>
<asrwt>0</asrwt>
<pdfrwt beam="1">  1        4 0.29218122E-02 0.12499624E+03</pdfrwt>
<pdfrwt beam="2">  1       -4 0.31641341E-01 0.12499624E+03</pdfrwt>
<totfact> 0.86143456E+03</totfact>
</mgrwt>
</event>
<event>
 5    1  0.3277540E-002  0.1249997E+03  0.7818608E-02  0.1235070E+00
         -4   -1    0    0    0  501 -0.00000000000E+00  0.00000000000E+00  0.18406591484E+03  0.18407029610E+03  0.12700000000E+01 0. -1.
          4   -1    0    0  501    0  0.00000000000E+00 -0.00000000000E+00 -0.21198270572E+02  0.21236279694E+02  0.12700000000E+01 0. -1.
         25    2    1    2    0    0  0.00000000000E+00  0.00000000000E+00  0.16286764427E+03  0.20530657580E+03  0.12499968206E+03 0.  0.
    9000005    1    3    3    0    0 -0.30462784498E+02  0.54197024019E+02  0.71054914731E+02  0.94419804911E+02  0.10000000000E+01 0.  0.
    9000005    1    3    3    0    0  0.30462784498E+02 -0.54197024019E+02  0.91812729541E+02  0.11088677089E+03  0.10000000000E+01 0.  0.
<mgrwt>
<rscale>  0 0.12499968E+03</rscale>
<asrwt>0</asrwt>
<pdfrwt beam="2">  1        4 0.32645331E-02 0.12499968E+03</pdfrwt>
<pdfrwt beam="1">  1       -4 0.28321095E-01 0.12499968E+03</pdfrwt>
<totfact> 0.89248795E+03</totfact>
</mgrwt>
</event>
<event>
 5    1  0.3277540E-002  0.1249960E+03  0.7818608E-02  0.1235076E+00
          4   -1    0    0  501    0  0.00000000000E+00  0.00000000000E+00  0.85927169861E+01  0.86860626985E+01  0.12700000000E+01 0. -1.
         -4   -1    0    0    0  501 -0.00000000000E+00 -0.00000000000E+00 -0.45202077877E+03  0.45202256286E+03  0.12700000000E+01 0. -1.
         25    2    1    2    0    0  0.00000000000E+00  0.00000000000E+00 -0.44342806178E+03  0.46070862556E+03  0.12499596670E+03 0.  0.
    9000005    1    3    3    0    0 -0.21293323555E+01 -0.24737918209E+02 -0.43307715452E+03  0.43378948860E+03  0.10000000000E+01 0.  0.
    9000005    1    3    3    0    0  0.21293323555E+01  0.24737918209E+02 -0.10350907262E+02  0.26919136962E+02  0.10000000000E+01 0.  0.
<mgrwt>
<rscale>  0 0.12499597E+03</rscale>
<asrwt>0</asrwt>
<pdfrwt beam="1">  1        4 0.13292745E-02 0.12499597E+03</pdfrwt>
<pdfrwt beam="2">  1       -4 0.69548957E-01 0.12499597E+03</pdfrwt>
<totfact> 0.59052457E+03</totfact>
</mgrwt>
</event>
<event>
 5    1  0.3277540E-002  0.1250610E+03  0.7818608E-02  0.1234974E+00
          4   -1    0    0  501    0  0.00000000000E+00  0.00000000000E+00  0.41206429183E+02  0.41225995512E+02  0.12700000000E+01 0.  1.
         -4   -1    0    0    0  501 -0.00000000000E+00 -0.00000000000E+00 -0.94843344525E+02  0.94851847113E+02  0.12700000000E+01 0.  1.
         25    2    1    2    0    0  0.00000000000E+00  0.00000000000E+00 -0.53636915342E+02  0.13607784262E+03  0.12506102737E+03 0.  0.
    9000005    1    3    3    0    0  0.41913852459E+02 -0.11093254676E+02 -0.75833735495E+02  0.87358953556E+02  0.10000000000E+01 0.  0.
    9000005    1    3    3    0    0 -0.41913852459E+02  0.11093254676E+02  0.22196820152E+02  0.48718889069E+02  0.10000000000E+01 0.  0.
<mgrwt>
<rscale>  0 0.12506103E+03</rscale>
<asrwt>0</asrwt>
<pdfrwt beam="1">  1        4 0.63416098E-02 0.12506103E+03</pdfrwt>
<pdfrwt beam="2">  1       -4 0.14593443E-01 0.12506103E+03</pdfrwt>
<totfact> 0.10201357E+04</totfact>
</mgrwt>
</event>
<event>
 5    1  0.3277540E-002  0.1250010E+03  0.7818608E-02  0.1235068E+00
         -4   -1    0    0    0  501 -0.00000000000E+00  0.00000000000E+00  0.39897812297E+02  0.39918020067E+02  0.12700000000E+01 0. -1.
          4   -1    0    0  501    0  0.00000000000E+00 -0.00000000000E+00 -0.97858750201E+02  0.97866990814E+02  0.12700000000E+01 0. -1.
         25    2    1    2    0    0  0.00000000000E+00  0.00000000000E+00 -0.57960937904E+02  0.13778501088E+03  0.12500095560E+03 0.  0.
    9000005    1    3    3    0    0 -0.22409958202E+02  0.14751189767E+02  0.33232058960E+02  0.42722050149E+02  0.10000000000E+01 0.  0.
    9000005    1    3    3    0    0  0.22409958202E+02 -0.14751189767E+02 -0.91192996864E+02  0.95062960733E+02  0.10000000000E+01 0.  0.
<mgrwt>
<rscale>  0 0.12500096E+03</rscale>
<asrwt>0</asrwt>
<pdfrwt beam="2">  1        4 0.15057381E-01 0.12500096E+03</pdfrwt>
<pdfrwt beam="1">  1       -4 0.61403133E-02 0.12500096E+03</pdfrwt>
<totfact> 0.10179478E+04</totfact>
</mgrwt>
</event>
<event>
 5    1  0.3277540E-002  0.1250061E+03  0.7818608E-02  0.1235060E+00
          4   -1    0    0  501    0  0.00000000000E+00  0.00000000000E+00  0.10958998301E+02  0.11032340811E+02  0.12700000000E+01 0.  1.
         -4   -1    0    0    0  501 -0.00000000000E+00 -0.00000000000E+00 -0.35521375644E+03  0.35521602676E+03  0.12700000000E+01 0.  1.
         25    2    1    2    0    0  0.00000000000E+00  0.00000000000E+00 -0.34425475814E+03  0.36624836757E+03  0.12500611283E+03 0.  0.
    9000005    1    3    3    0    0 -0.48196719041E+02 -0.38586065835E+02 -0.20050664061E+03  0.20979924006E+03  0.10000000000E+01 0.  0.
    9000005    1    3    3    0    0  0.48196719041E+02  0.38586065835E+02 -0.14374811753E+03  0.15644912750E+03  0.10000000000E+01 0.  0.
<mgrwt>
<rscale>  0 0.12500611E+03</rscale>
<asrwt>0</asrwt>
<pdfrwt beam="1">  1        4 0.16918164E-02 0.12500611E+03</pdfrwt>
<pdfrwt beam="2">  1       -4 0.54654078E-01 0.12500611E+03</pdfrwt>
<totfact> 0.67964080E+03</totfact>
</mgrwt>
</event>
<event>
 5    1  0.3277540E-002  0.1250097E+03  0.7818608E-02  0.1235054E+00
         -4   -1    0    0    0  501 -0.00000000000E+00  0.00000000000E+00  0.12616976345E+03  0.12617615508E+03  0.12700000000E+01 0.  1.
          4   -1    0    0  501    0  0.00000000000E+00 -0.00000000000E+00 -0.30944854618E+02  0.30970904529E+02  0.12700000000E+01 0.  1.
         25    2    1    2    0    0  0.00000000000E+00  0.00000000000E+00  0.95224908835E+02  0.15714705960E+03  0.12500965995E+03 0.  0.
    9000005    1    3    3    0    0 -0.59890290746E+02  0.17728309566E+02  0.50341759860E+02  0.80227381058E+02  0.10000000000E+01 0.  0.
    9000005    1    3    3    0    0  0.59890290746E+02 -0.17728309566E+02  0.44883148975E+02  0.76919678546E+02  0.10000000000E+01 0.  0.
<mgrwt>
<rscale>  0 0.12500966E+03</rscale>
<asrwt>0</asrwt>
<pdfrwt beam="2">  1        4 0.47632423E-02 0.12500966E+03</pdfrwt>
<pdfrwt beam="1">  1       -4 0.19413229E-01 0.12500966E+03</pdfrwt>
<totfact> 0.97874386E+03</totfact>
</mgrwt>
</event>
<event>
 5    1  0.3277540E-002  0.1250015E+03  0.7818608E-02  0.1235067E+00
         -4   -1    0    0    0  501 -0.00000000000E+00  0.00000000000E+00  0.24373845269E+02  0.24406909538E+02  0.12700000000E+01 0.  1.
          4   -1    0    0  501    0  0.00000000000E+00 -0.00000000000E+00 -0.16012363286E+03  0.16012866920E+03  0.12700000000E+01 0.  1.
         25    2    1    2    0    0  0.00000000000E+00  0.00000000000E+00 -0.13574978759E+03  0.18453557874E+03  0.12500149995E+03 0.  0.
    9000005    1    3    3    0    0  0.40275942392E+02 -0.10526361596E+02  0.93225732682E+00  0.41651229607E+02  0.10000000000E+01 0.  0.
    9000005    1    3    3    0    0 -0.40275942392E+02  0.10526361596E+02 -0.13668204492E+03  0.14288434913E+03  0.10000000000E+01 0.  0.
<mgrwt>
<rscale>  0 0.12500150E+03</rscale>
<asrwt>0</asrwt>
<pdfrwt beam="2">  1        4 0.24637335E-01 0.12500150E+03</pdfrwt>
<pdfrwt beam="1">  1       -4 0.37527533E-02 0.12500150E+03</pdfrwt>
<totfact> 0.92803777E+03</totfact>
</mgrwt>
</event>
<event>
 5    1  0.3277540E-002  0.1250017E+03  0.7818608E-02  0.1235067E+00
         -4   -1    0    0    0  501 -0.00000000000E+00  0.00000000000E+00  0.11373322788E+02  0.11444010278E+02  0.12700000000E+01 0. -1.
          4   -1    0    0  501    0  0.00000000000E+00 -0.00000000000E+00 -0.34233081753E+03  0.34233317329E+03  0.12700000000E+01 0. -1.
         25    2    1    2    0    0  0.00000000000E+00  0.00000000000E+00 -0.33095749474E+03  0.35377718356E+03  0.12500172912E+03 0.  0.
    9000005    1    3    3    0    0 -0.10415245491E+01 -0.53248112195E+02 -0.25800921234E+03  0.26345056439E+03  0.10000000000E+01 0.  0.
    9000005    1    3    3    0    0  0.10415245491E+01  0.53248112195E+02 -0.72948282407E+02  0.90326619177E+02  0.10000000000E+01 0.  0.
<mgrwt>
<rscale>  0 0.12500173E+03</rscale>
<asrwt>0</asrwt>
<pdfrwt beam="2">  1        4 0.52671891E-01 0.12500173E+03</pdfrwt>
<pdfrwt beam="1">  1       -4 0.17553609E-02 0.12500173E+03</pdfrwt>
<totfact> 0.69308361E+03</totfact>
</mgrwt>
</event>
<event>
 5    1  0.3277540E-002  0.1249999E+03  0.7818608E-02  0.1235069E+00
         -4   -1    0    0    0  501 -0.00000000000E+00  0.00000000000E+00  0.47630938660E+02  0.47647866874E+02  0.12700000000E+01 0. -1.
          4   -1    0    0  501    0  0.00000000000E+00 -0.00000000000E+00 -0.81974249895E+02  0.81984087150E+02  0.12700000000E+01 0. -1.
         25    2    1    2    0    0  0.00000000000E+00  0.00000000000E+00 -0.34343311235E+02  0.12963195402E+03  0.12499992191E+03 0.  0.
    9000005    1    3    3    0    0  0.35807586324E+01  0.29943895244E+02 -0.73933663544E+02  0.79853899716E+02  0.10000000000E+01 0.  0.
    9000005    1    3    3    0    0 -0.35807586324E+01 -0.29943895244E+02  0.39590352309E+02  0.49778054309E+02  0.10000000000E+01 0.  0.
<mgrwt>
<rscale>  0 0.12499992E+03</rscale>
<asrwt>0</asrwt>
<pdfrwt beam="2">  1        4 0.12613482E-01 0.12499992E+03</pdfrwt>
<pdfrwt beam="1">  1       -4 0.73298956E-02 0.12499992E+03</pdfrwt>
<totfact> 0.10352405E+04</totfact>
</mgrwt>
</event>
<event>
 5    1  0.3277540E-002  0.1249956E+03  0.7818608E-02  0.1235076E+00
         -4   -1    0    0    0  501 -0.00000000000E+00  0.00000000000E+00  0.78529490877E+01  0.79549801617E+01  0.12700000000E+01 0.  1.
          4   -1    0    0  501    0  0.00000000000E+00 -0.00000000000E+00 -0.49407670818E+03  0.49407834041E+03  0.12700000000E+01 0.  1.
         25    2    1    2    0    0  0.00000000000E+00  0.00000000000E+00 -0.48622375909E+03  0.50203332057E+03  0.12499564417E+03 0.  0.
    9000005    1    3    3    0    0  0.50774346818E+02  0.24855437695E+01 -0.97146275508E+02  0.10964766786E+03  0.10000000000E+01 0.  0.
    9000005    1    3    3    0    0 -0.50774346818E+02 -0.24855437695E+01 -0.38907748358E+03  0.39238565271E+03  0.10000000000E+01 0.  0.
<mgrwt>
<rscale>  0 0.12499564E+03</rscale>
<asrwt>0</asrwt>
<pdfrwt beam="2">  1        4 0.76019751E-01 0.12499564E+03</pdfrwt>
<pdfrwt beam="1">  1       -4 0.12161205E-02 0.12499564E+03</pdfrwt>
<totfact> 0.55712296E+03</totfact>
</mgrwt>
</event>
<event>
 5    1  0.3277540E-002  0.1250003E+03  0.7818608E-02  0.1235069E+00
         -4   -1    0    0    0  501 -0.00000000000E+00  0.00000000000E+00  0.15653262643E+02  0.15704697748E+02  0.12700000000E+01 0. -1.
          4   -1    0    0  501    0  0.00000000000E+00 -0.00000000000E+00 -0.24908726525E+03  0.24909050285E+03  0.12700000000E+01 0. -1.
         25    2    1    2    0    0  0.00000000000E+00  0.00000000000E+00 -0.23343400260E+03  0.26479520059E+03  0.12500025874E+03 0.  0.
    9000005    1    3    3    0    0  0.27134751080E+02  0.47689938015E+02 -0.18007824027E+03  0.18825460824E+03  0.10000000000E+01 0.  0.
    9000005    1    3    3    0    0 -0.27134751080E+02 -0.47689938015E+02 -0.53355762332E+02  0.76540592355E+02  0.10000000000E+01 0.  0.
<mgrwt>
<rscale>  0 0.12500026E+03</rscale>
<asrwt>0</asrwt>
<pdfrwt beam="2">  1        4 0.38325320E-01 0.12500026E+03</pdfrwt>
<pdfrwt beam="1">  1       -4 0.24124000E-02 0.12500026E+03</pdfrwt>
<totfact> 0.80237336E+03</totfact>
</mgrwt>
</event>
<event>
 5    1  0.3277540E-002  0.1250001E+03  0.7818608E-02  0.1235069E+00
         -4   -1    0    0    0  501 -0.00000000000E+00  0.00000000000E+00  0.27033607272E+03  0.27033905584E+03  0.12700000000E+01 0. -1.
          4   -1    0    0  501    0  0.00000000000E+00 -0.00000000000E+00 -0.14418647513E+02  0.14474470495E+02  0.12700000000E+01 0. -1.
         25    2    1    2    0    0  0.00000000000E+00  0.00000000000E+00  0.25591742521E+03  0.28481352634E+03  0.12500006504E+03 0.  0.
    9000005    1    3    3    0    0 -0.58985517617E+02  0.16228631093E+02  0.15701251931E+03  0.16851288074E+03  0.10000000000E+01 0.  0.
    9000005    1    3    3    0    0  0.58985517617E+02 -0.16228631093E+02  0.98904905900E+02  0.11630064560E+03  0.10000000000E+01 0.  0.
<mgrwt>
<rscale>  0 0.12500007E+03</rscale>
<asrwt>0</asrwt>
<pdfrwt beam="2">  1        4 0.22227770E-02 0.12500007E+03</pdfrwt>
<pdfrwt beam="1">  1       -4 0.41594689E-01 0.12500007E+03</pdfrwt>
<totfact> 0.77544052E+03</totfact>
</mgrwt>
</event>
<event>
 5    1  0.3277540E-002  0.1250023E+03  0.7818608E-02  0.1235066E+00
          4   -1    0    0  501    0  0.00000000000E+00  0.00000000000E+00  0.20830385569E+01  0.24396617859E+01  0.12700000000E+01 0. -1.
         -4   -1    0    0    0  501 -0.00000000000E+00 -0.00000000000E+00 -0.17271029264E+04  0.17271033933E+04  0.12700000000E+01 0. -1.
         25    2    1    2    0    0  0.00000000000E+00  0.00000000000E+00 -0.17250198878E+04  0.17295430551E+04  0.12500226427E+03 0.  0.
    9000005    1    3    3    0    0 -0.51081488148E+02 -0.20999737026E+02 -0.45791735677E+03  0.46123704645E+03  0.10000000000E+01 0.  0.
    9000005    1    3    3    0    0  0.51081488148E+02  0.20999737026E+02 -0.12671025311E+04  0.12683060087E+04  0.10000000000E+01 0.  0.
<mgrwt>
<rscale>  0 0.12500226E+03</rscale>
<asrwt>0</asrwt>
<pdfrwt beam="1">  1        4 0.34793732E-03 0.12500226E+03</pdfrwt>
<pdfrwt beam="2">  1       -4 0.26573456E+00 0.12500226E+03</pdfrwt>
<totfact> 0.13820237E+03</totfact>
</mgrwt>
</event>
<event>
 5    1  0.3277540E-002  0.1249995E+03  0.7818608E-02  0.1235070E+00
         -4   -1    0    0    0  501 -0.00000000000E+00  0.00000000000E+00  0.61180297951E+03  0.61180429767E+03  0.12700000000E+01 0. -1.
          4   -1    0    0  501    0  0.00000000000E+00 -0.00000000000E+00 -0.63202773720E+01  0.64466119830E+01  0.12700000000E+01 0. -1.
         25    2    1    2    0    0  0.00000000000E+00  0.00000000000E+00  0.60548270214E+03  0.61825090965E+03  0.12499953875E+03 0.  0.
    9000005    1    3    3    0    0  0.50756761090E+02  0.15481547478E+02  0.13950047309E+03  0.14925585115E+03  0.10000000000E+01 0.  0.
    9000005    1    3    3    0    0 -0.50756761090E+02 -0.15481547478E+02  0.46598222905E+03  0.46899505850E+03  0.10000000000E+01 0.  0.
<mgrwt>
<rscale>  0 0.12499954E+03</rscale>
<asrwt>0</asrwt>
<pdfrwt beam="2">  1        4 0.98216959E-03 0.12499954E+03</pdfrwt>
<pdfrwt beam="1">  1       -4 0.94133376E-01 0.12499954E+03</pdfrwt>
<totfact> 0.47735934E+03</totfact>
</mgrwt>
</event>
<event>
 5    1  0.3277540E-002  0.1249943E+03  0.7818608E-02  0.1235078E+00
         -4   -1    0    0    0  501 -0.00000000000E+00  0.00000000000E+00  0.97264211811E+02  0.97272502791E+02  0.12700000000E+01 0. -1.
          4   -1    0    0  501    0  0.00000000000E+00 -0.00000000000E+00 -0.40137542465E+02  0.40157629600E+02  0.12700000000E+01 0. -1.
         25    2    1    2    0    0  0.00000000000E+00  0.00000000000E+00  0.57126669346E+02  0.13743013239E+03  0.12499433963E+03 0.  0.
    9000005    1    3    3    0    0  0.48806439809E+02  0.22889413414E+02 -0.61865327012E+01  0.54270314170E+02  0.10000000000E+01 0.  0.
    9000005    1    3    3    0    0 -0.48806439809E+02 -0.22889413414E+02  0.63313202047E+02  0.83159818222E+02  0.10000000000E+01 0.  0.
<mgrwt>
<rscale>  0 0.12499434E+03</rscale>
<asrwt>0</asrwt>
<pdfrwt beam="2">  1        4 0.61771895E-02 0.12499434E+03</pdfrwt>
<pdfrwt beam="1">  1       -4 0.14965908E-01 0.12499434E+03</pdfrwt>
<totfact> 0.10188400E+04</totfact>
</mgrwt>
</event>
<event>
 5    1  0.3277540E-002  0.1250011E+03  0.7818608E-02  0.1235068E+00
         -4   -1    0    0    0  501 -0.00000000000E+00  0.00000000000E+00  0.55417566188E+02  0.55432116522E+02  0.12700000000E+01 0.  1.
          4   -1    0    0  501    0  0.00000000000E+00 -0.00000000000E+00 -0.70459295473E+02  0.70470740159E+02  0.12700000000E+01 0.  1.
         25    2    1    2    0    0  0.00000000000E+00  0.00000000000E+00 -0.15041729285E+02  0.12590285668E+03  0.12500110280E+03 0.  0.
    9000005    1    3    3    0    0 -0.26745817850E+02  0.55994377419E+02 -0.14964022540E+02  0.63840669213E+02  0.10000000000E+01 0.  0.
    9000005    1    3    3    0    0  0.26745817850E+02 -0.55994377419E+02 -0.77706744633E-01  0.62062187468E+02  0.10000000000E+01 0.  0.
<mgrwt>
<rscale>  0 0.12500110E+03</rscale>
<asrwt>0</asrwt>
<pdfrwt beam="2">  1        4 0.10841891E-01 0.12500110E+03</pdfrwt>
<pdfrwt beam="1">  1       -4 0.85277790E-02 0.12500110E+03</pdfrwt>
<totfact> 0.10432827E+04</totfact>
</mgrwt>
</event>
<event>
 5    1  0.3277540E-002  0.1249995E+03  0.7818608E-02  0.1235070E+00
         -4   -1    0    0    0  501 -0.00000000000E+00  0.00000000000E+00  0.12973866697E+02  0.13035878070E+02  0.12700000000E+01 0.  1.
          4   -1    0    0  501    0  0.00000000000E+00 -0.00000000000E+00 -0.30030260859E+03  0.30030529403E+03  0.12700000000E+01 0.  1.
         25    2    1    2    0    0  0.00000000000E+00  0.00000000000E+00 -0.28732874189E+03  0.31334117210E+03  0.12499953687E+03 0.  0.
    9000005    1    3    3    0    0 -0.58192176506E+02 -0.96168282516E+01 -0.19542766020E+03  0.20413667766E+03  0.10000000000E+01 0.  0.
    9000005    1    3    3    0    0  0.58192176506E+02  0.96168282516E+01 -0.91901081686E+02  0.10920449445E+03  0.10000000000E+01 0.  0.
<mgrwt>
<rscale>  0 0.12499954E+03</rscale>
<asrwt>0</asrwt>
<pdfrwt beam="2">  1        4 0.46205373E-01 0.12499954E+03</pdfrwt>
<pdfrwt beam="1">  1       -4 0.20009564E-02 0.12499954E+03</pdfrwt>
<totfact> 0.73955929E+03</totfact>
</mgrwt>
</event>
<event>
 5    1  0.3277540E-002  0.1250023E+03  0.7818608E-02  0.1235066E+00
          4   -1    0    0  501    0  0.00000000000E+00  0.00000000000E+00  0.26446168090E+03  0.26446473028E+03  0.12700000000E+01 0.  1.
         -4   -1    0    0    0  501 -0.00000000000E+00 -0.00000000000E+00 -0.14740672462E+02  0.14795280485E+02  0.12700000000E+01 0.  1.
         25    2    1    2    0    0  0.00000000000E+00  0.00000000000E+00  0.24972100844E+03  0.27926001077E+03  0.12500228622E+03 0.  0.
    9000005    1    3    3    0    0 -0.25117947073E+02  0.46829690126E+02  0.51392815765E+02  0.73933433944E+02  0.10000000000E+01 0.  0.
    9000005    1    3    3    0    0  0.25117947073E+02 -0.46829690126E+02  0.19832819267E+03  0.20532657683E+03  0.10000000000E+01 0.  0.
<mgrwt>
<rscale>  0 0.12500229E+03</rscale>
<asrwt>0</asrwt>
<pdfrwt beam="1">  1        4 0.40690847E-01 0.12500229E+03</pdfrwt>
<pdfrwt beam="2">  1       -4 0.22722310E-02 0.12500229E+03</pdfrwt>
<totfact> 0.78272346E+03</totfact>
</mgrwt>
</event>
<event>
 5    1  0.3277540E-002  0.1249925E+03  0.7818608E-02  0.1235081E+00
          4   -1    0    0  501    0  0.00000000000E+00  0.00000000000E+00  0.22796758376E+03  0.22797112129E+03  0.12700000000E+01 0.  1.
         -4   -1    0    0    0  501 -0.00000000000E+00 -0.00000000000E+00 -0.17105855228E+02  0.17152935116E+02  0.12700000000E+01 0.  1.
         25    2    1    2    0    0  0.00000000000E+00  0.00000000000E+00  0.21086172853E+03  0.24512405641E+03  0.12499253767E+03 0.  0.
    9000005    1    3    3    0    0  0.16785872930E+02  0.37257395225E+02  0.19814188083E+03  0.20231431973E+03  0.10000000000E+01 0.  0.
    9000005    1    3    3    0    0 -0.16785872930E+02 -0.37257395225E+02  0.12719847698E+02  0.42809736678E+02  0.10000000000E+01 0.  0.
<mgrwt>
<rscale>  0 0.12499254E+03</rscale>
<asrwt>0</asrwt>
<pdfrwt beam="1">  1        4 0.35075829E-01 0.12499254E+03</pdfrwt>
<pdfrwt beam="2">  1       -4 0.26355637E-02 0.12499254E+03</pdfrwt>
<totfact> 0.83053911E+03</totfact>
</mgrwt>
</event>
<event>
 5    1  0.3277540E-002  0.1249974E+03  0.7818608E-02  0.1235073E+00
         -4   -1    0    0    0  501 -0.00000000000E+00  0.00000000000E+00  0.40264565734E+02  0.40284589532E+02  0.12700000000E+01 0.  1.
          4   -1    0    0  501    0  0.00000000000E+00 -0.00000000000E+00 -0.96962291672E+02  0.96970608466E+02  0.12700000000E+01 0.  1.
         25    2    1    2    0    0  0.00000000000E+00  0.00000000000E+00 -0.56697725938E+02  0.13725519800E+03  0.12499742898E+03 0.  0.
    9000005    1    3    3    0    0 -0.55991490355E+02  0.27749602320E+02 -0.28301105019E+02  0.68607871024E+02  0.10000000000E+01 0.  0.
    9000005    1    3    3    0    0  0.55991490355E+02 -0.27749602320E+02 -0.28396620918E+02  0.68647326974E+02  0.10000000000E+01 0.  0.
<mgrwt>
<rscale>  0 0.12499743E+03</rscale>
<asrwt>0</asrwt>
<pdfrwt beam="2">  1        4 0.14919456E-01 0.12499743E+03</pdfrwt>
<pdfrwt beam="1">  1       -4 0.61967286E-02 0.12499743E+03</pdfrwt>
<totfact> 0.10191343E+04</totfact>
</mgrwt>
</event>
<event>
 5    1  0.3277540E-002  0.1249986E+03  0.7818608E-02  0.1235071E+00
          4   -1    0    0  501    0  0.00000000000E+00  0.00000000000E+00  0.64421706580E+02  0.64434223660E+02  0.12700000000E+01 0. -1.
         -4   -1    0    0    0  501 -0.00000000000E+00 -0.00000000000E+00 -0.60609240842E+02  0.60622545109E+02  0.12700000000E+01 0. -1.
         25    2    1    2    0    0  0.00000000000E+00  0.00000000000E+00  0.38124657375E+01  0.12505676877E+03  0.12499864207E+03 0.  0.
    9000005    1    3    3    0    0  0.24639199829E+02  0.20622217816E+02  0.55529656160E+02  0.64163141671E+02  0.10000000000E+01 0.  0.
    9000005    1    3    3    0    0 -0.24639199829E+02 -0.20622217816E+02 -0.51717190422E+02  0.60893627097E+02  0.10000000000E+01 0.  0.
<mgrwt>
<rscale>  0 0.12499864E+03</rscale>
<asrwt>0</asrwt>
<pdfrwt beam="1">  1        4 0.99130180E-02 0.12499864E+03</pdfrwt>
<pdfrwt beam="2">  1       -4 0.93264849E-02 0.12499864E+03</pdfrwt>
<totfact> 0.10451950E+04</totfact>
</mgrwt>
</event>
<event>
 5    1  0.3277540E-002  0.1250001E+03  0.7818608E-02  0.1235069E+00
          4   -1    0    0  501    0  0.00000000000E+00  0.00000000000E+00  0.32933096928E+03  0.32933341802E+03  0.12700000000E+01 0. -1.
         -4   -1    0    0    0  501 -0.00000000000E+00 -0.00000000000E+00 -0.11824691602E+02  0.11892696560E+02  0.12700000000E+01 0. -1.
         25    2    1    2    0    0  0.00000000000E+00  0.00000000000E+00  0.31750627768E+03  0.34122611458E+03  0.12500009964E+03 0.  0.
    9000005    1    3    3    0    0  0.14921895695E+02 -0.11645376108E+02  0.32133091477E+03  0.32188947566E+03  0.10000000000E+01 0.  0.
    9000005    1    3    3    0    0 -0.14921895695E+02  0.11645376108E+02 -0.38246370922E+01  0.19336638920E+02  0.10000000000E+01 0.  0.
<mgrwt>
<rscale>  0 0.12500010E+03</rscale>
<asrwt>0</asrwt>
<pdfrwt beam="1">  1        4 0.50671721E-01 0.12500010E+03</pdfrwt>
<pdfrwt beam="2">  1       -4 0.18246029E-02 0.12500010E+03</pdfrwt>
<totfact> 0.70700542E+03</totfact>
</mgrwt>
</event>
<event>
 5    1  0.3277540E-002  0.1249971E+03  0.7818608E-02  0.1235074E+00
          4   -1    0    0  501    0  0.00000000000E+00  0.00000000000E+00  0.18186141034E+03  0.18186584470E+03  0.12700000000E+01 0. -1.
         -4   -1    0    0    0  501 -0.00000000000E+00 -0.00000000000E+00 -0.21454810885E+02  0.21492366322E+02  0.12700000000E+01 0. -1.
         25    2    1    2    0    0  0.00000000000E+00  0.00000000000E+00  0.16040659945E+03  0.20335821102E+03  0.12499713934E+03 0.  0.
    9000005    1    3    3    0    0  0.61112023302E+02  0.12655027555E+02  0.74996677491E+02  0.97572182251E+02  0.10000000000E+01 0.  0.
    9000005    1    3    3    0    0 -0.61112023302E+02 -0.12655027555E+02  0.85409921959E+02  0.10578602877E+03  0.10000000000E+01 0.  0.
<mgrwt>
<rscale>  0 0.12499714E+03</rscale>
<asrwt>0</asrwt>
<pdfrwt beam="1">  1        4 0.27981908E-01 0.12499714E+03</pdfrwt>
<pdfrwt beam="2">  1       -4 0.33039702E-02 0.12499714E+03</pdfrwt>
<totfact> 0.89577924E+03</totfact>
</mgrwt>
</event>
<event>
 5    1  0.3277540E-002  0.1249998E+03  0.7818608E-02  0.1235070E+00
          4   -1    0    0  501    0  0.00000000000E+00  0.00000000000E+00  0.34707527360E+02  0.34730755181E+02  0.12700000000E+01 0.  1.
         -4   -1    0    0    0  501 -0.00000000000E+00 -0.00000000000E+00 -0.11248272539E+03  0.11248989470E+03  0.12700000000E+01 0.  1.
         25    2    1    2    0    0  0.00000000000E+00  0.00000000000E+00 -0.77775198026E+02  0.14722064988E+03  0.12499975330E+03 0.  0.
    9000005    1    3    3    0    0  0.23172041674E+02  0.50880254811E+02 -0.60050819827E+01  0.56238819819E+02  0.10000000000E+01 0.  0.
    9000005    1    3    3    0    0 -0.23172041674E+02 -0.50880254811E+02 -0.71770116043E+02  0.90981830064E+02  0.10000000000E+01 0.  0.
<mgrwt>
<rscale>  0 0.12499975E+03</rscale>
<asrwt>0</asrwt>
<pdfrwt beam="1">  1        4 0.53419579E-02 0.12499975E+03</pdfrwt>
<pdfrwt beam="2">  1       -4 0.17307373E-01 0.12499975E+03</pdfrwt>
<totfact> 0.99861188E+03</totfact>
</mgrwt>
</event>
<event>
 5    1  0.3277540E-002  0.1250024E+03  0.7818608E-02  0.1235066E+00
          4   -1    0    0  501    0  0.00000000000E+00  0.00000000000E+00  0.41047843348E+02  0.41067485235E+02  0.12700000000E+01 0. -1.
         -4   -1    0    0    0  501 -0.00000000000E+00 -0.00000000000E+00 -0.95120279087E+02  0.95128756923E+02  0.12700000000E+01 0. -1.
         25    2    1    2    0    0  0.00000000000E+00  0.00000000000E+00 -0.54072435739E+02  0.13619624216E+03  0.12500235226E+03 0.  0.
    9000005    1    3    3    0    0 -0.22325807652E+01  0.19989802278E+02 -0.91502385822E+02  0.93692386154E+02  0.10000000000E+01 0.  0.
    9000005    1    3    3    0    0  0.22325807652E+01 -0.19989802278E+02  0.37429950083E+02  0.42503856004E+02  0.10000000000E+01 0.  0.
<mgrwt>
<rscale>  0 0.12500235E+03</rscale>
<asrwt>0</asrwt>
<pdfrwt beam="1">  1        4 0.63172159E-02 0.12500235E+03</pdfrwt>
<pdfrwt beam="2">  1       -4 0.14636052E-01 0.12500235E+03</pdfrwt>
<totfact> 0.10212377E+04</totfact>
</mgrwt>
</event>
<event>
 5    1  0.3277540E-002  0.1250010E+03  0.7818608E-02  0.1235068E+00
          4   -1    0    0  501    0  0.00000000000E+00  0.00000000000E+00  0.25600026284E+02  0.25631508846E+02  0.12700000000E+01 0. -1.
         -4   -1    0    0    0  501 -0.00000000000E+00 -0.00000000000E+00 -0.15246233095E+03  0.15246762036E+03  0.12700000000E+01 0. -1.
         25    2    1    2    0    0  0.00000000000E+00  0.00000000000E+00 -0.12686230467E+03  0.17809912921E+03  0.12500102191E+03 0.  0.
    9000005    1    3    3    0    0  0.35574718468E+02  0.24210951588E+02  0.11349207367E+01  0.43058318777E+02  0.10000000000E+01 0.  0.
    9000005    1    3    3    0    0 -0.35574718468E+02 -0.24210951588E+02 -0.12799722541E+03  0.13504081043E+03  0.10000000000E+01 0.  0.
<mgrwt>
<rscale>  0 0.12500102E+03</rscale>
<asrwt>0</asrwt>
<pdfrwt beam="1">  1        4 0.39412943E-02 0.12500102E+03</pdfrwt>
<pdfrwt beam="2">  1       -4 0.23458571E-01 0.12500102E+03</pdfrwt>
<totfact> 0.93958136E+03</totfact>
</mgrwt>
</event>
<event>
 5    1  0.3277540E-002  0.1250017E+03  0.7818608E-02  0.1235067E+00
         -4   -1    0    0    0  501 -0.00000000000E+00  0.00000000000E+00  0.25148491473E+02  0.25180538584E+02  0.12700000000E+01 0.  1.
          4   -1    0    0  501    0  0.00000000000E+00 -0.00000000000E+00 -0.15519816295E+03  0.15520335912E+03  0.12700000000E+01 0.  1.
         25    2    1    2    0    0  0.00000000000E+00  0.00000000000E+00 -0.13004967148E+03  0.18038389771E+03  0.12500173399E+03 0.  0.
    9000005    1    3    3    0    0  0.23990558291E+02 -0.47685247489E+02 -0.18132807461E+02  0.56384647038E+02  0.10000000000E+01 0.  0.
    9000005    1    3    3    0    0 -0.23990558291E+02  0.47685247489E+02 -0.11191686402E+03  0.12399925067E+03  0.10000000000E+01 0.  0.
<mgrwt>
<rscale>  0 0.12500173E+03</rscale>
<asrwt>0</asrwt>
<pdfrwt beam="2">  1        4 0.23879505E-01 0.12500173E+03</pdfrwt>
<pdfrwt beam="1">  1       -4 0.38718636E-02 0.12500173E+03</pdfrwt>
<totfact> 0.93544309E+03</totfact>
</mgrwt>
</event>
<event>
 5    1  0.3277540E-002  0.1250074E+03  0.7818608E-02  0.1235058E+00
          4   -1    0    0  501    0  0.00000000000E+00  0.00000000000E+00  0.21411096373E+03  0.21411473020E+03  0.12700000000E+01 0.  1.
         -4   -1    0    0    0  501 -0.00000000000E+00 -0.00000000000E+00 -0.18220169440E+02  0.18264377198E+02  0.12700000000E+01 0.  1.
         25    2    1    2    0    0  0.00000000000E+00  0.00000000000E+00  0.19589079429E+03  0.23237910740E+03  0.12500738486E+03 0.  0.
    9000005    1    3    3    0    0 -0.96925969913E-01 -0.57239502608E+02  0.14457960450E+03  0.15550122859E+03  0.10000000000E+01 0.  0.
    9000005    1    3    3    0    0  0.96925969913E-01  0.57239502608E+02  0.51311189783E+02  0.76877878810E+02  0.10000000000E+01 0.  0.
<mgrwt>
<rscale>  0 0.12500738E+03</rscale>
<asrwt>0</asrwt>
<pdfrwt beam="1">  1        4 0.32943838E-01 0.12500738E+03</pdfrwt>
<pdfrwt beam="2">  1       -4 0.28067934E-02 0.12500738E+03</pdfrwt>
<totfact> 0.84931624E+03</totfact>
</mgrwt>
</event>
<event>
 5    1  0.3277540E-002  0.1250004E+03  0.7818608E-02  0.1235069E+00
          4   -1    0    0  501    0  0.00000000000E+00  0.00000000000E+00  0.61172192930E+03  0.61172324762E+03  0.12700000000E+01 0. -1.
         -4   -1    0    0    0  501 -0.00000000000E+00 -0.00000000000E+00 -0.63212241894E+01  0.64475402483E+01  0.12700000000E+01 0. -1.
         25    2    1    2    0    0  0.00000000000E+00  0.00000000000E+00  0.60540070511E+03  0.61817078787E+03  0.12500043693E+03 0.  0.
    9000005    1    3    3    0    0  0.17968390493E+02  0.47935134688E+02  0.12544997062E+03  0.13549662477E+03  0.10000000000E+01 0.  0.
    9000005    1    3    3    0    0 -0.17968390493E+02 -0.47935134688E+02  0.47995073449E+03  0.48267416311E+03  0.10000000000E+01 0.  0.
<mgrwt>
<rscale>  0 0.12500044E+03</rscale>
<asrwt>0</asrwt>
<pdfrwt beam="1">  1        4 0.94120866E-01 0.12500044E+03</pdfrwt>
<pdfrwt beam="2">  1       -4 0.98231425E-03 0.12500044E+03</pdfrwt>
<totfact> 0.47739894E+03</totfact>
</mgrwt>
</event>
<event>
 5    1  0.3277540E-002  0.1250050E+03  0.7818608E-02  0.1235061E+00
          4   -1    0    0  501    0  0.00000000000E+00  0.00000000000E+00  0.59818201062E+01  0.61151510024E+01  0.12700000000E+01 0. -1.
         -4   -1    0    0    0  501 -0.00000000000E+00 -0.00000000000E+00 -0.64574100517E+03  0.64574225405E+03  0.12700000000E+01 0. -1.
         25    2    1    2    0    0  0.00000000000E+00  0.00000000000E+00 -0.63975918507E+03  0.65185740505E+03  0.12500504646E+03 0.  0.
    9000005    1    3    3    0    0 -0.36442963809E+02  0.48587018616E+02 -0.39665675902E+03  0.40128091466E+03  0.10000000000E+01 0.  0.
    9000005    1    3    3    0    0  0.36442963809E+02 -0.48587018616E+02 -0.24310242604E+03  0.25057649039E+03  0.10000000000E+01 0.  0.
<mgrwt>
<rscale>  0 0.12500505E+03</rscale>
<asrwt>0</asrwt>
<pdfrwt beam="1">  1        4 0.93063282E-03 0.12500505E+03</pdfrwt>
<pdfrwt beam="2">  1       -4 0.99355068E-01 0.12500505E+03</pdfrwt>
<totfact> 0.45744479E+03</totfact>
</mgrwt>
</event>
<event>
 5    1  0.3277540E-002  0.1250007E+03  0.7818608E-02  0.1235068E+00
         -4   -1    0    0    0  501 -0.00000000000E+00  0.00000000000E+00  0.59154830416E+02  0.59168461714E+02  0.12700000000E+01 0.  1.
          4   -1    0    0  501    0  0.00000000000E+00 -0.00000000000E+00 -0.66007760834E+02  0.66019977206E+02  0.12700000000E+01 0.  1.
         25    2    1    2    0    0  0.00000000000E+00  0.00000000000E+00 -0.68529304177E+01  0.12518843892E+03  0.12500073033E+03 0.  0.
    9000005    1    3    3    0    0  0.17857829462E+01 -0.61798304931E+02  0.57018327964E+01  0.62094528022E+02  0.10000000000E+01 0.  0.
    9000005    1    3    3    0    0 -0.17857829462E+01  0.61798304931E+02 -0.12554763214E+02  0.63093910898E+02  0.10000000000E+01 0.  0.
<mgrwt>
<rscale>  0 0.12500073E+03</rscale>
<asrwt>0</asrwt>
<pdfrwt beam="2">  1        4 0.10157028E-01 0.12500073E+03</pdfrwt>
<pdfrwt beam="1">  1       -4 0.91027314E-02 0.12500073E+03</pdfrwt>
<totfact> 0.10448599E+04</totfact>
</mgrwt>
</event>
<event>
 5    1  0.3277540E-002  0.1249938E+03  0.7818608E-02  0.1235079E+00
          4   -1    0    0  501    0  0.00000000000E+00  0.00000000000E+00  0.35718138781E+02  0.35740709813E+02  0.12700000000E+01 0.  1.
         -4   -1    0    0    0  501 -0.00000000000E+00 -0.00000000000E+00 -0.10929147916E+03  0.10929885780E+03  0.12700000000E+01 0.  1.
         25    2    1    2    0    0  0.00000000000E+00  0.00000000000E+00 -0.73573340377E+02  0.14503956761E+03  0.12499375888E+03 0.  0.
    9000005    1    3    3    0    0 -0.42408788229E+02  0.45311540750E+02 -0.28321589597E+02  0.68225753799E+02  0.10000000000E+01 0.  0.
    9000005    1    3    3    0    0  0.42408788229E+02 -0.45311540750E+02 -0.45251750780E+02  0.76813813815E+02  0.10000000000E+01 0.  0.
<mgrwt>
<rscale>  0 0.12499376E+03</rscale>
<asrwt>0</asrwt>
<pdfrwt beam="1">  1        4 0.54974021E-02 0.12499376E+03</pdfrwt>
<pdfrwt beam="2">  1       -4 0.16816377E-01 0.12499376E+03</pdfrwt>
<totfact> 0.10031594E+04</totfact>
</mgrwt>
</event>
<event>
 5    1  0.3277540E-002  0.1249983E+03  0.7818608E-02  0.1235072E+00
         -4   -1    0    0    0  501 -0.00000000000E+00  0.00000000000E+00  0.12245330181E+02  0.12311011788E+02  0.12700000000E+01 0. -1.
          4   -1    0    0  501    0  0.00000000000E+00 -0.00000000000E+00 -0.31807019232E+03  0.31807272775E+03  0.12700000000E+01 0. -1.
         25    2    1    2    0    0  0.00000000000E+00  0.00000000000E+00 -0.30582486214E+03  0.33038373954E+03  0.12499827620E+03 0.  0.
    9000005    1    3    3    0    0  0.45338517846E+02 -0.22311732889E+02 -0.25008919899E+03  0.25514506085E+03  0.10000000000E+01 0.  0.
    9000005    1    3    3    0    0 -0.45338517846E+02  0.22311732889E+02 -0.55735663151E+02  0.75238678696E+02  0.10000000000E+01 0.  0.
<mgrwt>
<rscale>  0 0.12499828E+03</rscale>
<asrwt>0</asrwt>
<pdfrwt beam="2">  1        4 0.48939117E-01 0.12499828E+03</pdfrwt>
<pdfrwt beam="1">  1       -4 0.18891447E-02 0.12499828E+03</pdfrwt>
<totfact> 0.71940653E+03</totfact>
</mgrwt>
</event>
<event>
 5    1  0.3277540E-002  0.1250004E+03  0.7818608E-02  0.1235069E+00
         -4   -1    0    0    0  501 -0.00000000000E+00  0.00000000000E+00  0.19541377906E+02  0.19582603261E+02  0.12700000000E+01 0.  1.
          4   -1    0    0  501    0  0.00000000000E+00 -0.00000000000E+00 -0.19964370507E+03  0.19964774448E+03  0.12700000000E+01 0.  1.
         25    2    1    2    0    0  0.00000000000E+00  0.00000000000E+00 -0.18010232717E+03  0.21923034774E+03  0.12500038848E+03 0.  0.
    9000005    1    3    3    0    0 -0.52964875091E+02  0.19647027351E+02 -0.43187573252E+02  0.71115751846E+02  0.10000000000E+01 0.  0.
    9000005    1    3    3    0    0  0.52964875091E+02 -0.19647027351E+02 -0.13691475391E+03  0.14811459589E+03  0.10000000000E+01 0.  0.
<mgrwt>
<rscale>  0 0.12500039E+03</rscale>
<asrwt>0</asrwt>
<pdfrwt beam="2">  1        4 0.30717897E-01 0.12500039E+03</pdfrwt>
<pdfrwt beam="1">  1       -4 0.30098479E-02 0.12500039E+03</pdfrwt>
<totfact> 0.86989529E+03</totfact>
</mgrwt>
</event>
<event>
 5    1  0.3277540E-002  0.1250011E+03  0.7818608E-02  0.1235068E+00
          4   -1    0    0  501    0  0.00000000000E+00  0.00000000000E+00  0.52943632576E+03  0.52943784898E+03  0.12700000000E+01 0. -1.
         -4   -1    0    0    0  501 -0.00000000000E+00 -0.00000000000E+00 -0.73220683014E+01  0.74313918085E+01  0.12700000000E+01 0. -1.
         25    2    1    2    0    0  0.00000000000E+00  0.00000000000E+00  0.52211425746E+03  0.53686924079E+03  0.12500113545E+03 0.  0.
    9000005    1    3    3    0    0 -0.13501319337E+02  0.16506978200E+02  0.87677064178E+01  0.23078965076E+02  0.10000000000E+01 0.  0.
    9000005    1    3    3    0    0  0.13501319337E+02 -0.16506978200E+02  0.51334655104E+03  0.51379027571E+03  0.10000000000E+01 0.  0.
<mgrwt>
<rscale>  0 0.12500114E+03</rscale>
<asrwt>0</asrwt>
<pdfrwt beam="1">  1        4 0.81460272E-01 0.12500114E+03</pdfrwt>
<pdfrwt beam="2">  1       -4 0.11349987E-02 0.12500114E+03</pdfrwt>
<totfact> 0.53111771E+03</totfact>
</mgrwt>
</event>
<event>
 4    1  0.3277540E-002  0.1249211E+03  0.7818608E-02  0.1235193E+00
          4   -1    0    0  501    0  0.00000000000E+00  0.00000000000E+00  0.73023224358E+03  0.73023334795E+03  0.12700000000E+01 0. -1.
         -4   -1    0    0    0  501 -0.00000000000E+00 -0.00000000000E+00 -0.52659730849E+01  0.54169523287E+01  0.12700000000E+01 0. -1.
    9000005    1    1    2    0    0  0.45445394058E+02 -0.40850151149E+02  0.43842489224E+03  0.44266398636E+03  0.10000000000E+01 0.  0.
    9000005    1    1    2    0    0 -0.45445394058E+02  0.40850151149E+02  0.28654137826E+03  0.29298631392E+03  0.10000000000E+01 0.  0.
<mgrwt>
<rscale>  0 0.12492106E+03</rscale>
<asrwt>0</asrwt>
<pdfrwt beam="1">  1        4 0.11235517E+00 0.12492106E+03</pdfrwt>
<pdfrwt beam="2">  1       -4 0.82184809E-03 0.12492106E+03</pdfrwt>
<totfact> 0.41341375E+03</totfact>
</mgrwt>
</event>
<event>
 5    1  0.3277540E-002  0.1250036E+03  0.7818608E-02  0.1235064E+00
          4   -1    0    0  501    0  0.00000000000E+00  0.00000000000E+00  0.13897389105E+03  0.13897969381E+03  0.12700000000E+01 0. -1.
         -4   -1    0    0    0  501 -0.00000000000E+00 -0.00000000000E+00 -0.28088699913E+02  0.28117396088E+02  0.12700000000E+01 0. -1.
         25    2    1    2    0    0  0.00000000000E+00  0.00000000000E+00  0.11088519113E+03  0.16709708990E+03  0.12500364731E+03 0.  0.
    9000005    1    3    3    0    0 -0.15425540496E+02 -0.58536193141E+02  0.34688919062E+02  0.69776459588E+02  0.10000000000E+01 0.  0.
    9000005    1    3    3    0    0  0.15425540496E+02  0.58536193141E+02  0.76196272071E+02  0.97320630313E+02  0.10000000000E+01 0.  0.
<mgrwt>
<rscale>  0 0.12500365E+03</rscale>
<asrwt>0</asrwt>
<pdfrwt beam="1">  1        4 0.21383252E-01 0.12500365E+03</pdfrwt>
<pdfrwt beam="2">  1       -4 0.43239922E-02 0.12500365E+03</pdfrwt>
<totfact> 0.95983841E+03</totfact>
</mgrwt>
</event>
<event>
 5    1  0.3277540E-002  0.1249986E+03  0.7818608E-02  0.1235071E+00
          4   -1    0    0  501    0  0.00000000000E+00  0.00000000000E+00  0.16021328314E+04  0.16021333348E+04  0.12700000000E+01 0. -1.
         -4   -1    0    0    0  501 -0.00000000000E+00 -0.00000000000E+00 -0.22721805350E+01  0.26030183218E+01  0.12700000000E+01 0. -1.
         25    2    1    2    0    0  0.00000000000E+00  0.00000000000E+00  0.15998606509E+04  0.16047363531E+04  0.12499864286E+03 0.  0.
    9000005    1    3    3    0    0  0.34629715756E+02 -0.31038376883E+01  0.14665584608E+04  0.14669708824E+04  0.10000000000E+01 0.  0.
    9000005    1    3    3    0    0 -0.34629715756E+02  0.31038376883E+01  0.13330219010E+03  0.13776547066E+03  0.10000000000E+01 0.  0.
<mgrwt>
<rscale>  0 0.12499864E+03</rscale>
<asrwt>0</asrwt>
<pdfrwt beam="1">  1        4 0.24650696E+00 0.12499864E+03</pdfrwt>
<pdfrwt beam="2">  1       -4 0.37505478E-03 0.12499864E+03</pdfrwt>
<totfact> 0.15961286E+03</totfact>
</mgrwt>
</event>
<event>
 5    1  0.3277540E-002  0.1249973E+03  0.7818608E-02  0.1235074E+00
          4   -1    0    0  501    0  0.00000000000E+00  0.00000000000E+00  0.86268598676E+02  0.86277946299E+02  0.12700000000E+01 0.  1.
         -4   -1    0    0    0  501 -0.00000000000E+00 -0.00000000000E+00 -0.45257400084E+02  0.45275215763E+02  0.12700000000E+01 0.  1.
         25    2    1    2    0    0  0.00000000000E+00  0.00000000000E+00  0.41011198592E+02  0.13155316206E+03  0.12499726412E+03 0.  0.
    9000005    1    3    3    0    0  0.29215661194E+02  0.22633079174E+02 -0.32528481182E+02  0.49243407882E+02  0.10000000000E+01 0.  0.
    9000005    1    3    3    0    0 -0.29215661194E+02 -0.22633079174E+02  0.73539679773E+02  0.82309754179E+02  0.10000000000E+01 0.  0.
<mgrwt>
<rscale>  0 0.12499726E+03</rscale>
<asrwt>0</asrwt>
<pdfrwt beam="1">  1        4 0.13274182E-01 0.12499726E+03</pdfrwt>
<pdfrwt beam="2">  1       -4 0.69647664E-02 0.12499726E+03</pdfrwt>
<totfact> 0.10311881E+04</totfact>
</mgrwt>
</event>
<event>
 5    1  0.3277540E-002  0.1249871E+03  0.7818608E-02  0.1235089E+00
          4   -1    0    0  501    0  0.00000000000E+00  0.00000000000E+00  0.24773616022E+01  0.27839217855E+01  0.12700000000E+01 0.  1.
         -4   -1    0    0    0  501 -0.00000000000E+00 -0.00000000000E+00 -0.14842907976E+04  0.14842913409E+04  0.12700000000E+01 0.  1.
         25    2    1    2    0    0  0.00000000000E+00  0.00000000000E+00 -0.14818134360E+04  0.14870752627E+04  0.12498711076E+03 0.  0.
    9000005    1    3    3    0    0  0.23004439499E+02 -0.40950120882E+02 -0.25058798833E+03  0.25495383215E+03  0.10000000000E+01 0.  0.
    9000005    1    3    3    0    0 -0.23004439499E+02  0.40950120882E+02 -0.12312254477E+04  0.12321214306E+04  0.10000000000E+01 0.  0.
<mgrwt>
<rscale>  0 0.12498711E+03</rscale>
<asrwt>0</asrwt>
<pdfrwt beam="1">  1        4 0.40475709E-03 0.12498711E+03</pdfrwt>
<pdfrwt beam="2">  1       -4 0.22837538E+00 0.12498711E+03</pdfrwt>
<totfact> 0.18191110E+03</totfact>
</mgrwt>
</event>
<event>
 5    1  0.3277540E-002  0.1249985E+03  0.7818608E-02  0.1235072E+00
         -4   -1    0    0    0  501 -0.00000000000E+00  0.00000000000E+00  0.20936845977E+03  0.20937231155E+03  0.12700000000E+01 0. -1.
          4   -1    0    0  501    0  0.00000000000E+00 -0.00000000000E+00 -0.18631200014E+02  0.18674434770E+02  0.12700000000E+01 0. -1.
         25    2    1    2    0    0  0.00000000000E+00  0.00000000000E+00  0.19073725975E+03  0.22804674632E+03  0.12499846499E+03 0.  0.
    9000005    1    3    3    0    0  0.15746271482E+02  0.36558596519E+02  0.74812242285E+01  0.40514747451E+02  0.10000000000E+01 0.  0.
    9000005    1    3    3    0    0 -0.15746271482E+02 -0.36558596519E+02  0.18325603552E+03  0.18753199887E+03  0.10000000000E+01 0.  0.
<mgrwt>
<rscale>  0 0.12499846E+03</rscale>
<asrwt>0</asrwt>
<pdfrwt beam="2">  1        4 0.28699606E-02 0.12499846E+03</pdfrwt>
<pdfrwt beam="1">  1       -4 0.32214153E-01 0.12499846E+03</pdfrwt>
<totfact> 0.85613359E+03</totfact>
</mgrwt>
</event>
<event>
 5    1  0.3277540E-002  0.1249972E+03  0.7818608E-02  0.1235074E+00
         -4   -1    0    0    0  501 -0.00000000000E+00  0.00000000000E+00  0.59120462802E+02  0.59134102022E+02  0.12700000000E+01 0. -1.
          4   -1    0    0  501    0  0.00000000000E+00 -0.00000000000E+00 -0.66042430534E+02  0.66054640494E+02  0.12700000000E+01 0. -1.
         25    2    1    2    0    0  0.00000000000E+00  0.00000000000E+00 -0.69219677318E+01  0.12518874252E+03  0.12499723043E+03 0.  0.
    9000005    1    3    3    0    0  0.61467926609E+02 -0.54771740853E+01 -0.13313304739E+02  0.63139128285E+02  0.10000000000E+01 0.  0.
    9000005    1    3    3    0    0 -0.61467926609E+02  0.54771740853E+01  0.63913370071E+01  0.62049614231E+02  0.10000000000E+01 0.  0.
<mgrwt>
<rscale>  0 0.12499723E+03</rscale>
<asrwt>0</asrwt>
<pdfrwt beam="2">  1        4 0.10162362E-01 0.12499723E+03</pdfrwt>
<pdfrwt beam="1">  1       -4 0.90974442E-02 0.12499723E+03</pdfrwt>
<totfact> 0.10449419E+04</totfact>
</mgrwt>
</event>
<event>
 5    1  0.3277540E-002  0.1249980E+03  0.7818608E-02  0.1235072E+00
          4   -1    0    0  501    0  0.00000000000E+00  0.00000000000E+00  0.30031126977E+02  0.30057968786E+02  0.12700000000E+01 0.  1.
         -4   -1    0    0    0  501 -0.00000000000E+00 -0.00000000000E+00 -0.12998113345E+03  0.12998733766E+03  0.12700000000E+01 0.  1.
         25    2    1    2    0    0  0.00000000000E+00  0.00000000000E+00 -0.99950006468E+02  0.16004530644E+03  0.12499798527E+03 0.  0.
    9000005    1    3    3    0    0 -0.22106376622E+02  0.27914485255E+01  0.24778318872E+02  0.33338403656E+02  0.10000000000E+01 0.  0.
    9000005    1    3    3    0    0  0.22106376622E+02 -0.27914485255E+01 -0.12472832534E+03  0.12670690279E+03  0.10000000000E+01 0.  0.
<mgrwt>
<rscale>  0 0.12499799E+03</rscale>
<asrwt>0</asrwt>
<pdfrwt beam="1">  1        4 0.46227155E-02 0.12499799E+03</pdfrwt>
<pdfrwt beam="2">  1       -4 0.19999639E-01 0.12499799E+03</pdfrwt>
<totfact> 0.97338459E+03</totfact>
</mgrwt>
</event>
<event>
 5    1  0.3277540E-002  0.1250016E+03  0.7818608E-02  0.1235067E+00
          4   -1    0    0  501    0  0.00000000000E+00  0.00000000000E+00  0.26339958607E+04  0.26339961669E+04  0.12700000000E+01 0.  1.
         -4   -1    0    0    0  501 -0.00000000000E+00 -0.00000000000E+00 -0.12108005422E+01  0.17546902727E+01  0.12700000000E+01 0.  1.
         25    2    1    2    0    0  0.00000000000E+00  0.00000000000E+00  0.26327850601E+04  0.26357508571E+04  0.12500163174E+03 0.  0.
    9000005    1    3    3    0    0  0.20151909460E+02  0.38048345604E+02  0.22714565217E+04  0.22718647640E+04  0.10000000000E+01 0.  0.
    9000005    1    3    3    0    0 -0.20151909460E+02 -0.38048345604E+02  0.36132853846E+03  0.36388609311E+03  0.10000000000E+01 0.  0.
<mgrwt>
<rscale>  0 0.12500163E+03</rscale>
<asrwt>0</asrwt>
<pdfrwt beam="1">  1        4 0.40526695E+00 0.12500163E+03</pdfrwt>
<pdfrwt beam="2">  1       -4 0.22814107E-03 0.12500163E+03</pdfrwt>
<totfact> 0.36885747E+02</totfact>
</mgrwt>
</event>
<event>
 5    1  0.3277540E-002  0.1249997E+03  0.7818608E-02  0.1235070E+00
          4   -1    0    0  501    0  0.00000000000E+00  0.00000000000E+00  0.23366481767E+03  0.23366826895E+03  0.12700000000E+01 0. -1.
         -4   -1    0    0    0  501 -0.00000000000E+00 -0.00000000000E+00 -0.16689539247E+02  0.16737790185E+02  0.12700000000E+01 0. -1.
         25    2    1    2    0    0  0.00000000000E+00  0.00000000000E+00  0.21697527842E+03  0.25040605914E+03  0.12499969203E+03 0.  0.
    9000005    1    3    3    0    0  0.38023447979E+02  0.43554955570E+02  0.15599533339E+03  0.16636814837E+03  0.10000000000E+01 0.  0.
    9000005    1    3    3    0    0 -0.38023447979E+02 -0.43554955570E+02  0.60979945028E+02  0.84037910770E+02  0.10000000000E+01 0.  0.
<mgrwt>
<rscale>  0 0.12499969E+03</rscale>
<asrwt>0</asrwt>
<pdfrwt beam="1">  1        4 0.35952412E-01 0.12499969E+03</pdfrwt>
<pdfrwt beam="2">  1       -4 0.25715984E-02 0.12499969E+03</pdfrwt>
<totfact> 0.82272137E+03</totfact>
</mgrwt>
</event>
<event>
 5    1  0.3277540E-002  0.1249993E+03  0.7818608E-02  0.1235070E+00
         -4   -1    0    0    0  501 -0.00000000000E+00  0.00000000000E+00  0.56196855532E+02  0.56211204147E+02  0.12700000000E+01 0. -1.
          4   -1    0    0  501    0  0.00000000000E+00 -0.00000000000E+00 -0.69480312103E+02  0.69491918019E+02  0.12700000000E+01 0. -1.
         25    2    1    2    0    0  0.00000000000E+00  0.00000000000E+00 -0.13283456572E+02  0.12570312217E+03  0.12499929881E+03 0.  0.
    9000005    1    3    3    0    0  0.36536973580E+02 -0.22926080512E+02 -0.52114145063E+02  0.67656778830E+02  0.10000000000E+01 0.  0.
    9000005    1    3    3    0    0 -0.36536973580E+02  0.22926080512E+02  0.38830688491E+02  0.58046343336E+02  0.10000000000E+01 0.  0.
<mgrwt>
<rscale>  0 0.12499930E+03</rscale>
<asrwt>0</asrwt>
<pdfrwt beam="2">  1        4 0.10691275E-01 0.12499930E+03</pdfrwt>
<pdfrwt beam="1">  1       -4 0.86476666E-02 0.12499930E+03</pdfrwt>
<totfact> 0.10437641E+04</totfact>
</mgrwt>
</event>
<event>
 5    1  0.3277540E-002  0.1249909E+03  0.7818608E-02  0.1235084E+00
          4   -1    0    0  501    0  0.00000000000E+00  0.00000000000E+00  0.11081680440E+02  0.11154216305E+02  0.12700000000E+01 0. -1.
         -4   -1    0    0    0  501 -0.00000000000E+00 -0.00000000000E+00 -0.35122139146E+03  0.35122368758E+03  0.12700000000E+01 0. -1.
         25    2    1    2    0    0  0.00000000000E+00  0.00000000000E+00 -0.34013971102E+03  0.36237790389E+03  0.12499088852E+03 0.  0.
    9000005    1    3    3    0    0 -0.28823870023E+02  0.29675299967E+02 -0.34292734812E+02  0.53744121280E+02  0.10000000000E+01 0.  0.
    9000005    1    3    3    0    0  0.28823870023E+02 -0.29675299967E+02 -0.30584697621E+03  0.30863378261E+03  0.10000000000E+01 0.  0.
<mgrwt>
<rscale>  0 0.12499089E+03</rscale>
<asrwt>0</asrwt>
<pdfrwt beam="1">  1        4 0.17106305E-02 0.12499089E+03</pdfrwt>
<pdfrwt beam="2">  1       -4 0.54039808E-01 0.12499089E+03</pdfrwt>
<totfact> 0.68397748E+03</totfact>
</mgrwt>
</event>
<event>
 5    1  0.3277540E-002  0.1250001E+03  0.7818608E-02  0.1235069E+00
         -4   -1    0    0    0  501 -0.00000000000E+00  0.00000000000E+00  0.29858440698E+01  0.32447133631E+01  0.12700000000E+01 0. -1.
          4   -1    0    0  501    0  0.00000000000E+00 -0.00000000000E+00 -0.12536429248E+04  0.12536435681E+04  0.12700000000E+01 0. -1.
         25    2    1    2    0    0  0.00000000000E+00  0.00000000000E+00 -0.12506570807E+04  0.12568882815E+04  0.12500007384E+03 0.  0.
    9000005    1    3    3    0    0 -0.56447870630E+02 -0.96766104119E+00 -0.89475197434E+03  0.89653187007E+03  0.10000000000E+01 0.  0.
    9000005    1    3    3    0    0  0.56447870630E+02  0.96766104119E+00 -0.35590510640E+03  0.36035641139E+03  0.10000000000E+01 0.  0.
<mgrwt>
<rscale>  0 0.12500007E+03</rscale>
<asrwt>0</asrwt>
<pdfrwt beam="2">  1        4 0.19288770E+00 0.12500007E+03</pdfrwt>
<pdfrwt beam="1">  1       -4 0.47932413E-03 0.12500007E+03</pdfrwt>
<totfact> 0.23269465E+03</totfact>
</mgrwt>
</event>
<event>
 5    1  0.3277540E-002  0.1250044E+03  0.7818608E-02  0.1235062E+00
         -4   -1    0    0    0  501 -0.00000000000E+00  0.00000000000E+00  0.30964335726E+03  0.30964596170E+03  0.12700000000E+01 0. -1.
          4   -1    0    0  501    0  0.00000000000E+00 -0.00000000000E+00 -0.12581572741E+02  0.12645508002E+02  0.12700000000E+01 0. -1.
         25    2    1    2    0    0  0.00000000000E+00  0.00000000000E+00  0.29706178452E+03  0.32229146970E+03  0.12500435040E+03 0.  0.
    9000005    1    3    3    0    0 -0.80447992397E+01 -0.52405493201E+02  0.63235593078E+02  0.82527539309E+02  0.10000000000E+01 0.  0.
    9000005    1    3    3    0    0  0.80447992397E+01  0.52405493201E+02  0.23382619144E+03  0.23976393039E+03  0.10000000000E+01 0.  0.
<mgrwt>
<rscale>  0 0.12500435E+03</rscale>
<asrwt>0</asrwt>
<pdfrwt beam="2">  1        4 0.19407451E-02 0.12500435E+03</pdfrwt>
<pdfrwt beam="1">  1       -4 0.47642557E-01 0.12500435E+03</pdfrwt>
<totfact> 0.72877384E+03</totfact>
</mgrwt>
</event>
<event>
 5    1  0.3277540E-002  0.1250015E+03  0.7818608E-02  0.1235067E+00
         -4   -1    0    0    0  501 -0.00000000000E+00  0.00000000000E+00  0.27146579252E+02  0.27176270257E+02  0.12700000000E+01 0.  1.
          4   -1    0    0  501    0  0.00000000000E+00 -0.00000000000E+00 -0.14378699877E+03  0.14379260730E+03  0.12700000000E+01 0.  1.
         25    2    1    2    0    0  0.00000000000E+00  0.00000000000E+00 -0.11664041952E+03  0.17096887756E+03  0.12500147851E+03 0.  0.
    9000005    1    3    3    0    0 -0.49497569866E+02 -0.34554095432E+02 -0.36209073359E+02  0.70399516527E+02  0.10000000000E+01 0.  0.
    9000005    1    3    3    0    0  0.49497569866E+02  0.34554095432E+02 -0.80431346156E+02  0.10056936103E+03  0.10000000000E+01 0.  0.
<mgrwt>
<rscale>  0 0.12500148E+03</rscale>
<asrwt>0</asrwt>
<pdfrwt beam="2">  1        4 0.22123792E-01 0.12500148E+03</pdfrwt>
<pdfrwt beam="1">  1       -4 0.41791122E-02 0.12500148E+03</pdfrwt>
<totfact> 0.95265198E+03</totfact>
</mgrwt>
</event>
<event>
 5    1  0.3277540E-002  0.1249997E+03  0.7818608E-02  0.1235070E+00
          4   -1    0    0  501    0  0.00000000000E+00  0.00000000000E+00  0.36106906770E+03  0.36107130120E+03  0.12700000000E+01 0.  1.
         -4   -1    0    0    0  501 -0.00000000000E+00 -0.00000000000E+00 -0.10778965332E+02  0.10853524479E+02  0.12700000000E+01 0.  1.
         25    2    1    2    0    0  0.00000000000E+00  0.00000000000E+00  0.35029010237E+03  0.37192482568E+03  0.12499968056E+03 0.  0.
    9000005    1    3    3    0    0  0.15458671332E+02  0.30020417125E-01 -0.50147165149E+01  0.16282469171E+02  0.10000000000E+01 0.  0.
    9000005    1    3    3    0    0 -0.15458671332E+02 -0.30020417125E-01  0.35530481889E+03  0.35564235651E+03  0.10000000000E+01 0.  0.
<mgrwt>
<rscale>  0 0.12499968E+03</rscale>
<asrwt>0</asrwt>
<pdfrwt beam="1">  1        4 0.55554987E-01 0.12499968E+03</pdfrwt>
<pdfrwt beam="2">  1       -4 0.16642097E-02 0.12499968E+03</pdfrwt>
<totfact> 0.67378523E+03</totfact>
</mgrwt>
</event>
<event>
 5    1  0.3277540E-002  0.1249626E+03  0.7818608E-02  0.1235128E+00
         -4   -1    0    0    0  501 -0.00000000000E+00  0.00000000000E+00  0.13132877650E+02  0.13194141707E+02  0.12700000000E+01 0. -1.
          4   -1    0    0  501    0  0.00000000000E+00 -0.00000000000E+00 -0.29650814560E+03  0.29651086541E+03  0.12700000000E+01 0. -1.
         25    2    1    2    0    0  0.00000000000E+00  0.00000000000E+00 -0.28337526795E+03  0.30970500712E+03  0.12496259020E+03 0.  0.
    9000005    1    3    3    0    0 -0.18251691467E+02 -0.13285013030E+02  0.26830812399E+01  0.22755543007E+02  0.10000000000E+01 0.  0.
    9000005    1    3    3    0    0  0.18251691467E+02  0.13285013030E+02 -0.28605834919E+03  0.28694946411E+03  0.10000000000E+01 0.  0.
<mgrwt>
<rscale>  0 0.12496259E+03</rscale>
<asrwt>0</asrwt>
<pdfrwt beam="2">  1        4 0.45621555E-01 0.12496259E+03</pdfrwt>
<pdfrwt beam="1">  1       -4 0.20253648E-02 0.12496259E+03</pdfrwt>
<totfact> 0.74459149E+03</totfact>
</mgrwt>
</event>
<event>
 5    1  0.3277540E-002  0.1250017E+03  0.7818608E-02  0.1235067E+00
         -4   -1    0    0    0  501 -0.00000000000E+00  0.00000000000E+00  0.91371289206E+01  0.92249674748E+01  0.12700000000E+01 0.  1.
          4   -1    0    0  501    0  0.00000000000E+00 -0.00000000000E+00 -0.42539147842E+03  0.42539337420E+03  0.12700000000E+01 0.  1.
         25    2    1    2    0    0  0.00000000000E+00  0.00000000000E+00 -0.41625434950E+03  0.43461834167E+03  0.12500167776E+03 0.  0.
    9000005    1    3    3    0    0  0.23154539608E+02  0.53576210033E+02 -0.28578059698E+03  0.29168149169E+03  0.10000000000E+01 0.  0.
    9000005    1    3    3    0    0 -0.23154539608E+02 -0.53576210033E+02 -0.13047375252E+03  0.14293684998E+03  0.10000000000E+01 0.  0.
<mgrwt>
<rscale>  0 0.12500168E+03</rscale>
<asrwt>0</asrwt>
<pdfrwt beam="2">  1        4 0.65451730E-01 0.12500168E+03</pdfrwt>
<pdfrwt beam="1">  1       -4 0.14126151E-02 0.12500168E+03</pdfrwt>
<totfact> 0.61317326E+03</totfact>
</mgrwt>
</event>
<event>
 5    1  0.3277540E-002  0.1250012E+03  0.7818608E-02  0.1235067E+00
         -4   -1    0    0    0  501 -0.00000000000E+00  0.00000000000E+00  0.41581681590E+03  0.41581875533E+03  0.12700000000E+01 0. -1.
          4   -1    0    0  501    0  0.00000000000E+00 -0.00000000000E+00 -0.93494482257E+01  0.94353103884E+01  0.12700000000E+01 0. -1.
         25    2    1    2    0    0  0.00000000000E+00  0.00000000000E+00  0.40646736767E+03  0.42525406572E+03  0.12500119770E+03 0.  0.
    9000005    1    3    3    0    0 -0.50917046584E+02 -0.21179637391E+02  0.30324335054E+03  0.30821851392E+03  0.10000000000E+01 0.  0.
    9000005    1    3    3    0    0  0.50917046584E+02  0.21179637391E+02  0.10322401713E+03  0.11703555180E+03  0.10000000000E+01 0.  0.
<mgrwt>
<rscale>  0 0.12500120E+03</rscale>
<asrwt>0</asrwt>
<pdfrwt beam="2">  1        4 0.14451309E-02 0.12500120E+03</pdfrwt>
<pdfrwt beam="1">  1       -4 0.63978561E-01 0.12500120E+03</pdfrwt>
<totfact> 0.62166912E+03</totfact>
</mgrwt>
</event>
<event>
 5    1  0.3277540E-002  0.1249951E+03  0.7818608E-02  0.1235077E+00
         -4   -1    0    0    0  501 -0.00000000000E+00  0.00000000000E+00  0.86922023443E+01  0.87844909696E+01  0.12700000000E+01 0.  1.
          4   -1    0    0  501    0  0.00000000000E+00 -0.00000000000E+00 -0.44689553373E+03  0.44689733829E+03  0.12700000000E+01 0.  1.
         25    2    1    2    0    0  0.00000000000E+00  0.00000000000E+00 -0.43820333139E+03  0.45568182926E+03  0.12499507941E+03 0.  0.
    9000005    1    3    3    0    0  0.29630144783E+02 -0.23075190382E+02 -0.40118214347E+03  0.40293736751E+03  0.10000000000E+01 0.  0.
    9000005    1    3    3    0    0 -0.29630144783E+02  0.23075190382E+02 -0.37021187916E+02  0.52744461754E+02  0.10000000000E+01 0.  0.
<mgrwt>
<rscale>  0 0.12499508E+03</rscale>
<asrwt>0</asrwt>
<pdfrwt beam="2">  1        4 0.68760379E-01 0.12499508E+03</pdfrwt>
<pdfrwt beam="1">  1       -4 0.13445002E-02 0.12499508E+03</pdfrwt>
<totfact> 0.59481173E+03</totfact>
</mgrwt>
</event>
<event>
 5    1  0.3277540E-002  0.1250048E+03  0.7818608E-02  0.1235062E+00
         -4   -1    0    0    0  501 -0.00000000000E+00  0.00000000000E+00  0.17799112015E+02  0.17844362934E+02  0.12700000000E+01 0.  1.
          4   -1    0    0  501    0  0.00000000000E+00 -0.00000000000E+00 -0.21915441240E+03  0.21915809220E+03  0.12700000000E+01 0.  1.
         25    2    1    2    0    0  0.00000000000E+00  0.00000000000E+00 -0.20135530039E+03  0.23700245513E+03  0.12500482688E+03 0.  0.
    9000005    1    3    3    0    0  0.12510695915E+02  0.49829003035E+02 -0.33215394169E+02  0.61185860013E+02  0.10000000000E+01 0.  0.
    9000005    1    3    3    0    0 -0.12510695915E+02 -0.49829003035E+02 -0.16813990622E+03  0.17581659512E+03  0.10000000000E+01 0.  0.
<mgrwt>
<rscale>  0 0.12500483E+03</rscale>
<asrwt>0</asrwt>
<pdfrwt beam="2">  1        4 0.33719825E-01 0.12500483E+03</pdfrwt>
<pdfrwt beam="1">  1       -4 0.27420890E-02 0.12500483E+03</pdfrwt>
<totfact> 0.84236767E+03</totfact>
</mgrwt>
</event>
<event>
 5    1  0.3277540E-002  0.1249966E+03  0.7818608E-02  0.1235075E+00
         -4   -1    0    0    0  501 -0.00000000000E+00  0.00000000000E+00  0.16404825712E+03  0.16405317298E+03  0.12700000000E+01 0.  1.
          4   -1    0    0  501    0  0.00000000000E+00 -0.00000000000E+00 -0.23788086797E+02  0.23821964097E+02  0.12700000000E+01 0.  1.
         25    2    1    2    0    0  0.00000000000E+00  0.00000000000E+00  0.14026017032E+03  0.18787513708E+03  0.12499660696E+03 0.  0.
    9000005    1    3    3    0    0  0.46048297104E+01 -0.30900149827E+02 -0.11215095204E+02  0.33208463927E+02  0.10000000000E+01 0.  0.
    9000005    1    3    3    0    0 -0.46048297104E+01  0.30900149827E+02  0.15147526553E+03  0.15466667315E+03  0.10000000000E+01 0.  0.
<mgrwt>
<rscale>  0 0.12499661E+03</rscale>
<asrwt>0</asrwt>
<pdfrwt beam="2">  1        4 0.36626899E-02 0.12499661E+03</pdfrwt>
<pdfrwt beam="1">  1       -4 0.25241177E-01 0.12499661E+03</pdfrwt>
<totfact> 0.92225365E+03</totfact>
</mgrwt>
</event>
<event>
 5    1  0.3277540E-002  0.1249931E+03  0.7818608E-02  0.1235080E+00
          4   -1    0    0  501    0  0.00000000000E+00  0.00000000000E+00  0.15253313480E+03  0.15253842176E+03  0.12700000000E+01 0. -1.
         -4   -1    0    0    0  501 -0.00000000000E+00 -0.00000000000E+00 -0.25584881857E+02  0.25616383032E+02  0.12700000000E+01 0. -1.
         25    2    1    2    0    0  0.00000000000E+00  0.00000000000E+00  0.12694825295E+03  0.17815480479E+03  0.12499310199E+03 0.  0.
    9000005    1    3    3    0    0 -0.53398371202E+01 -0.15327015577E+02 -0.22535081632E+02  0.27789587459E+02  0.10000000000E+01 0.  0.
    9000005    1    3    3    0    0  0.53398371202E+01  0.15327015577E+02  0.14948333458E+03  0.15036521733E+03  0.10000000000E+01 0.  0.
<mgrwt>
<rscale>  0 0.12499310E+03</rscale>
<asrwt>0</asrwt>
<pdfrwt beam="1">  1        4 0.23469467E-01 0.12499310E+03</pdfrwt>
<pdfrwt beam="2">  1       -4 0.39389654E-02 0.12499310E+03</pdfrwt>
<totfact> 0.93964737E+03</totfact>
</mgrwt>
</event>
<event>
 5    1  0.3277540E-002  0.1249983E+03  0.7818608E-02  0.1235072E+00
          4   -1    0    0  501    0  0.00000000000E+00  0.00000000000E+00  0.72807333722E+01  0.73906683349E+01  0.12700000000E+01 0.  1.
         -4   -1    0    0    0  501 -0.00000000000E+00 -0.00000000000E+00 -0.53237344991E+03  0.53237496473E+03  0.12700000000E+01 0.  1.
         25    2    1    2    0    0  0.00000000000E+00  0.00000000000E+00 -0.52509271654E+03  0.53976563306E+03  0.12499831069E+03 0.  0.
    9000005    1    3    3    0    0  0.19364895866E+02 -0.44916505597E+02 -0.43049276125E+03  0.43326378703E+03  0.10000000000E+01 0.  0.
    9000005    1    3    3    0    0 -0.19364895866E+02  0.44916505597E+02 -0.94599955285E+02  0.10650184603E+03  0.10000000000E+01 0.  0.
<mgrwt>
<rscale>  0 0.12499831E+03</rscale>
<asrwt>0</asrwt>
<pdfrwt beam="1">  1        4 0.11286863E-02 0.12499831E+03</pdfrwt>
<pdfrwt beam="2">  1       -4 0.81912151E-01 0.12499831E+03</pdfrwt>
<totfact> 0.52907839E+03</totfact>
</mgrwt>
</event>
<event>
 5    1  0.3277540E-002  0.1250031E+03  0.7818608E-02  0.1235064E+00
         -4   -1    0    0    0  501 -0.00000000000E+00  0.00000000000E+00  0.11449550639E+02  0.11519770390E+02  0.12700000000E+01 0. -1.
          4   -1    0    0  501    0  0.00000000000E+00 -0.00000000000E+00 -0.34007286798E+03  0.34007523938E+03  0.12700000000E+01 0. -1.
         25    2    1    2    0    0  0.00000000000E+00  0.00000000000E+00 -0.32862331734E+03  0.35159500977E+03  0.12500306473E+03 0.  0.
    9000005    1    3    3    0    0  0.31496125816E+02  0.25470350082E+02 -0.29816434200E+03  0.30090483464E+03  0.10000000000E+01 0.  0.
    9000005    1    3    3    0    0 -0.31496125816E+02 -0.25470350082E+02 -0.30458975346E+02  0.50690175121E+02  0.10000000000E+01 0.  0.
<mgrwt>
<rscale>  0 0.12500306E+03</rscale>
<asrwt>0</asrwt>
<pdfrwt beam="2">  1        4 0.52324479E-01 0.12500306E+03</pdfrwt>
<pdfrwt beam="1">  1       -4 0.17670535E-02 0.12500306E+03</pdfrwt>
<totfact> 0.69544728E+03</totfact>
</mgrwt>
</event>
<event>
 5    1  0.3277540E-002  0.1250080E+03  0.7818608E-02  0.1235057E+00
          4   -1    0    0  501    0  0.00000000000E+00  0.00000000000E+00  0.37412073180E+02  0.37433622849E+02  0.12700000000E+01 0.  1.
         -4   -1    0    0    0  501 -0.00000000000E+00 -0.00000000000E+00 -0.10436933362E+03  0.10437706022E+03  0.12700000000E+01 0.  1.
         25    2    1    2    0    0  0.00000000000E+00  0.00000000000E+00 -0.66957260443E+02  0.14181068307E+03  0.12500798018E+03 0.  0.
    9000005    1    3    3    0    0 -0.24665128732E+01  0.58671878922E+02 -0.57736925581E+02  0.82359126012E+02  0.10000000000E+01 0.  0.
    9000005    1    3    3    0    0  0.24665128732E+01 -0.58671878922E+02 -0.92203348627E+01  0.59451557061E+02  0.10000000000E+01 0.  0.
<mgrwt>
<rscale>  0 0.12500798E+03</rscale>
<asrwt>0</asrwt>
<pdfrwt beam="1">  1        4 0.57579556E-02 0.12500798E+03</pdfrwt>
<pdfrwt beam="2">  1       -4 0.16059072E-01 0.12500798E+03</pdfrwt>
<totfact> 0.10094381E+04</totfact>
</mgrwt>
</event>
<event>
 5    1  0.3277540E-002  0.1250059E+03  0.7818608E-02  0.1235060E+00
          4   -1    0    0  501    0  0.00000000000E+00  0.00000000000E+00  0.71797078319E+03  0.71797190643E+03  0.12700000000E+01 0. -1.
         -4   -1    0    0    0  501 -0.00000000000E+00 -0.00000000000E+00 -0.53659494524E+01  0.55141920102E+01  0.12700000000E+01 0. -1.
         25    2    1    2    0    0  0.00000000000E+00  0.00000000000E+00  0.71260483374E+03  0.72348609844E+03  0.12500594211E+03 0.  0.
    9000005    1    3    3    0    0 -0.14182694217E+02  0.22413746704E+02  0.28798315229E+02  0.39164624556E+02  0.10000000000E+01 0.  0.
    9000005    1    3    3    0    0  0.14182694217E+02 -0.22413746704E+02  0.68380651851E+03  0.68432147388E+03  0.10000000000E+01 0.  0.
<mgrwt>
<rscale>  0 0.12500594E+03</rscale>
<asrwt>0</asrwt>
<pdfrwt beam="1">  1        4 0.11046856E+00 0.12500594E+03</pdfrwt>
<pdfrwt beam="2">  1       -4 0.83702016E-03 0.12500594E+03</pdfrwt>
<totfact> 0.41870056E+03</totfact>
</mgrwt>
</event>
<event>
 5    1  0.3277540E-002  0.1250005E+03  0.7818608E-02  0.1235068E+00
          4   -1    0    0  501    0  0.00000000000E+00  0.00000000000E+00  0.61998374793E+02  0.62011381027E+02  0.12700000000E+01 0.  1.
         -4   -1    0    0    0  501 -0.00000000000E+00 -0.00000000000E+00 -0.62980180586E+02  0.62992984106E+02  0.12700000000E+01 0.  1.
         25    2    1    2    0    0  0.00000000000E+00  0.00000000000E+00 -0.98180579346E+00  0.12500436513E+03  0.12500050944E+03 0.  0.
    9000005    1    3    3    0    0  0.20742598830E+02  0.55493789632E+02 -0.20377836874E+02  0.62658377968E+02  0.10000000000E+01 0.  0.
    9000005    1    3    3    0    0 -0.20742598830E+02 -0.55493789632E+02  0.19396031080E+02  0.62345987165E+02  0.10000000000E+01 0.  0.
<mgrwt>
<rscale>  0 0.12500051E+03</rscale>
<asrwt>0</asrwt>
<pdfrwt beam="1">  1        4 0.95401969E-02 0.12500051E+03</pdfrwt>
<pdfrwt beam="2">  1       -4 0.96912439E-02 0.12500051E+03</pdfrwt>
<totfact> 0.10452647E+04</totfact>
</mgrwt>
</event>
<event>
 5    1  0.3277540E-002  0.1249998E+03  0.7818608E-02  0.1235070E+00
         -4   -1    0    0    0  501 -0.00000000000E+00  0.00000000000E+00  0.30677988992E+02  0.30704265316E+02  0.12700000000E+01 0.  1.
          4   -1    0    0  501    0  0.00000000000E+00 -0.00000000000E+00 -0.12724642058E+03  0.12725275813E+03  0.12700000000E+01 0.  1.
         25    2    1    2    0    0  0.00000000000E+00  0.00000000000E+00 -0.96568431592E+02  0.15795702345E+03  0.12499983710E+03 0.  0.
    9000005    1    3    3    0    0 -0.59226756431E+02  0.19112918047E+02 -0.55446771237E+02  0.83357403715E+02  0.10000000000E+01 0.  0.
    9000005    1    3    3    0    0  0.59226756431E+02 -0.19112918047E+02 -0.41121660355E+02  0.74599619731E+02  0.10000000000E+01 0.  0.
<mgrwt>
<rscale>  0 0.12499984E+03</rscale>
<asrwt>0</asrwt>
<pdfrwt beam="2">  1        4 0.19578881E-01 0.12499984E+03</pdfrwt>
<pdfrwt beam="1">  1       -4 0.47221994E-02 0.12499984E+03</pdfrwt>
<totfact> 0.97738465E+03</totfact>
</mgrwt>
</event>
<event>
 5    1  0.3277540E-002  0.1250001E+03  0.7818608E-02  0.1235069E+00
          4   -1    0    0  501    0  0.00000000000E+00  0.00000000000E+00  0.59930608247E+02  0.59944063132E+02  0.12700000000E+01 0. -1.
         -4   -1    0    0    0  501 -0.00000000000E+00 -0.00000000000E+00 -0.65152730885E+02  0.65165107548E+02  0.12700000000E+01 0. -1.
         25    2    1    2    0    0  0.00000000000E+00  0.00000000000E+00 -0.52221226386E+01  0.12510917068E+03  0.12500013609E+03 0.  0.
    9000005    1    3    3    0    0 -0.12105516809E+02 -0.23790893357E+02  0.53942281953E+02  0.60194019024E+02  0.10000000000E+01 0.  0.
    9000005    1    3    3    0    0  0.12105516809E+02  0.23790893357E+02 -0.59164404592E+02  0.64915151657E+02  0.10000000000E+01 0.  0.
<mgrwt>
<rscale>  0 0.12500014E+03</rscale>
<asrwt>0</asrwt>
<pdfrwt beam="1">  1        4 0.92220806E-02 0.12500014E+03</pdfrwt>
<pdfrwt beam="2">  1       -4 0.10025484E-01 0.12500014E+03</pdfrwt>
<totfact> 0.10450460E+04</totfact>
</mgrwt>
</event>
<event>
 5    1  0.3277540E-002  0.1250028E+03  0.7818608E-02  0.1235065E+00
          4   -1    0    0  501    0  0.00000000000E+00  0.00000000000E+00  0.87119400470E+01  0.88040217732E+01  0.12700000000E+01 0.  1.
         -4   -1    0    0    0  501 -0.00000000000E+00 -0.00000000000E+00 -0.44594868769E+03  0.44595049608E+03  0.12700000000E+01 0.  1.
         25    2    1    2    0    0  0.00000000000E+00  0.00000000000E+00 -0.43723674764E+03  0.45475451785E+03  0.12500279204E+03 0.  0.
    9000005    1    3    3    0    0  0.36049297687E+02 -0.18461684960E+02 -0.45479282213E+02  0.60907723533E+02  0.10000000000E+01 0.  0.
    9000005    1    3    3    0    0 -0.36049297687E+02  0.18461684960E+02 -0.39175746543E+03  0.39384679432E+03  0.10000000000E+01 0.  0.
<mgrwt>
<rscale>  0 0.12500279E+03</rscale>
<asrwt>0</asrwt>
<pdfrwt beam="1">  1        4 0.13475211E-02 0.12500279E+03</pdfrwt>
<pdfrwt beam="2">  1       -4 0.68614695E-01 0.12500279E+03</pdfrwt>
<totfact> 0.59550459E+03</totfact>
</mgrwt>
</event>
<event>
 5    1  0.3277540E-002  0.1249955E+03  0.7818608E-02  0.1235076E+00
          4   -1    0    0  501    0  0.00000000000E+00  0.00000000000E+00  0.21203040074E+03  0.21203420417E+03  0.12700000000E+01 0. -1.
         -4   -1    0    0    0  501 -0.00000000000E+00 -0.00000000000E+00 -0.18395885003E+02  0.18439671501E+02  0.12700000000E+01 0. -1.
         25    2    1    2    0    0  0.00000000000E+00  0.00000000000E+00  0.19363451574E+03  0.23047387567E+03  0.12499552665E+03 0.  0.
    9000005    1    3    3    0    0  0.13460219915E+02  0.60653191969E+02  0.84450597642E+02  0.10484698688E+03  0.10000000000E+01 0.  0.
    9000005    1    3    3    0    0 -0.13460219915E+02 -0.60653191969E+02  0.10918391809E+03  0.12562688879E+03  0.10000000000E+01 0.  0.
<mgrwt>
<rscale>  0 0.12499553E+03</rscale>
<asrwt>0</asrwt>
<pdfrwt beam="1">  1        4 0.32623721E-01 0.12499553E+03</pdfrwt>
<pdfrwt beam="2">  1       -4 0.28337970E-02 0.12499553E+03</pdfrwt>
<totfact> 0.85245394E+03</totfact>
</mgrwt>
</event>
<event>
 5    1  0.3277540E-002  0.1250016E+03  0.7818608E-02  0.1235067E+00
         -4   -1    0    0    0  501 -0.00000000000E+00  0.00000000000E+00  0.87470001304E+02  0.87479220551E+02  0.12700000000E+01 0. -1.
          4   -1    0    0  501    0  0.00000000000E+00 -0.00000000000E+00 -0.44638698784E+02  0.44656761292E+02  0.12700000000E+01 0. -1.
         25    2    1    2    0    0  0.00000000000E+00  0.00000000000E+00  0.42831302521E+02  0.13213598184E+03  0.12500158888E+03 0.  0.
    9000005    1    3    3    0    0 -0.26437788494E+02 -0.38171860590E+02 -0.22796120812E+02  0.51736937728E+02  0.10000000000E+01 0.  0.
    9000005    1    3    3    0    0  0.26437788494E+02  0.38171860590E+02  0.65627423333E+02  0.80399044115E+02  0.10000000000E+01 0.  0.
<mgrwt>
<rscale>  0 0.12500159E+03</rscale>
<asrwt>0</asrwt>
<pdfrwt beam="2">  1        4 0.68695907E-02 0.12500159E+03</pdfrwt>
<pdfrwt beam="1">  1       -4 0.13459022E-01 0.12500159E+03</pdfrwt>
<totfact> 0.10298428E+04</totfact>
</mgrwt>
</event>
<event>
 4    1  0.3277540E-002  0.1250878E+03  0.7818608E-02  0.1234932E+00
          4   -1    0    0  501    0  0.00000000000E+00  0.00000000000E+00  0.88664423332E+02  0.88673518396E+02  0.12700000000E+01 0. -1.
         -4   -1    0    0    0  501 -0.00000000000E+00 -0.00000000000E+00 -0.44097997326E+02  0.44116281214E+02  0.12700000000E+01 0. -1.
    9000005    1    1    2    0    0  0.10643134307E+02  0.17943213420E+02  0.84866545136E+02  0.87398888432E+02  0.10000000000E+01 0.  0.
    9000005    1    1    2    0    0 -0.10643134307E+02 -0.17943213420E+02 -0.40300119130E+02  0.45390911178E+02  0.10000000000E+01 0.  0.
<mgrwt>
<rscale>  0 0.12508783E+03</rscale>
<asrwt>0</asrwt>
<pdfrwt beam="1">  1        4 0.13642787E-01 0.12508783E+03</pdfrwt>
<pdfrwt beam="2">  1       -4 0.67864134E-02 0.12508783E+03</pdfrwt>
<totfact> 0.10264520E+04</totfact>
</mgrwt>
</event>
<event>
 5    1  0.3277540E-002  0.1250058E+03  0.7818608E-02  0.1235060E+00
          4   -1    0    0  501    0  0.00000000000E+00  0.00000000000E+00  0.18496544846E+03  0.18496980841E+03  0.12700000000E+01 0.  1.
         -4   -1    0    0    0  501 -0.00000000000E+00 -0.00000000000E+00 -0.21097079005E+02  0.21135270108E+02  0.12700000000E+01 0.  1.
         25    2    1    2    0    0  0.00000000000E+00  0.00000000000E+00  0.16386836945E+03  0.20610507852E+03  0.12500584340E+03 0.  0.
    9000005    1    3    3    0    0 -0.21812603195E+02 -0.43282400031E+02  0.14698118575E+03  0.15476958608E+03  0.10000000000E+01 0.  0.
    9000005    1    3    3    0    0  0.21812603195E+02  0.43282400031E+02  0.16887183702E+02  0.51335492439E+02  0.10000000000E+01 0.  0.
<mgrwt>
<rscale>  0 0.12500584E+03</rscale>
<asrwt>0</asrwt>
<pdfrwt beam="1">  1        4 0.28459497E-01 0.12500584E+03</pdfrwt>
<pdfrwt beam="2">  1       -4 0.32489775E-02 0.12500584E+03</pdfrwt>
<totfact> 0.89104303E+03</totfact>
</mgrwt>
</event>
<event>
 5    1  0.3277540E-002  0.1250022E+03  0.7818608E-02  0.1235066E+00
          4   -1    0    0  501    0  0.00000000000E+00  0.00000000000E+00  0.17921262788E+02  0.17966206053E+02  0.12700000000E+01 0.  1.
         -4   -1    0    0    0  501 -0.00000000000E+00 -0.00000000000E+00 -0.21765535980E+03  0.21765906494E+03  0.12700000000E+01 0.  1.
         25    2    1    2    0    0  0.00000000000E+00  0.00000000000E+00 -0.19973409701E+03  0.23562527099E+03  0.12500223526E+03 0.  0.
    9000005    1    3    3    0    0 -0.29810462076E+02 -0.47447931002E+02 -0.15201700644E+03  0.16201894967E+03  0.10000000000E+01 0.  0.
    9000005    1    3    3    0    0  0.29810462076E+02  0.47447931002E+02 -0.47717090571E+02  0.73606321319E+02  0.10000000000E+01 0.  0.
<mgrwt>
<rscale>  0 0.12500224E+03</rscale>
<asrwt>0</asrwt>
<pdfrwt beam="1">  1        4 0.27608597E-02 0.12500224E+03</pdfrwt>
<pdfrwt beam="2">  1       -4 0.33489180E-01 0.12500224E+03</pdfrwt>
<totfact> 0.84449041E+03</totfact>
</mgrwt>
</event>
<event>
 5    1  0.3277540E-002  0.1250014E+03  0.7818608E-02  0.1235067E+00
         -4   -1    0    0    0  501 -0.00000000000E+00  0.00000000000E+00  0.63565733358E+02  0.63578418959E+02  0.12700000000E+01 0. -1.
          4   -1    0    0  501    0  0.00000000000E+00 -0.00000000000E+00 -0.61428097103E+02  0.61441224057E+02  0.12700000000E+01 0. -1.
         25    2    1    2    0    0  0.00000000000E+00  0.00000000000E+00  0.21376362555E+01  0.12501964302E+03  0.12500136660E+03 0.  0.
    9000005    1    3    3    0    0  0.41156042320E+01  0.34818061118E+02 -0.50669779028E+02  0.61625174117E+02  0.10000000000E+01 0.  0.
    9000005    1    3    3    0    0 -0.41156042320E+01 -0.34818061118E+02  0.52807415284E+02  0.63394468900E+02  0.10000000000E+01 0.  0.
<mgrwt>
<rscale>  0 0.12500137E+03</rscale>
<asrwt>0</asrwt>
<pdfrwt beam="2">  1        4 0.94524621E-02 0.12500137E+03</pdfrwt>
<pdfrwt beam="1">  1       -4 0.97813292E-02 0.12500137E+03</pdfrwt>
<totfact> 0.10452113E+04</totfact>
</mgrwt>
</event>
<event>
 5    1  0.3277540E-002  0.1249978E+03  0.7818608E-02  0.1235073E+00
         -4   -1    0    0    0  501 -0.00000000000E+00  0.00000000000E+00  0.67996863823E+02  0.68008722894E+02  0.12700000000E+01 0. -1.
          4   -1    0    0  501    0  0.00000000000E+00 -0.00000000000E+00 -0.57421597457E+02  0.57435640107E+02  0.12700000000E+01 0. -1.
         25    2    1    2    0    0  0.00000000000E+00  0.00000000000E+00  0.10575266366E+02  0.12544436300E+03  0.12499780778E+03 0.  0.
    9000005    1    3    3    0    0 -0.30501216021E+02 -0.18217482588E+02  0.56880554193E+02  0.67071590826E+02  0.10000000000E+01 0.  0.
    9000005    1    3    3    0    0  0.30501216021E+02  0.18217482588E+02 -0.46305287827E+02  0.58372772175E+02  0.10000000000E+01 0.  0.
<mgrwt>
<rscale>  0 0.12499781E+03</rscale>
<asrwt>0</asrwt>
<pdfrwt beam="2">  1        4 0.88360844E-02 0.12499781E+03</pdfrwt>
<pdfrwt beam="1">  1       -4 0.10463048E-01 0.12499781E+03</pdfrwt>
<totfact> 0.10443701E+04</totfact>
</mgrwt>
</event>
<event>
 5    1  0.3277540E-002  0.1250009E+03  0.7818608E-02  0.1235068E+00
         -4   -1    0    0    0  501 -0.00000000000E+00  0.00000000000E+00  0.38938186210E+03  0.38938393319E+03  0.12700000000E+01 0.  1.
          4   -1    0    0  501    0  0.00000000000E+00 -0.00000000000E+00 -0.99897654277E+01  0.10070169477E+02  0.12700000000E+01 0.  1.
         25    2    1    2    0    0  0.00000000000E+00  0.00000000000E+00  0.37939209667E+03  0.39945410267E+03  0.12500086850E+03 0.  0.
    9000005    1    3    3    0    0  0.86115158528E+01  0.46581985085E+02  0.31994471298E+03  0.32343416471E+03  0.10000000000E+01 0.  0.
    9000005    1    3    3    0    0 -0.86115158528E+01 -0.46581985085E+02  0.59447383688E+02  0.76019937958E+02  0.10000000000E+01 0.  0.
<mgrwt>
<rscale>  0 0.12500087E+03</rscale>
<asrwt>0</asrwt>
<pdfrwt beam="2">  1        4 0.15432313E-02 0.12500087E+03</pdfrwt>
<pdfrwt beam="1">  1       -4 0.59911242E-01 0.12500087E+03</pdfrwt>
<totfact> 0.64604679E+03</totfact>
</mgrwt>
</event>
<event>
 5    1  0.3277540E-002  0.1250020E+03  0.7818608E-02  0.1235066E+00
          4   -1    0    0  501    0  0.00000000000E+00  0.00000000000E+00  0.34142799950E+03  0.34143036149E+03  0.12700000000E+01 0. -1.
         -4   -1    0    0    0  501 -0.00000000000E+00 -0.00000000000E+00 -0.11403633354E+02  0.11474134115E+02  0.12700000000E+01 0. -1.
         25    2    1    2    0    0  0.00000000000E+00  0.00000000000E+00  0.33002436615E+03  0.35290449560E+03  0.12500200304E+03 0.  0.
    9000005    1    3    3    0    0  0.22415008552E+02  0.77122893393E+01  0.32825665778E+03  0.32911296753E+03  0.10000000000E+01 0.  0.
    9000005    1    3    3    0    0 -0.22415008552E+02 -0.77122893393E+01  0.17677083654E+01  0.23791528074E+02  0.10000000000E+01 0.  0.
<mgrwt>
<rscale>  0 0.12500200E+03</rscale>
<asrwt>0</asrwt>
<pdfrwt beam="1">  1        4 0.52532982E-01 0.12500200E+03</pdfrwt>
<pdfrwt beam="2">  1       -4 0.17600102E-02 0.12500200E+03</pdfrwt>
<totfact> 0.69403131E+03</totfact>
</mgrwt>
</event>
<event>
 5    1  0.3277540E-002  0.1249997E+03  0.7818608E-02  0.1235070E+00
          4   -1    0    0  501    0  0.00000000000E+00  0.00000000000E+00  0.62453459702E+02  0.62466371182E+02  0.12700000000E+01 0. -1.
         -4   -1    0    0    0  501 -0.00000000000E+00 -0.00000000000E+00 -0.62520461034E+02  0.62533358681E+02  0.12700000000E+01 0. -1.
         25    2    1    2    0    0  0.00000000000E+00  0.00000000000E+00 -0.67001332373E-01  0.12499972986E+03  0.12499971191E+03 0.  0.
    9000005    1    3    3    0    0 -0.11220948141E+02  0.13534060770E+02 -0.60001430006E+02  0.62532008450E+02  0.10000000000E+01 0.  0.
    9000005    1    3    3    0    0  0.11220948141E+02 -0.13534060770E+02  0.59934428673E+02  0.62467721413E+02  0.10000000000E+01 0.  0.
<mgrwt>
<rscale>  0 0.12499971E+03</rscale>
<asrwt>0</asrwt>
<pdfrwt beam="1">  1        4 0.96102099E-02 0.12499971E+03</pdfrwt>
<pdfrwt beam="2">  1       -4 0.96205177E-02 0.12499971E+03</pdfrwt>
<totfact> 0.10452936E+04</totfact>
</mgrwt>
</event>
<event>
 5    1  0.3277540E-002  0.1250028E+03  0.7818608E-02  0.1235065E+00
         -4   -1    0    0    0  501 -0.00000000000E+00  0.00000000000E+00  0.60884197152E+03  0.60884329608E+03  0.12700000000E+01 0. -1.
          4   -1    0    0  501    0  0.00000000000E+00 -0.00000000000E+00 -0.63519624525E+01  0.64776791367E+01  0.12700000000E+01 0. -1.
         25    2    1    2    0    0  0.00000000000E+00  0.00000000000E+00  0.60249000907E+03  0.61532097522E+03  0.12500276604E+03 0.  0.
    9000005    1    3    3    0    0  0.22445033090E+02 -0.53983199027E+02  0.40992522630E+03  0.41407445761E+03  0.10000000000E+01 0.  0.
    9000005    1    3    3    0    0 -0.22445033090E+02  0.53983199027E+02  0.19256478277E+03  0.20124651761E+03  0.10000000000E+01 0.  0.
<mgrwt>
<rscale>  0 0.12500277E+03</rscale>
<asrwt>0</asrwt>
<pdfrwt beam="2">  1        4 0.98699725E-03 0.12500277E+03</pdfrwt>
<pdfrwt beam="1">  1       -4 0.93677782E-01 0.12500277E+03</pdfrwt>
<totfact> 0.47911660E+03</totfact>
</mgrwt>
</event>
<event>
 5    1  0.3277540E-002  0.1250033E+03  0.7818608E-02  0.1235064E+00
          4   -1    0    0  501    0  0.00000000000E+00  0.00000000000E+00  0.54796516865E+02  0.54811232066E+02  0.12700000000E+01 0. -1.
         -4   -1    0    0    0  501 -0.00000000000E+00 -0.00000000000E+00 -0.71260262547E+02  0.71271578615E+02  0.12700000000E+01 0. -1.
         25    2    1    2    0    0  0.00000000000E+00  0.00000000000E+00 -0.16463745681E+02  0.12608281068E+03  0.12500328087E+03 0.  0.
    9000005    1    3    3    0    0  0.28713496943E+01  0.37810743121E+02 -0.58335384362E+02  0.69583863166E+02  0.10000000000E+01 0.  0.
    9000005    1    3    3    0    0 -0.28713496943E+01 -0.37810743121E+02  0.41871638681E+02  0.56498947515E+02  0.10000000000E+01 0.  0.
<mgrwt>
<rscale>  0 0.12500328E+03</rscale>
<asrwt>0</asrwt>
<pdfrwt beam="1">  1        4 0.84322357E-02 0.12500328E+03</pdfrwt>
<pdfrwt beam="2">  1       -4 0.10965120E-01 0.12500328E+03</pdfrwt>
<totfact> 0.10428371E+04</totfact>
</mgrwt>
</event>
<event>
 5    1  0.3277540E-002  0.1249977E+03  0.7818608E-02  0.1235073E+00
         -4   -1    0    0    0  501 -0.00000000000E+00  0.00000000000E+00  0.11862196651E+03  0.11862876480E+03  0.12700000000E+01 0. -1.
          4   -1    0    0  501    0  0.00000000000E+00 -0.00000000000E+00 -0.32909016620E+02  0.32933512945E+02  0.12700000000E+01 0. -1.
         25    2    1    2    0    0  0.00000000000E+00  0.00000000000E+00  0.85712949885E+02  0.15156227774E+03  0.12499765701E+03 0.  0.
    9000005    1    3    3    0    0  0.45436260748E+02 -0.34671292025E+02  0.12216589183E+02  0.58453377428E+02  0.10000000000E+01 0.  0.
    9000005    1    3    3    0    0 -0.45436260748E+02  0.34671292025E+02  0.73496360702E+02  0.93108900315E+02  0.10000000000E+01 0.  0.
<mgrwt>
<rscale>  0 0.12499766E+03</rscale>
<asrwt>0</asrwt>
<pdfrwt beam="2">  1        4 0.50653330E-02 0.12499766E+03</pdfrwt>
<pdfrwt beam="1">  1       -4 0.18251940E-01 0.12499766E+03</pdfrwt>
<totfact> 0.98998408E+03</totfact>
</mgrwt>
</event>
<event>
 5    1  0.3277540E-002  0.1249995E+03  0.7818608E-02  0.1235070E+00
          4   -1    0    0  501    0  0.00000000000E+00  0.00000000000E+00  0.29735750831E+02  0.29762859027E+02  0.12700000000E+01 0. -1.
         -4   -1    0    0    0  501 -0.00000000000E+00 -0.00000000000E+00 -0.13127434474E+03  0.13128048784E+03  0.12700000000E+01 0. -1.
         25    2    1    2    0    0  0.00000000000E+00  0.00000000000E+00 -0.10153859391E+03  0.16104334686E+03  0.12499949406E+03 0.  0.
    9000005    1    3    3    0    0 -0.24300665848E+01 -0.33519006554E+02 -0.11864710126E+03  0.12331895094E+03  0.10000000000E+01 0.  0.
    9000005    1    3    3    0    0  0.24300665848E+01  0.33519006554E+02  0.17108507351E+02  0.37724395923E+02  0.10000000000E+01 0.  0.
<mgrwt>
<rscale>  0 0.12499949E+03</rscale>
<asrwt>0</asrwt>
<pdfrwt beam="1">  1        4 0.45772888E-02 0.12499949E+03</pdfrwt>
<pdfrwt beam="2">  1       -4 0.20198611E-01 0.12499949E+03</pdfrwt>
<totfact> 0.97143117E+03</totfact>
</mgrwt>
</event>
<event>
 5    1  0.3277540E-002  0.1249989E+03  0.7818608E-02  0.1235071E+00
          4   -1    0    0  501    0  0.00000000000E+00  0.00000000000E+00  0.13435228352E+04  0.13435234354E+04  0.12700000000E+01 0. -1.
         -4   -1    0    0    0  501 -0.00000000000E+00 -0.00000000000E+00 -0.27680988853E+01  0.30455330304E+01  0.12700000000E+01 0. -1.
         25    2    1    2    0    0  0.00000000000E+00  0.00000000000E+00  0.13407547363E+04  0.13465689685E+04  0.12499889569E+03 0.  0.
    9000005    1    3    3    0    0 -0.49636877184E+02 -0.26886763734E+02  0.95912918950E+03  0.96078952939E+03  0.10000000000E+01 0.  0.
    9000005    1    3    3    0    0  0.49636877184E+02  0.26886763734E+02  0.38162554679E+03  0.38577943906E+03  0.10000000000E+01 0.  0.
<mgrwt>
<rscale>  0 0.12499890E+03</rscale>
<asrwt>0</asrwt>
<pdfrwt beam="1">  1        4 0.20671763E+00 0.12499890E+03</pdfrwt>
<pdfrwt beam="2">  1       -4 0.44724772E-03 0.12499890E+03</pdfrwt>
<totfact> 0.21155785E+03</totfact>
</mgrwt>
</event>
<event>
 5    1  0.3277540E-002  0.1249989E+03  0.7818608E-02  0.1235071E+00
         -4   -1    0    0    0  501 -0.00000000000E+00  0.00000000000E+00  0.13565795697E+02  0.13625113317E+02  0.12700000000E+01 0.  1.
          4   -1    0    0  501    0  0.00000000000E+00 -0.00000000000E+00 -0.28725465589E+03  0.28725746331E+03  0.12700000000E+01 0.  1.
         25    2    1    2    0    0  0.00000000000E+00  0.00000000000E+00 -0.27368886019E+03  0.30088257663E+03  0.12499893090E+03 0.  0.
    9000005    1    3    3    0    0 -0.13544523676E+02 -0.26218552134E+02 -0.42512501363E+01  0.29831857558E+02  0.10000000000E+01 0.  0.
    9000005    1    3    3    0    0  0.13544523676E+02  0.26218552134E+02 -0.26943761006E+03  0.27105071907E+03  0.10000000000E+01 0.  0.
<mgrwt>
<rscale>  0 0.12499893E+03</rscale>
<asrwt>0</asrwt>
<pdfrwt beam="2">  1        4 0.44197798E-01 0.12499893E+03</pdfrwt>
<pdfrwt beam="1">  1       -4 0.20918246E-02 0.12499893E+03</pdfrwt>
<totfact> 0.75490057E+03</totfact>
</mgrwt>
</event>
<event>
 5    1  0.3277540E-002  0.1250007E+03  0.7818608E-02  0.1235068E+00
          4   -1    0    0  501    0  0.00000000000E+00  0.00000000000E+00  0.54517264897E+01  0.55976978945E+01  0.12700000000E+01 0. -1.
         -4   -1    0    0    0  501 -0.00000000000E+00 -0.00000000000E+00 -0.70691126450E+03  0.70691240531E+03  0.12700000000E+01 0. -1.
         25    2    1    2    0    0  0.00000000000E+00  0.00000000000E+00 -0.70145953801E+03  0.71251010320E+03  0.12500065479E+03 0.  0.
    9000005    1    3    3    0    0 -0.53161564148E+02 -0.47340862431E+01 -0.16543624830E+03  0.17383531208E+03  0.10000000000E+01 0.  0.
    9000005    1    3    3    0    0  0.53161564148E+02  0.47340862431E+01 -0.53602328972E+03  0.53867479113E+03  0.10000000000E+01 0.  0.
<mgrwt>
<rscale>  0 0.12500065E+03</rscale>
<asrwt>0</asrwt>
<pdfrwt beam="1">  1        4 0.85004404E-03 0.12500065E+03</pdfrwt>
<pdfrwt beam="2">  1       -4 0.10876682E+00 0.12500065E+03</pdfrwt>
<totfact> 0.42433898E+03</totfact>
</mgrwt>
</event>
<event>
 5    1  0.3277540E-002  0.1249828E+03  0.7818608E-02  0.1235096E+00
         -4   -1    0    0    0  501 -0.00000000000E+00  0.00000000000E+00  0.70861118953E+02  0.70872498751E+02  0.12700000000E+01 0. -1.
          4   -1    0    0  501    0  0.00000000000E+00 -0.00000000000E+00 -0.55087129097E+02  0.55101766688E+02  0.12700000000E+01 0. -1.
         25    2    1    2    0    0  0.00000000000E+00  0.00000000000E+00  0.15773989855E+02  0.12597426544E+03  0.12498278600E+03 0.  0.
    9000005    1    3    3    0    0 -0.34494306552E+02  0.34209116909E+01 -0.44512086623E+02  0.56425930891E+02  0.10000000000E+01 0.  0.
    9000005    1    3    3    0    0  0.34494306552E+02 -0.34209116909E+01  0.60286076479E+02  0.69548334549E+02  0.10000000000E+01 0.  0.
<mgrwt>
<rscale>  0 0.12498279E+03</rscale>
<asrwt>0</asrwt>
<pdfrwt beam="2">  1        4 0.84769442E-02 0.12498279E+03</pdfrwt>
<pdfrwt beam="1">  1       -4 0.10903712E-01 0.12498279E+03</pdfrwt>
<totfact> 0.10435574E+04</totfact>
</mgrwt>
</event>
<event>
 5    1  0.3277540E-002  0.1249999E+03  0.7818608E-02  0.1235069E+00
         -4   -1    0    0    0  501 -0.00000000000E+00  0.00000000000E+00  0.96742998489E+03  0.96743081849E+03  0.12700000000E+01 0. -1.
          4   -1    0    0  501    0  0.00000000000E+00 -0.00000000000E+00 -0.39370363990E+01  0.41368049999E+01  0.12700000000E+01 0. -1.
         25    2    1    2    0    0  0.00000000000E+00  0.00000000000E+00  0.96349294849E+03  0.97156762349E+03  0.12499994089E+03 0.  0.
    9000005    1    3    3    0    0  0.53735061847E+02  0.13209206598E+02  0.70745912305E+03  0.70962056819E+03  0.10000000000E+01 0.  0.
    9000005    1    3    3    0    0 -0.53735061847E+02 -0.13209206598E+02  0.25603382544E+03  0.26194705530E+03  0.10000000000E+01 0.  0.
<mgrwt>
<rscale>  0 0.12499994E+03</rscale>
<asrwt>0</asrwt>
<pdfrwt beam="2">  1        4 0.62112897E-03 0.12499994E+03</pdfrwt>
<pdfrwt beam="1">  1       -4 0.14885078E+00 0.12499994E+03</pdfrwt>
<totfact> 0.31562447E+03</totfact>
</mgrwt>
</event>
<event>
 5    1  0.3277540E-002  0.1250021E+03  0.7818608E-02  0.1235066E+00
         -4   -1    0    0    0  501 -0.00000000000E+00  0.00000000000E+00  0.11803211552E+03  0.11803894779E+03  0.12700000000E+01 0. -1.
          4   -1    0    0  501    0  0.00000000000E+00 -0.00000000000E+00 -0.33075952289E+02  0.33100325071E+02  0.12700000000E+01 0. -1.
         25    2    1    2    0    0  0.00000000000E+00  0.00000000000E+00  0.84956163231E+02  0.15113927286E+03  0.12500212050E+03 0.  0.
    9000005    1    3    3    0    0 -0.69379306851E+01  0.25253189463E+02 -0.26126921194E+02  0.37006411219E+02  0.10000000000E+01 0.  0.
    9000005    1    3    3    0    0  0.69379306851E+01 -0.25253189463E+02  0.11108308442E+03  0.11413286164E+03  0.10000000000E+01 0.  0.
<mgrwt>
<rscale>  0 0.12500212E+03</rscale>
<asrwt>0</asrwt>
<pdfrwt beam="2">  1        4 0.50910085E-02 0.12500212E+03</pdfrwt>
<pdfrwt beam="1">  1       -4 0.18161187E-01 0.12500212E+03</pdfrwt>
<totfact> 0.99072357E+03</totfact>
</mgrwt>
</event>
<event>
 5    1  0.3277540E-002  0.1250022E+03  0.7818608E-02  0.1235066E+00
          4   -1    0    0  501    0  0.00000000000E+00  0.00000000000E+00  0.11171606507E+02  0.11243562245E+02  0.12700000000E+01 0. -1.
         -4   -1    0    0    0  501 -0.00000000000E+00 -0.00000000000E+00 -0.34847561539E+03  0.34847792961E+03  0.12700000000E+01 0. -1.
         25    2    1    2    0    0  0.00000000000E+00  0.00000000000E+00 -0.33730400889E+03  0.35972149185E+03  0.12500222914E+03 0.  0.
    9000005    1    3    3    0    0 -0.30433717588E+02 -0.54581197238E+02 -0.16788486415E+03  0.17914141305E+03  0.10000000000E+01 0.  0.
    9000005    1    3    3    0    0  0.30433717588E+02  0.54581197238E+02 -0.16941914473E+03  0.18058007880E+03  0.10000000000E+01 0.  0.
<mgrwt>
<rscale>  0 0.12500223E+03</rscale>
<asrwt>0</asrwt>
<pdfrwt beam="1">  1        4 0.17244220E-02 0.12500223E+03</pdfrwt>
<pdfrwt beam="2">  1       -4 0.53617338E-01 0.12500223E+03</pdfrwt>
<totfact> 0.68664767E+03</totfact>
</mgrwt>
</event>
<event>
 5    1  0.3277540E-002  0.1249993E+03  0.7818608E-02  0.1235070E+00
         -4   -1    0    0    0  501 -0.00000000000E+00  0.00000000000E+00  0.99957480662E+03  0.99957561341E+03  0.12700000000E+01 0.  1.
          4   -1    0    0  501    0  0.00000000000E+00 -0.00000000000E+00 -0.38038560989E+01  0.40102644827E+01  0.12700000000E+01 0.  1.
         25    2    1    2    0    0  0.00000000000E+00  0.00000000000E+00  0.99577095052E+03  0.10035858779E+04  0.12499931364E+03 0.  0.
    9000005    1    3    3    0    0  0.46859081077E+02 -0.51170862460E+01  0.16848736577E+03  0.17495985389E+03  0.10000000000E+01 0.  0.
    9000005    1    3    3    0    0 -0.46859081077E+02  0.51170862460E+01  0.82728358475E+03  0.82862602400E+03  0.10000000000E+01 0.  0.
<mgrwt>
<rscale>  0 0.12499931E+03</rscale>
<asrwt>0</asrwt>
<pdfrwt beam="2">  1        4 0.60114762E-03 0.12499931E+03</pdfrwt>
<pdfrwt beam="1">  1       -4 0.15379684E+00 0.12499931E+03</pdfrwt>
<totfact> 0.30486797E+03</totfact>
</mgrwt>
</event>
<event>
 5    1  0.3277540E-002  0.1250049E+03  0.7818608E-02  0.1235062E+00
          4   -1    0    0  501    0  0.00000000000E+00  0.00000000000E+00  0.99200479498E+02  0.99208608662E+02  0.12700000000E+01 0.  1.
         -4   -1    0    0    0  501 -0.00000000000E+00 -0.00000000000E+00 -0.39360410081E+02  0.39380893613E+02  0.12700000000E+01 0.  1.
         25    2    1    2    0    0  0.00000000000E+00  0.00000000000E+00  0.59840069417E+02  0.13858950227E+03  0.12500486484E+03 0.  0.
    9000005    1    3    3    0    0 -0.30198808513E+02  0.18405372825E+02  0.87044432837E+02  0.93959880122E+02  0.10000000000E+01 0.  0.
    9000005    1    3    3    0    0  0.30198808513E+02 -0.18405372825E+02 -0.27204363420E+02  0.44629622153E+02  0.10000000000E+01 0.  0.
<mgrwt>
<rscale>  0 0.12500486E+03</rscale>
<asrwt>0</asrwt>
<pdfrwt beam="1">  1        4 0.15263813E-01 0.12500486E+03</pdfrwt>
<pdfrwt beam="2">  1       -4 0.60576487E-02 0.12500486E+03</pdfrwt>
<totfact> 0.10161789E+04</totfact>
</mgrwt>
</event>
<event>
 5    1  0.3277540E-002  0.1249987E+03  0.7818608E-02  0.1235071E+00
         -4   -1    0    0    0  501 -0.00000000000E+00  0.00000000000E+00  0.11799090541E+03  0.11799774006E+03  0.12700000000E+01 0. -1.
          4   -1    0    0  501    0  0.00000000000E+00 -0.00000000000E+00 -0.33085720538E+02  0.33110086130E+02  0.12700000000E+01 0. -1.
         25    2    1    2    0    0  0.00000000000E+00  0.00000000000E+00  0.84905184876E+02  0.15110782619E+03  0.12499873887E+03 0.  0.
    9000005    1    3    3    0    0 -0.50542899212E+02 -0.28305389400E+02  0.70787530958E+02  0.91474883268E+02  0.10000000000E+01 0.  0.
    9000005    1    3    3    0    0  0.50542899212E+02  0.28305389400E+02  0.14117653918E+02  0.59632942926E+02  0.10000000000E+01 0.  0.
<mgrwt>
<rscale>  0 0.12499874E+03</rscale>
<asrwt>0</asrwt>
<pdfrwt beam="2">  1        4 0.50925110E-02 0.12499874E+03</pdfrwt>
<pdfrwt beam="1">  1       -4 0.18154846E-01 0.12499874E+03</pdfrwt>
<totfact> 0.99086139E+03</totfact>
</mgrwt>
</event>
<event>
 5    1  0.3277540E-002  0.1249993E+03  0.7818608E-02  0.1235070E+00
          4   -1    0    0  501    0  0.00000000000E+00  0.00000000000E+00  0.42047607334E+02  0.42066782412E+02  0.12700000000E+01 0.  1.
         -4   -1    0    0    0  501 -0.00000000000E+00 -0.00000000000E+00 -0.92854938307E+02  0.92863622953E+02  0.12700000000E+01 0.  1.
         25    2    1    2    0    0  0.00000000000E+00  0.00000000000E+00 -0.50807330973E+02  0.13493040537E+03  0.12499931764E+03 0.  0.
    9000005    1    3    3    0    0  0.86552252058E+01  0.43075127461E+02 -0.73373343301E+02  0.85527931323E+02  0.10000000000E+01 0.  0.
    9000005    1    3    3    0    0 -0.86552252058E+01 -0.43075127461E+02  0.22566012328E+02  0.49402474043E+02  0.10000000000E+01 0.  0.
<mgrwt>
<rscale>  0 0.12499932E+03</rscale>
<asrwt>0</asrwt>
<pdfrwt beam="1">  1        4 0.64710057E-02 0.12499932E+03</pdfrwt>
<pdfrwt beam="2">  1       -4 0.14287518E-01 0.12499932E+03</pdfrwt>
<totfact> 0.10239696E+04</totfact>
</mgrwt>
</event>
<event>
 5    1  0.3277540E-002  0.1250013E+03  0.7818608E-02  0.1235067E+00
          4   -1    0    0  501    0  0.00000000000E+00  0.00000000000E+00  0.11962874063E+02  0.12030097915E+02  0.12700000000E+01 0. -1.
         -4   -1    0    0    0  501 -0.00000000000E+00 -0.00000000000E+00 -0.32555423880E+03  0.32555671595E+03  0.12700000000E+01 0. -1.
         25    2    1    2    0    0  0.00000000000E+00  0.00000000000E+00 -0.31359136474E+03  0.33758681387E+03  0.12500125143E+03 0.  0.
    9000005    1    3    3    0    0  0.51376862229E+02  0.29161731923E+02 -0.21183496965E+03  0.21992053780E+03  0.10000000000E+01 0.  0.
    9000005    1    3    3    0    0 -0.51376862229E+02 -0.29161731923E+02 -0.10175639509E+03  0.11766627606E+03  0.10000000000E+01 0.  0.
<mgrwt>
<rscale>  0 0.12500125E+03</rscale>
<asrwt>0</asrwt>
<pdfrwt beam="1">  1        4 0.18458040E-02 0.12500125E+03</pdfrwt>
<pdfrwt beam="2">  1       -4 0.50090622E-01 0.12500125E+03</pdfrwt>
<totfact> 0.71110131E+03</totfact>
</mgrwt>
</event>
<event>
 5    1  0.3277540E-002  0.1250000E+03  0.7818608E-02  0.1235069E+00
          4   -1    0    0  501    0  0.00000000000E+00  0.00000000000E+00  0.11763895693E+02  0.11832250077E+02  0.12700000000E+01 0. -1.
         -4   -1    0    0    0  501 -0.00000000000E+00 -0.00000000000E+00 -0.33102248368E+03  0.33102491991E+03  0.12700000000E+01 0. -1.
         25    2    1    2    0    0  0.00000000000E+00  0.00000000000E+00 -0.31925858798E+03  0.34285716998E+03  0.12499997203E+03 0.  0.
    9000005    1    3    3    0    0  0.43448808754E+02 -0.44715812470E+02 -0.14801000082E+03  0.16060903838E+03  0.10000000000E+01 0.  0.
    9000005    1    3    3    0    0 -0.43448808754E+02  0.44715812470E+02 -0.17124858716E+03  0.18224813160E+03  0.10000000000E+01 0.  0.
<mgrwt>
<rscale>  0 0.12499997E+03</rscale>
<asrwt>0</asrwt>
<pdfrwt beam="1">  1        4 0.18152758E-02 0.12499997E+03</pdfrwt>
<pdfrwt beam="2">  1       -4 0.50931974E-01 0.12499997E+03</pdfrwt>
<totfact> 0.70517616E+03</totfact>
</mgrwt>
</event>
<event>
 5    1  0.3277540E-002  0.1249997E+03  0.7818608E-02  0.1235070E+00
          4   -1    0    0  501    0  0.00000000000E+00  0.00000000000E+00  0.54622644047E+03  0.54622791687E+03  0.12700000000E+01 0. -1.
         -4   -1    0    0    0  501 -0.00000000000E+00 -0.00000000000E+00 -0.70934207110E+01  0.72062138036E+01  0.12700000000E+01 0. -1.
         25    2    1    2    0    0  0.00000000000E+00  0.00000000000E+00  0.53913301976E+03  0.55343413067E+03  0.12499969600E+03 0.  0.
    9000005    1    3    3    0    0  0.53587533808E+02  0.24977093934E+02  0.17994391324E+03  0.18941037699E+03  0.10000000000E+01 0.  0.
    9000005    1    3    3    0    0 -0.53587533808E+02 -0.24977093934E+02  0.35918910652E+03  0.36402375368E+03  0.10000000000E+01 0.  0.
<mgrwt>
<rscale>  0 0.12499970E+03</rscale>
<asrwt>0</asrwt>
<pdfrwt beam="1">  1        4 0.84043637E-01 0.12499970E+03</pdfrwt>
<pdfrwt beam="2">  1       -4 0.11000853E-02 0.12499970E+03</pdfrwt>
<totfact> 0.51945746E+03</totfact>
</mgrwt>
</event>
<event>
 5    1  0.3277540E-002  0.1249991E+03  0.7818608E-02  0.1235071E+00
         -4   -1    0    0    0  501 -0.00000000000E+00  0.00000000000E+00  0.41671152752E+01  0.43563459134E+01  0.12700000000E+01 0. -1.
          4   -1    0    0  501    0  0.00000000000E+00 -0.00000000000E+00 -0.91638477197E+03  0.91638565200E+03  0.12700000000E+01 0. -1.
         25    2    1    2    0    0  0.00000000000E+00  0.00000000000E+00 -0.91221765669E+03  0.92074199792E+03  0.12499909417E+03 0.  0.
    9000005    1    3    3    0    0 -0.23129022759E+02  0.57560341519E+02 -0.51174461759E+03  0.51549170531E+03  0.10000000000E+01 0.  0.
    9000005    1    3    3    0    0  0.23129022759E+02 -0.57560341519E+02 -0.40047303910E+03  0.40525029260E+03  0.10000000000E+01 0.  0.
<mgrwt>
<rscale>  0 0.12499909E+03</rscale>
<asrwt>0</asrwt>
<pdfrwt beam="2">  1        4 0.14099674E+00 0.12499909E+03</pdfrwt>
<pdfrwt beam="1">  1       -4 0.65571928E-03 0.12499909E+03</pdfrwt>
<totfact> 0.33378722E+03</totfact>
</mgrwt>
</event>
<event>
 5    1  0.3277540E-002  0.1250042E+03  0.7818608E-02  0.1235063E+00
         -4   -1    0    0    0  501 -0.00000000000E+00  0.00000000000E+00  0.84003770806E+02  0.84013370422E+02  0.12700000000E+01 0. -1.
          4   -1    0    0  501    0  0.00000000000E+00 -0.00000000000E+00 -0.46483092298E+02  0.46500438380E+02  0.12700000000E+01 0. -1.
         25    2    1    2    0    0  0.00000000000E+00  0.00000000000E+00  0.37520678509E+02  0.13051380880E+03  0.12500421182E+03 0.  0.
    9000005    1    3    3    0    0  0.41883816171E+02 -0.38041174798E+02 -0.89446310276E+01  0.57292158811E+02  0.10000000000E+01 0.  0.
    9000005    1    3    3    0    0 -0.41883816171E+02  0.38041174798E+02  0.46465309536E+02  0.73221649991E+02  0.10000000000E+01 0.  0.
<mgrwt>
<rscale>  0 0.12500421E+03</rscale>
<asrwt>0</asrwt>
<pdfrwt beam="2">  1        4 0.71533178E-02 0.12500421E+03</pdfrwt>
<pdfrwt beam="1">  1       -4 0.12925730E-01 0.12500421E+03</pdfrwt>
<totfact> 0.10332542E+04</totfact>
</mgrwt>
</event>
<event>
 5    1  0.3277540E-002  0.1250039E+03  0.7818608E-02  0.1235063E+00
          4   -1    0    0  501    0  0.00000000000E+00  0.00000000000E+00  0.35237796163E+02  0.35260674673E+02  0.12700000000E+01 0.  1.
         -4   -1    0    0    0  501 -0.00000000000E+00 -0.00000000000E+00 -0.11079841330E+03  0.11080569160E+03  0.12700000000E+01 0.  1.
         25    2    1    2    0    0  0.00000000000E+00  0.00000000000E+00 -0.75560617140E+02  0.14606636627E+03  0.12500390591E+03 0.  0.
    9000005    1    3    3    0    0 -0.38704381890E+02 -0.78871632291E+01 -0.94367992382E+02  0.10230618020E+03  0.10000000000E+01 0.  0.
    9000005    1    3    3    0    0  0.38704381890E+02  0.78871632291E+01  0.18807375242E+02  0.43760186069E+02  0.10000000000E+01 0.  0.
<mgrwt>
<rscale>  0 0.12500391E+03</rscale>
<asrwt>0</asrwt>
<pdfrwt beam="1">  1        4 0.54235192E-02 0.12500391E+03</pdfrwt>
<pdfrwt beam="2">  1       -4 0.17048229E-01 0.12500391E+03</pdfrwt>
<totfact> 0.10008487E+04</totfact>
</mgrwt>
</event>
<event>
 5    1  0.3277540E-002  0.1249985E+03  0.7818608E-02  0.1235072E+00
          4   -1    0    0  501    0  0.00000000000E+00  0.00000000000E+00  0.35923705301E+01  0.38102527508E+01  0.12700000000E+01 0.  1.
         -4   -1    0    0    0  501 -0.00000000000E+00 -0.00000000000E+00 -0.10551257066E+04  0.10551264709E+04  0.12700000000E+01 0.  1.
         25    2    1    2    0    0  0.00000000000E+00  0.00000000000E+00 -0.10515333360E+04  0.10589367236E+04  0.12499851145E+03 0.  0.
    9000005    1    3    3    0    0 -0.85884927592E+01 -0.58380689103E+02 -0.70002016265E+03  0.70250359087E+03  0.10000000000E+01 0.  0.
    9000005    1    3    3    0    0  0.85884927592E+01  0.58380689103E+02 -0.35151317340E+03  0.35643313278E+03  0.10000000000E+01 0.  0.
<mgrwt>
<rscale>  0 0.12499851E+03</rscale>
<asrwt>0</asrwt>
<pdfrwt beam="1">  1        4 0.56949220E-03 0.12499851E+03</pdfrwt>
<pdfrwt beam="2">  1       -4 0.16234361E+00 0.12499851E+03</pdfrwt>
<totfact> 0.28718342E+03</totfact>
</mgrwt>
</event>
<event>
 5    1  0.3277540E-002  0.1250007E+03  0.7818608E-02  0.1235068E+00
          4   -1    0    0  501    0  0.00000000000E+00  0.00000000000E+00  0.76155451338E+01  0.77207141953E+01  0.12700000000E+01 0. -1.
         -4   -1    0    0    0  501 -0.00000000000E+00 -0.00000000000E+00 -0.50931365995E+03  0.50931524335E+03  0.12700000000E+01 0. -1.
         25    2    1    2    0    0  0.00000000000E+00  0.00000000000E+00 -0.50169811482E+03  0.51703595755E+03  0.12500073195E+03 0.  0.
    9000005    1    3    3    0    0  0.55801107843E+02 -0.26241608812E+02 -0.20888889662E+03  0.21780256380E+03  0.10000000000E+01 0.  0.
    9000005    1    3    3    0    0 -0.55801107843E+02  0.26241608812E+02 -0.29280921820E+03  0.29923339374E+03  0.10000000000E+01 0.  0.
<mgrwt>
<rscale>  0 0.12500073E+03</rscale>
<asrwt>0</asrwt>
<pdfrwt beam="1">  1        4 0.11798345E-02 0.12500073E+03</pdfrwt>
<pdfrwt beam="2">  1       -4 0.78364133E-01 0.12500073E+03</pdfrwt>
<totfact> 0.54565529E+03</totfact>
</mgrwt>
</event>
<event>
 5    1  0.3277540E-002  0.1250005E+03  0.7818608E-02  0.1235069E+00
         -4   -1    0    0    0  501 -0.00000000000E+00  0.00000000000E+00  0.17552550953E+03  0.17553010396E+03  0.12700000000E+01 0. -1.
          4   -1    0    0  501    0  0.00000000000E+00 -0.00000000000E+00 -0.22231762894E+02  0.22268008024E+02  0.12700000000E+01 0. -1.
         25    2    1    2    0    0  0.00000000000E+00  0.00000000000E+00  0.15329374664E+03  0.19779811198E+03  0.12500048138E+03 0.  0.
    9000005    1    3    3    0    0  0.16947635035E+02 -0.96834095772E+01 -0.17292191853E+02  0.26096180821E+02  0.10000000000E+01 0.  0.
    9000005    1    3    3    0    0 -0.16947635035E+02  0.96834095772E+01  0.17058593849E+03  0.17170193116E+03  0.10000000000E+01 0.  0.
<mgrwt>
<rscale>  0 0.12500048E+03</rscale>
<asrwt>0</asrwt>
<pdfrwt beam="2">  1        4 0.34234126E-02 0.12500048E+03</pdfrwt>
<pdfrwt beam="1">  1       -4 0.27007067E-01 0.12500048E+03</pdfrwt>
<totfact> 0.90506916E+03</totfact>
</mgrwt>
</event>
<event>
 5    1  0.3277540E-002  0.1249982E+03  0.7818608E-02  0.1235072E+00
          4   -1    0    0  501    0  0.00000000000E+00  0.00000000000E+00  0.96789012175E+02  0.96797343857E+02  0.12700000000E+01 0. -1.
         -4   -1    0    0    0  501 -0.00000000000E+00 -0.00000000000E+00 -0.40337171531E+02  0.40357159304E+02  0.12700000000E+01 0. -1.
         25    2    1    2    0    0  0.00000000000E+00  0.00000000000E+00  0.56451840644E+02  0.13715450316E+03  0.12499818969E+03 0.  0.
    9000005    1    3    3    0    0  0.46562809757E+02 -0.96091059483E+01 -0.16273113037E+02  0.50261758599E+02  0.10000000000E+01 0.  0.
    9000005    1    3    3    0    0 -0.46562809757E+02  0.96091059483E+01  0.72724953681E+02  0.86892744562E+02  0.10000000000E+01 0.  0.
<mgrwt>
<rscale>  0 0.12499819E+03</rscale>
<asrwt>0</asrwt>
<pdfrwt beam="1">  1        4 0.14892796E-01 0.12499819E+03</pdfrwt>
<pdfrwt beam="2">  1       -4 0.62078971E-02 0.12499819E+03</pdfrwt>
<totfact> 0.10193272E+04</totfact>
</mgrwt>
</event>
<event>
 5    1  0.3277540E-002  0.1249872E+03  0.7818608E-02  0.1235089E+00
          4   -1    0    0  501    0  0.00000000000E+00  0.00000000000E+00  0.16973492660E+04  0.16973497411E+04  0.12700000000E+01 0.  1.
         -4   -1    0    0    0  501 -0.00000000000E+00 -0.00000000000E+00 -0.21251534912E+01  0.24757175447E+01  0.12700000000E+01 0.  1.
         25    2    1    2    0    0  0.00000000000E+00  0.00000000000E+00  0.16952241125E+04  0.16998254587E+04  0.12498719256E+03 0.  0.
    9000005    1    3    3    0    0 -0.49103063986E+02 -0.23307751882E+02  0.42841271427E+03  0.43184813990E+03  0.10000000000E+01 0.  0.
    9000005    1    3    3    0    0  0.49103063986E+02  0.23307751882E+02  0.12668113982E+04  0.12679773188E+04  0.10000000000E+01 0.  0.
<mgrwt>
<rscale>  0 0.12498719E+03</rscale>
<asrwt>0</asrwt>
<pdfrwt beam="1">  1        4 0.26115780E+00 0.12498719E+03</pdfrwt>
<pdfrwt beam="2">  1       -4 0.35394951E-03 0.12498719E+03</pdfrwt>
<totfact> 0.14314830E+03</totfact>
</mgrwt>
</event>
<event>
 5    1  0.3277540E-002  0.1249956E+03  0.7818608E-02  0.1235076E+00
          4   -1    0    0  501    0  0.00000000000E+00  0.00000000000E+00  0.28754196453E+02  0.28782229129E+02  0.12700000000E+01 0. -1.
         -4   -1    0    0    0  501 -0.00000000000E+00 -0.00000000000E+00 -0.13574292305E+03  0.13574886393E+03  0.12700000000E+01 0. -1.
         25    2    1    2    0    0  0.00000000000E+00  0.00000000000E+00 -0.10698872659E+03  0.16453109305E+03  0.12499557178E+03 0.  0.
    9000005    1    3    3    0    0  0.30782421256E+02  0.31056051106E+02 -0.11225685352E+03  0.12047670701E+03  0.10000000000E+01 0.  0.
    9000005    1    3    3    0    0 -0.30782421256E+02 -0.31056051106E+02  0.52681269281E+01  0.44054386047E+02  0.10000000000E+01 0.  0.
<mgrwt>
<rscale>  0 0.12499557E+03</rscale>
<asrwt>0</asrwt>
<pdfrwt beam="1">  1        4 0.44263360E-02 0.12499557E+03</pdfrwt>
<pdfrwt beam="2">  1       -4 0.20886140E-01 0.12499557E+03</pdfrwt>
<totfact> 0.96485868E+03</totfact>
</mgrwt>
</event>
<event>
 5    1  0.3277540E-002  0.1249991E+03  0.7818608E-02  0.1235071E+00
          4   -1    0    0  501    0  0.00000000000E+00  0.00000000000E+00  0.21801677053E+04  0.21801680752E+04  0.12700000000E+01 0. -1.
         -4   -1    0    0    0  501 -0.00000000000E+00 -0.00000000000E+00 -0.15662250874E+01  0.20164228288E+01  0.12700000000E+01 0. -1.
         25    2    1    2    0    0  0.00000000000E+00  0.00000000000E+00  0.21786014802E+04  0.21821844980E+04  0.12499909545E+03 0.  0.
    9000005    1    3    3    0    0  0.36558252541E+02 -0.94689935104E+01  0.19585115510E+04  0.19588758671E+04  0.10000000000E+01 0.  0.
    9000005    1    3    3    0    0 -0.36558252541E+02  0.94689935104E+01  0.22008992927E+03  0.22330863089E+03  0.10000000000E+01 0.  0.
<mgrwt>
<rscale>  0 0.12499910E+03</rscale>
<asrwt>0</asrwt>
<pdfrwt beam="1">  1        4 0.33544823E+00 0.12499910E+03</pdfrwt>
<pdfrwt beam="2">  1       -4 0.27561416E-03 0.12499910E+03</pdfrwt>
<totfact> 0.76667485E+02</totfact>
</mgrwt>
</event>
<event>
 5    1  0.3277540E-002  0.1250014E+03  0.7818608E-02  0.1235067E+00
          4   -1    0    0  501    0  0.00000000000E+00  0.00000000000E+00  0.14028226323E+02  0.14085596678E+02  0.12700000000E+01 0. -1.
         -4   -1    0    0    0  501 -0.00000000000E+00 -0.00000000000E+00 -0.27783544171E+03  0.27783834431E+03  0.12700000000E+01 0. -1.
         25    2    1    2    0    0  0.00000000000E+00  0.00000000000E+00 -0.26380721539E+03  0.29192394099E+03  0.12500136173E+03 0.  0.
    9000005    1    3    3    0    0 -0.51520544678E+02  0.24290493835E+02 -0.19194298088E+03  0.20021863680E+03  0.10000000000E+01 0.  0.
    9000005    1    3    3    0    0  0.51520544678E+02 -0.24290493835E+02 -0.71864234508E+02  0.91705304187E+02  0.10000000000E+01 0.  0.
<mgrwt>
<rscale>  0 0.12500136E+03</rscale>
<asrwt>0</asrwt>
<pdfrwt beam="1">  1        4 0.21628253E-02 0.12500136E+03</pdfrwt>
<pdfrwt beam="2">  1       -4 0.42748546E-01 0.12500136E+03</pdfrwt>
<totfact> 0.76620866E+03</totfact>
</mgrwt>
</event>
<event>
 5    1  0.3277540E-002  0.1250254E+03  0.7818608E-02  0.1235030E+00
         -4   -1    0    0    0  501 -0.00000000000E+00  0.00000000000E+00  0.44378514317E+03  0.44378696038E+03  0.12700000000E+01 0. -1.
          4   -1    0    0  501    0  0.00000000000E+00 -0.00000000000E+00 -0.87580542640E+01  0.88496561793E+01  0.12700000000E+01 0. -1.
         25    2    1    2    0    0  0.00000000000E+00  0.00000000000E+00  0.43502708891E+03  0.45263661656E+03  0.12502535168E+03 0.  0.
    9000005    1    3    3    0    0  0.53894396515E+02 -0.31360163720E+02  0.20182907575E+03  0.21124403344E+03  0.10000000000E+01 0.  0.
    9000005    1    3    3    0    0 -0.53894396515E+02  0.31360163720E+02  0.23319801316E+03  0.24139258312E+03  0.10000000000E+01 0.  0.
<mgrwt>
<rscale>  0 0.12502535E+03</rscale>
<asrwt>0</asrwt>
<pdfrwt beam="2">  1        4 0.13545785E-02 0.12502535E+03</pdfrwt>
<pdfrwt beam="1">  1       -4 0.68281852E-01 0.12502535E+03</pdfrwt>
<totfact> 0.59702704E+03</totfact>
</mgrwt>
</event>
<event>
 5    1  0.3277540E-002  0.1250232E+03  0.7818608E-02  0.1235033E+00
          4   -1    0    0  501    0  0.00000000000E+00  0.00000000000E+00  0.87747516955E+02  0.87756707047E+02  0.12700000000E+01 0. -1.
         -4   -1    0    0    0  501 -0.00000000000E+00 -0.00000000000E+00 -0.44512874804E+02  0.44530988348E+02  0.12700000000E+01 0. -1.
         25    2    1    2    0    0  0.00000000000E+00  0.00000000000E+00  0.43234642151E+02  0.13228769540E+03  0.12502319813E+03 0.  0.
    9000005    1    3    3    0    0 -0.98888580187E+01  0.57040060855E+01  0.86640229773E+02  0.87394820290E+02  0.10000000000E+01 0.  0.
    9000005    1    3    3    0    0  0.98888580187E+01 -0.57040060855E+01 -0.43405587623E+02  0.44892875105E+02  0.10000000000E+01 0.  0.
<mgrwt>
<rscale>  0 0.12502320E+03</rscale>
<asrwt>0</asrwt>
<pdfrwt beam="1">  1        4 0.13501718E-01 0.12502320E+03</pdfrwt>
<pdfrwt beam="2">  1       -4 0.68502348E-02 0.12502320E+03</pdfrwt>
<totfact> 0.10290176E+04</totfact>
</mgrwt>
</event>
<event>
 5    1  0.3277540E-002  0.1250007E+03  0.7818608E-02  0.1235068E+00
         -4   -1    0    0    0  501 -0.00000000000E+00  0.00000000000E+00  0.97158894927E+02  0.97167194893E+02  0.12700000000E+01 0. -1.
          4   -1    0    0  501    0  0.00000000000E+00 -0.00000000000E+00 -0.40185136183E+02  0.40205199540E+02  0.12700000000E+01 0. -1.
         25    2    1    2    0    0  0.00000000000E+00  0.00000000000E+00  0.56973758744E+02  0.13737239443E+03  0.12500066227E+03 0.  0.
    9000005    1    3    3    0    0  0.56946355031E+02 -0.10543210820E+01  0.56747645794E+02  0.80407053468E+02  0.10000000000E+01 0.  0.
    9000005    1    3    3    0    0 -0.56946355031E+02  0.10543210820E+01  0.22611294998E+00  0.56965340965E+02  0.10000000000E+01 0.  0.
<mgrwt>
<rscale>  0 0.12500066E+03</rscale>
<asrwt>0</asrwt>
<pdfrwt beam="2">  1        4 0.61845104E-02 0.12500066E+03</pdfrwt>
<pdfrwt beam="1">  1       -4 0.14949704E-01 0.12500066E+03</pdfrwt>
<totfact> 0.10188153E+04</totfact>
</mgrwt>
</event>
<event>
 5    1  0.3277540E-002  0.1250003E+03  0.7818608E-02  0.1235069E+00
         -4   -1    0    0    0  501 -0.00000000000E+00  0.00000000000E+00  0.47985122365E+02  0.48001925674E+02  0.12700000000E+01 0.  1.
          4   -1    0    0  501    0  0.00000000000E+00 -0.00000000000E+00 -0.81369842491E+02  0.81379752808E+02  0.12700000000E+01 0.  1.
         25    2    1    2    0    0  0.00000000000E+00  0.00000000000E+00 -0.33384720126E+02  0.12938167848E+03  0.12500031675E+03 0.  0.
    9000005    1    3    3    0    0  0.51045386352E+01 -0.52649578785E+01 -0.80928030818E+02  0.81265750893E+02  0.10000000000E+01 0.  0.
    9000005    1    3    3    0    0 -0.51045386352E+01  0.52649578785E+01  0.47543310692E+02  0.48115927588E+02  0.10000000000E+01 0.  0.
<mgrwt>
<rscale>  0 0.12500032E+03</rscale>
<asrwt>0</asrwt>
<pdfrwt beam="2">  1        4 0.12520492E-01 0.12500032E+03</pdfrwt>
<pdfrwt beam="1">  1       -4 0.73843814E-02 0.12500032E+03</pdfrwt>
<totfact> 0.10357678E+04</totfact>
</mgrwt>
</event>
<event>
 5    1  0.3277540E-002  0.1250021E+03  0.7818608E-02  0.1235066E+00
         -4   -1    0    0    0  501 -0.00000000000E+00  0.00000000000E+00  0.10491828519E+02  0.10568413584E+02  0.12700000000E+01 0. -1.
          4   -1    0    0  501    0  0.00000000000E+00 -0.00000000000E+00 -0.37089446514E+03  0.37089663947E+03  0.12700000000E+01 0. -1.
         25    2    1    2    0    0  0.00000000000E+00  0.00000000000E+00 -0.36040263662E+03  0.38146505305E+03  0.12500210486E+03 0.  0.
    9000005    1    3    3    0    0 -0.37373316863E+02  0.53625330618E+01 -0.28233715987E+02  0.47155745065E+02  0.10000000000E+01 0.  0.
    9000005    1    3    3    0    0  0.37373316863E+02 -0.53625330618E+01 -0.33216892063E+03  0.33430930799E+03  0.10000000000E+01 0.  0.
<mgrwt>
<rscale>  0 0.12500210E+03</rscale>
<asrwt>0</asrwt>
<pdfrwt beam="2">  1        4 0.57066735E-01 0.12500210E+03</pdfrwt>
<pdfrwt beam="1">  1       -4 0.16201862E-02 0.12500210E+03</pdfrwt>
<totfact> 0.66393210E+03</totfact>
</mgrwt>
</event>
<event>
 5    1  0.3277540E-002  0.1250023E+03  0.7818608E-02  0.1235066E+00
         -4   -1    0    0    0  501 -0.00000000000E+00  0.00000000000E+00  0.46629777275E+02  0.46647068811E+02  0.12700000000E+01 0.  1.
          4   -1    0    0  501    0  0.00000000000E+00 -0.00000000000E+00 -0.83736998539E+02  0.83746628734E+02  0.12700000000E+01 0.  1.
         25    2    1    2    0    0  0.00000000000E+00  0.00000000000E+00 -0.37107221264E+02  0.13039369755E+03  0.12500228194E+03 0.  0.
    9000005    1    3    3    0    0 -0.19086282349E+02  0.48110239493E+02  0.17978472493E+02  0.54800609405E+02  0.10000000000E+01 0.  0.
    9000005    1    3    3    0    0  0.19086282349E+02 -0.48110239493E+02 -0.55085693757E+02  0.75593088141E+02  0.10000000000E+01 0.  0.
<mgrwt>
<rscale>  0 0.12500228E+03</rscale>
<asrwt>0</asrwt>
<pdfrwt beam="2">  1        4 0.12884686E-01 0.12500228E+03</pdfrwt>
<pdfrwt beam="1">  1       -4 0.71758828E-02 0.12500228E+03</pdfrwt>
<totfact> 0.10335560E+04</totfact>
</mgrwt>
</event>
<event>
 5    1  0.3277540E-002  0.1250569E+03  0.7818608E-02  0.1234980E+00
          4   -1    0    0  501    0  0.00000000000E+00  0.00000000000E+00  0.30930685855E+02  0.30956747688E+02  0.12700000000E+01 0.  1.
         -4   -1    0    0    0  501 -0.00000000000E+00 -0.00000000000E+00 -0.12632291033E+03  0.12632929421E+03  0.12700000000E+01 0.  1.
         25    2    1    2    0    0  0.00000000000E+00  0.00000000000E+00 -0.95392224477E+02  0.15728604189E+03  0.12505687700E+03 0.  0.
    9000005    1    3    3    0    0  0.14089487117E+02 -0.46800961802E+02  0.13380728875E+01  0.48904336330E+02  0.10000000000E+01 0.  0.
    9000005    1    3    3    0    0 -0.14089487117E+02  0.46800961802E+02 -0.96730297364E+02  0.10838170556E+03  0.10000000000E+01 0.  0.
<mgrwt>
<rscale>  0 0.12505688E+03</rscale>
<asrwt>0</asrwt>
<pdfrwt beam="1">  1        4 0.47610629E-02 0.12505688E+03</pdfrwt>
<pdfrwt beam="2">  1       -4 0.19436789E-01 0.12505688E+03</pdfrwt>
<totfact> 0.97743529E+03</totfact>
</mgrwt>
</event>
<event>
 5    1  0.3277540E-002  0.1250025E+03  0.7818608E-02  0.1235065E+00
         -4   -1    0    0    0  501 -0.00000000000E+00  0.00000000000E+00  0.27644340484E+02  0.27673497444E+02  0.12700000000E+01 0.  1.
          4   -1    0    0  501    0  0.00000000000E+00 -0.00000000000E+00 -0.14120283734E+03  0.14120854851E+03  0.12700000000E+01 0.  1.
         25    2    1    2    0    0  0.00000000000E+00  0.00000000000E+00 -0.11355849685E+03  0.16888204595E+03  0.12500245293E+03 0.  0.
    9000005    1    3    3    0    0  0.43345290729E+02 -0.43784964535E+02 -0.70914531006E+02  0.93945771887E+02  0.10000000000E+01 0.  0.
    9000005    1    3    3    0    0 -0.43345290729E+02  0.43784964535E+02 -0.42643965848E+02  0.74936274066E+02  0.10000000000E+01 0.  0.
<mgrwt>
<rscale>  0 0.12500245E+03</rscale>
<asrwt>0</asrwt>
<pdfrwt beam="2">  1        4 0.21726195E-01 0.12500245E+03</pdfrwt>
<pdfrwt beam="1">  1       -4 0.42556577E-02 0.12500245E+03</pdfrwt>
<totfact> 0.95651935E+03</totfact>
</mgrwt>
</event>
<event>
 5    1  0.3277540E-002  0.1249818E+03  0.7818608E-02  0.1235098E+00
          4   -1    0    0  501    0  0.00000000000E+00  0.00000000000E+00  0.94852011690E+03  0.94852096712E+03  0.12700000000E+01 0.  1.
         -4   -1    0    0    0  501 -0.00000000000E+00 -0.00000000000E+00 -0.40182463081E+01  0.42141669868E+01  0.12700000000E+01 0.  1.
         25    2    1    2    0    0  0.00000000000E+00  0.00000000000E+00  0.94450187059E+03  0.95273513411E+03  0.12498180751E+03 0.  0.
    9000005    1    3    3    0    0 -0.59679262230E+02 -0.12874908870E+02  0.37090946659E+03  0.37590186223E+03  0.10000000000E+01 0.  0.
    9000005    1    3    3    0    0  0.59679262230E+02  0.12874908870E+02  0.57359240400E+03  0.57683327188E+03  0.10000000000E+01 0.  0.
<mgrwt>
<rscale>  0 0.12498181E+03</rscale>
<asrwt>0</asrwt>
<pdfrwt beam="1">  1        4 0.14594145E+00 0.12498181E+03</pdfrwt>
<pdfrwt beam="2">  1       -4 0.63332736E-03 0.12498181E+03</pdfrwt>
<totfact> 0.32231819E+03</totfact>
</mgrwt>
</event>
<event>
 5    1  0.3277540E-002  0.1249941E+03  0.7818608E-02  0.1235078E+00
         -4   -1    0    0    0  501 -0.00000000000E+00  0.00000000000E+00  0.29782913110E+02  0.29809978419E+02  0.12700000000E+01 0. -1.
          4   -1    0    0  501    0  0.00000000000E+00 -0.00000000000E+00 -0.13105542734E+03  0.13106158069E+03  0.12700000000E+01 0. -1.
         25    2    1    2    0    0  0.00000000000E+00  0.00000000000E+00 -0.10127251423E+03  0.16087155911E+03  0.12499414544E+03 0.  0.
    9000005    1    3    3    0    0 -0.57380509622E+02  0.24285724889E+02 -0.44522542562E+02  0.76587049258E+02  0.10000000000E+01 0.  0.
    9000005    1    3    3    0    0  0.57380509622E+02 -0.24285724889E+02 -0.56749971663E+02  0.84284509855E+02  0.10000000000E+01 0.  0.
<mgrwt>
<rscale>  0 0.12499415E+03</rscale>
<asrwt>0</asrwt>
<pdfrwt beam="2">  1        4 0.20164928E-01 0.12499415E+03</pdfrwt>
<pdfrwt beam="1">  1       -4 0.45845420E-02 0.12499415E+03</pdfrwt>
<totfact> 0.97187806E+03</totfact>
</mgrwt>
</event>
<event>
 5    1  0.3277540E-002  0.1250013E+03  0.7818608E-02  0.1235067E+00
         -4   -1    0    0    0  501 -0.00000000000E+00  0.00000000000E+00  0.56602377756E+02  0.56616623597E+02  0.12700000000E+01 0.  1.
          4   -1    0    0  501    0  0.00000000000E+00 -0.00000000000E+00 -0.68984763851E+02  0.68996453123E+02  0.12700000000E+01 0.  1.
         25    2    1    2    0    0  0.00000000000E+00  0.00000000000E+00 -0.12382386096E+02  0.12561307672E+03  0.12500128622E+03 0.  0.
    9000005    1    3    3    0    0  0.31261389348E+02  0.46106648817E+02  0.22271146478E+02  0.60000845781E+02  0.10000000000E+01 0.  0.
    9000005    1    3    3    0    0 -0.31261389348E+02 -0.46106648817E+02 -0.34653532573E+02  0.65612230939E+02  0.10000000000E+01 0.  0.
<mgrwt>
<rscale>  0 0.12500129E+03</rscale>
<asrwt>0</asrwt>
<pdfrwt beam="2">  1        4 0.10615036E-01 0.12500129E+03</pdfrwt>
<pdfrwt beam="1">  1       -4 0.87100531E-02 0.12500129E+03</pdfrwt>
<totfact> 0.10439156E+04</totfact>
</mgrwt>
</event>
<event>
 5    1  0.3277540E-002  0.1249992E+03  0.7818608E-02  0.1235070E+00
         -4   -1    0    0    0  501 -0.00000000000E+00  0.00000000000E+00  0.31178918505E+02  0.31204773019E+02  0.12700000000E+01 0.  1.
          4   -1    0    0  501    0  0.00000000000E+00 -0.00000000000E+00 -0.12520246827E+03  0.12520890927E+03  0.12700000000E+01 0.  1.
         25    2    1    2    0    0  0.00000000000E+00  0.00000000000E+00 -0.94023549763E+02  0.15641368229E+03  0.12499924839E+03 0.  0.
    9000005    1    3    3    0    0 -0.21839529115E+02 -0.77410062500E+01 -0.11963468978E+03  0.12186200067E+03  0.10000000000E+01 0.  0.
    9000005    1    3    3    0    0  0.21839529115E+02  0.77410062500E+01  0.25611140013E+02  0.34551681617E+02  0.10000000000E+01 0.  0.
<mgrwt>
<rscale>  0 0.12499925E+03</rscale>
<asrwt>0</asrwt>
<pdfrwt beam="2">  1        4 0.19264402E-01 0.12499925E+03</pdfrwt>
<pdfrwt beam="1">  1       -4 0.47992410E-02 0.12499925E+03</pdfrwt>
<totfact> 0.98040345E+03</totfact>
</mgrwt>
</event>
<event>
 5    1  0.3277540E-002  0.1250033E+03  0.7818608E-02  0.1235064E+00
          4   -1    0    0  501    0  0.00000000000E+00  0.00000000000E+00  0.33553029553E+03  0.33553269903E+03  0.12700000000E+01 0. -1.
         -4   -1    0    0    0  501 -0.00000000000E+00 -0.00000000000E+00 -0.11605547520E+02  0.11674829046E+02  0.12700000000E+01 0. -1.
         25    2    1    2    0    0  0.00000000000E+00  0.00000000000E+00  0.32392474801E+03  0.34720752807E+03  0.12500330067E+03 0.  0.
    9000005    1    3    3    0    0 -0.54612447004E+02  0.85112335872E+01  0.80958881035E+02  0.98032142093E+02  0.10000000000E+01 0.  0.
    9000005    1    3    3    0    0  0.54612447004E+02 -0.85112335872E+01  0.24296586697E+03  0.24917538598E+03  0.10000000000E+01 0.  0.
<mgrwt>
<rscale>  0 0.12500330E+03</rscale>
<asrwt>0</asrwt>
<pdfrwt beam="1">  1        4 0.51625562E-01 0.12500330E+03</pdfrwt>
<pdfrwt beam="2">  1       -4 0.17909830E-02 0.12500330E+03</pdfrwt>
<totfact> 0.70027738E+03</totfact>
</mgrwt>
</event>
<event>
 5    1  0.3277540E-002  0.1250019E+03  0.7818608E-02  0.1235066E+00
         -4   -1    0    0    0  501 -0.00000000000E+00  0.00000000000E+00  0.23505619323E+01  0.26717113238E+01  0.12700000000E+01 0.  1.
          4   -1    0    0  501    0  0.00000000000E+00 -0.00000000000E+00 -0.15552960080E+04  0.15552965266E+04  0.12700000000E+01 0.  1.
         25    2    1    2    0    0  0.00000000000E+00  0.00000000000E+00 -0.15529454461E+04  0.15579682379E+04  0.12500188664E+03 0.  0.
    9000005    1    3    3    0    0 -0.77709133066E+01  0.61989121762E+02 -0.79549590766E+03  0.79794597400E+03  0.10000000000E+01 0.  0.
    9000005    1    3    3    0    0  0.77709133066E+01 -0.61989121762E+02 -0.75744953845E+03  0.76002226389E+03  0.10000000000E+01 0.  0.
<mgrwt>
<rscale>  0 0.12500189E+03</rscale>
<asrwt>0</asrwt>
<pdfrwt beam="2">  1        4 0.23930028E+00 0.12500189E+03</pdfrwt>
<pdfrwt beam="1">  1       -4 0.38636984E-03 0.12500189E+03</pdfrwt>
<totfact> 0.16818062E+03</totfact>
</mgrwt>
</event>
<event>
 5    1  0.3277540E-002  0.1250012E+03  0.7818608E-02  0.1235067E+00
          4   -1    0    0  501    0  0.00000000000E+00  0.00000000000E+00  0.10199639226E+02  0.10278401643E+02  0.12700000000E+01 0. -1.
         -4   -1    0    0    0  501 -0.00000000000E+00 -0.00000000000E+00 -0.38143341813E+03  0.38143553238E+03  0.12700000000E+01 0. -1.
         25    2    1    2    0    0  0.00000000000E+00  0.00000000000E+00 -0.37123377890E+03  0.39171393402E+03  0.12500115005E+03 0.  0.
    9000005    1    3    3    0    0 -0.51638932387E+02 -0.14581321794E+02 -0.28599885502E+03  0.29099061730E+03  0.10000000000E+01 0.  0.
    9000005    1    3    3    0    0  0.51638932387E+02  0.14581321794E+02 -0.85234923875E+02  0.10072331672E+03  0.10000000000E+01 0.  0.
<mgrwt>
<rscale>  0 0.12500115E+03</rscale>
<asrwt>0</asrwt>
<pdfrwt beam="1">  1        4 0.15753968E-02 0.12500115E+03</pdfrwt>
<pdfrwt beam="2">  1       -4 0.58688275E-01 0.12500115E+03</pdfrwt>
<totfact> 0.65365084E+03</totfact>
</mgrwt>
</event>
<event>
 4    1  0.3277540E-002  0.1248958E+03  0.7818608E-02  0.1235232E+00
          4   -1    0    0  501    0  0.00000000000E+00  0.00000000000E+00  0.13607506636E+02  0.13666643218E+02  0.12700000000E+01 0.  1.
         -4   -1    0    0    0  501 -0.00000000000E+00 -0.00000000000E+00 -0.28590543392E+03  0.28590825460E+03  0.12700000000E+01 0.  1.
    9000005    1    1    2    0    0  0.92978922887E+01  0.60782266958E+02 -0.16218285353E+03  0.17345089437E+03  0.10000000000E+01 0.  0.
    9000005    1    1    2    0    0 -0.92978922887E+01 -0.60782266958E+02 -0.11011507376E+03  0.12612400345E+03  0.10000000000E+01 0.  0.
<mgrwt>
<rscale>  0 0.12489579E+03</rscale>
<asrwt>0</asrwt>
<pdfrwt beam="1">  1        4 0.20982287E-02 0.12489579E+03</pdfrwt>
<pdfrwt beam="2">  1       -4 0.43990213E-01 0.12489579E+03</pdfrwt>
<totfact> 0.75827480E+03</totfact>
</mgrwt>
</event>
<event>
 5    1  0.3277540E-002  0.1250094E+03  0.7818608E-02  0.1235055E+00
         -4   -1    0    0    0  501 -0.00000000000E+00  0.00000000000E+00  0.10695994742E+03  0.10696748689E+03  0.12700000000E+01 0.  1.
          4   -1    0    0  501    0  0.00000000000E+00 -0.00000000000E+00 -0.36506293026E+02  0.36528377058E+02  0.12700000000E+01 0.  1.
         25    2    1    2    0    0  0.00000000000E+00  0.00000000000E+00  0.70453654395E+02  0.14349586395E+03  0.12500938186E+03 0.  0.
    9000005    1    3    3    0    0  0.18471711841E+02  0.59577566142E+02  0.39694113468E+02  0.73941281905E+02  0.10000000000E+01 0.  0.
    9000005    1    3    3    0    0 -0.18471711841E+02 -0.59577566142E+02  0.30759540927E+02  0.69554582047E+02  0.10000000000E+01 0.  0.
<mgrwt>
<rscale>  0 0.12500938E+03</rscale>
<asrwt>0</asrwt>
<pdfrwt beam="2">  1        4 0.56186316E-02 0.12500938E+03</pdfrwt>
<pdfrwt beam="1">  1       -4 0.16457655E-01 0.12500938E+03</pdfrwt>
<totfact> 0.10059513E+04</totfact>
</mgrwt>
</event>
<event>
 5    1  0.3277540E-002  0.1250046E+03  0.7818608E-02  0.1235062E+00
         -4   -1    0    0    0  501 -0.00000000000E+00  0.00000000000E+00  0.35706370484E+02  0.35728948951E+02  0.12700000000E+01 0.  1.
          4   -1    0    0  501    0  0.00000000000E+00 -0.00000000000E+00 -0.10934647089E+03  0.10935384583E+03  0.12700000000E+01 0.  1.
         25    2    1    2    0    0  0.00000000000E+00  0.00000000000E+00 -0.73640100409E+02  0.14508279478E+03  0.12500461172E+03 0.  0.
    9000005    1    3    3    0    0 -0.29702889594E+02 -0.26090960888E+02  0.19353675853E+02  0.44029134210E+02  0.10000000000E+01 0.  0.
    9000005    1    3    3    0    0  0.29702889594E+02  0.26090960888E+02 -0.92993776262E+02  0.10105366057E+03  0.10000000000E+01 0.  0.
<mgrwt>
<rscale>  0 0.12500461E+03</rscale>
<asrwt>0</asrwt>
<pdfrwt beam="2">  1        4 0.16824838E-01 0.12500461E+03</pdfrwt>
<pdfrwt beam="1">  1       -4 0.54955919E-02 0.12500461E+03</pdfrwt>
<totfact> 0.10028265E+04</totfact>
</mgrwt>
</event>
<event>
 5    1  0.3277540E-002  0.1249986E+03  0.7818608E-02  0.1235072E+00
          4   -1    0    0  501    0  0.00000000000E+00  0.00000000000E+00  0.90659508060E+01  0.91544723505E+01  0.12700000000E+01 0. -1.
         -4   -1    0    0    0  501 -0.00000000000E+00 -0.00000000000E+00 -0.42867779452E+03  0.42867967577E+03  0.12700000000E+01 0. -1.
         25    2    1    2    0    0  0.00000000000E+00  0.00000000000E+00 -0.41961184371E+03  0.43783414812E+03  0.12499856748E+03 0.  0.
    9000005    1    3    3    0    0  0.49952531855E+02  0.43813014819E+01 -0.34042985688E+03  0.34410454618E+03  0.10000000000E+01 0.  0.
    9000005    1    3    3    0    0 -0.49952531855E+02 -0.43813014819E+01 -0.79181986830E+02  0.93729601940E+02  0.10000000000E+01 0.  0.
<mgrwt>
<rscale>  0 0.12499857E+03</rscale>
<asrwt>0</asrwt>
<pdfrwt beam="1">  1        4 0.14017161E-02 0.12499857E+03</pdfrwt>
<pdfrwt beam="2">  1       -4 0.65957368E-01 0.12499857E+03</pdfrwt>
<totfact> 0.61034171E+03</totfact>
</mgrwt>
</event>
<event>
 5    1  0.3277540E-002  0.1249891E+03  0.7818608E-02  0.1235086E+00
          4   -1    0    0  501    0  0.00000000000E+00  0.00000000000E+00  0.17085745834E+02  0.17132880981E+02  0.12700000000E+01 0.  1.
         -4   -1    0    0    0  501 -0.00000000000E+00 -0.00000000000E+00 -0.22822254382E+03  0.22822607740E+03  0.12700000000E+01 0.  1.
         25    2    1    2    0    0  0.00000000000E+00  0.00000000000E+00 -0.21113679799E+03  0.24535895838E+03  0.12498908351E+03 0.  0.
    9000005    1    3    3    0    0 -0.11004044329E+02 -0.10441611461E+02  0.13425883826E+02  0.20282272999E+02  0.10000000000E+01 0.  0.
    9000005    1    3    3    0    0  0.11004044329E+02  0.10441611461E+02 -0.22456268181E+03  0.22507668539E+03  0.10000000000E+01 0.  0.
<mgrwt>
<rscale>  0 0.12498908E+03</rscale>
<asrwt>0</asrwt>
<pdfrwt beam="1">  1        4 0.26324740E-02 0.12498908E+03</pdfrwt>
<pdfrwt beam="2">  1       -4 0.35115056E-01 0.12498908E+03</pdfrwt>
<totfact> 0.83025860E+03</totfact>
</mgrwt>
</event>
<event>
 5    1  0.3277540E-002  0.1249978E+03  0.7818608E-02  0.1235073E+00
          4   -1    0    0  501    0  0.00000000000E+00  0.00000000000E+00  0.41253367135E+03  0.41253562621E+03  0.12700000000E+01 0.  1.
         -4   -1    0    0    0  501 -0.00000000000E+00 -0.00000000000E+00 -0.94240193678E+01  0.95092082239E+01  0.12700000000E+01 0.  1.
         25    2    1    2    0    0  0.00000000000E+00  0.00000000000E+00  0.40310965198E+03  0.42204483444E+03  0.12499780301E+03 0.  0.
    9000005    1    3    3    0    0 -0.33424374975E+02 -0.38962892544E+02  0.32187175888E+03  0.32594129073E+03  0.10000000000E+01 0.  0.
    9000005    1    3    3    0    0  0.33424374975E+02  0.38962892544E+02  0.81237893096E+02  0.96103543704E+02  0.10000000000E+01 0.  0.
<mgrwt>
<rscale>  0 0.12499780E+03</rscale>
<asrwt>0</asrwt>
<pdfrwt beam="1">  1        4 0.63473405E-01 0.12499780E+03</pdfrwt>
<pdfrwt beam="2">  1       -4 0.14565529E-02 0.12499780E+03</pdfrwt>
<totfact> 0.62466792E+03</totfact>
</mgrwt>
</event>
<event>
 5    1  0.3277540E-002  0.1249989E+03  0.7818608E-02  0.1235071E+00
          4   -1    0    0  501    0  0.00000000000E+00  0.00000000000E+00  0.68845112175E+02  0.68856825155E+02  0.12700000000E+01 0.  1.
         -4   -1    0    0    0  501 -0.00000000000E+00 -0.00000000000E+00 -0.56715011175E+02  0.56729228732E+02  0.12700000000E+01 0.  1.
         25    2    1    2    0    0  0.00000000000E+00  0.00000000000E+00  0.12130101000E+02  0.12558605389E+03  0.12499887032E+03 0.  0.
    9000005    1    3    3    0    0 -0.48047314307E+02 -0.79208957966E+01  0.45413992192E+02  0.66593661028E+02  0.10000000000E+01 0.  0.
    9000005    1    3    3    0    0  0.48047314307E+02  0.79208957966E+01 -0.33283891191E+02  0.58992392859E+02  0.10000000000E+01 0.  0.
<mgrwt>
<rscale>  0 0.12499887E+03</rscale>
<asrwt>0</asrwt>
<pdfrwt beam="1">  1        4 0.10593550E-01 0.12499887E+03</pdfrwt>
<pdfrwt beam="2">  1       -4 0.87273810E-02 0.12499887E+03</pdfrwt>
<totfact> 0.10440321E+04</totfact>
</mgrwt>
</event>
<event>
 5    1  0.3277540E-002  0.1250011E+03  0.7818608E-02  0.1235068E+00
         -4   -1    0    0    0  501 -0.00000000000E+00  0.00000000000E+00  0.20534133178E+04  0.20534137105E+04  0.12700000000E+01 0. -1.
          4   -1    0    0  501    0  0.00000000000E+00 -0.00000000000E+00 -0.16899550593E+01  0.21139650192E+01  0.12700000000E+01 0. -1.
         25    2    1    2    0    0  0.00000000000E+00  0.00000000000E+00  0.20517233627E+04  0.20555276755E+04  0.12500107103E+03 0.  0.
    9000005    1    3    3    0    0  0.32251087376E+02  0.38969918524E+02  0.42244463964E+03  0.42546358334E+03  0.10000000000E+01 0.  0.
    9000005    1    3    3    0    0 -0.32251087376E+02 -0.38969918524E+02  0.16292787231E+04  0.16300640922E+04  0.10000000000E+01 0.  0.
<mgrwt>
<rscale>  0 0.12500107E+03</rscale>
<asrwt>0</asrwt>
<pdfrwt beam="2">  1        4 0.29264074E-03 0.12500107E+03</pdfrwt>
<pdfrwt beam="1">  1       -4 0.31594100E+00 0.12500107E+03</pdfrwt>
<totfact> 0.91536809E+02</totfact>
</mgrwt>
</event>
<event>
 5    1  0.3277540E-002  0.1249956E+03  0.7818608E-02  0.1235076E+00
         -4   -1    0    0    0  501 -0.00000000000E+00  0.00000000000E+00  0.20185586623E+03  0.20185986137E+03  0.12700000000E+01 0. -1.
          4   -1    0    0  501    0  0.00000000000E+00 -0.00000000000E+00 -0.19325290362E+02  0.19366975695E+02  0.12700000000E+01 0. -1.
         25    2    1    2    0    0  0.00000000000E+00  0.00000000000E+00  0.18253057587E+03  0.22122683707E+03  0.12499560916E+03 0.  0.
    9000005    1    3    3    0    0 -0.11133263162E+02 -0.44289882565E+02  0.16675903934E+03  0.17290205449E+03  0.10000000000E+01 0.  0.
    9000005    1    3    3    0    0  0.11133263162E+02  0.44289882565E+02  0.15771536532E+02  0.48324782574E+02  0.10000000000E+01 0.  0.
<mgrwt>
<rscale>  0 0.12499561E+03</rscale>
<asrwt>0</asrwt>
<pdfrwt beam="2">  1        4 0.29766353E-02 0.12499561E+03</pdfrwt>
<pdfrwt beam="1">  1       -4 0.31058265E-01 0.12499561E+03</pdfrwt>
<totfact> 0.86683088E+03</totfact>
</mgrwt>
</event>
<event>
 5    1  0.3277540E-002  0.1250027E+03  0.7818608E-02  0.1235065E+00
         -4   -1    0    0    0  501 -0.00000000000E+00  0.00000000000E+00  0.17896259419E+02  0.17941265318E+02  0.12700000000E+01 0.  1.
          4   -1    0    0  501    0  0.00000000000E+00 -0.00000000000E+00 -0.21796030166E+03  0.21796400161E+03  0.12700000000E+01 0.  1.
         25    2    1    2    0    0  0.00000000000E+00  0.00000000000E+00 -0.20006404224E+03  0.23590526693E+03  0.12500269584E+03 0.  0.
    9000005    1    3    3    0    0 -0.62423829159E+02 -0.23496962613E+01 -0.10338836137E+03  0.12079904298E+03  0.10000000000E+01 0.  0.
    9000005    1    3    3    0    0  0.62423829159E+02  0.23496962613E+01 -0.96675680867E+02  0.11510622394E+03  0.10000000000E+01 0.  0.
<mgrwt>
<rscale>  0 0.12500270E+03</rscale>
<asrwt>0</asrwt>
<pdfrwt beam="2">  1        4 0.33536099E-01 0.12500270E+03</pdfrwt>
<pdfrwt beam="1">  1       -4 0.27570174E-02 0.12500270E+03</pdfrwt>
<totfact> 0.84405935E+03</totfact>
</mgrwt>
</event>
<event>
 5    1  0.3277540E-002  0.1250081E+03  0.7818608E-02  0.1235057E+00
         -4   -1    0    0    0  501 -0.00000000000E+00  0.00000000000E+00  0.54686535029E+02  0.54701279816E+02  0.12700000000E+01 0. -1.
          4   -1    0    0  501    0  0.00000000000E+00 -0.00000000000E+00 -0.71409033930E+02  0.71420326426E+02  0.12700000000E+01 0. -1.
         25    2    1    2    0    0  0.00000000000E+00  0.00000000000E+00 -0.16722498901E+02  0.12612160624E+03  0.12500807011E+03 0.  0.
    9000005    1    3    3    0    0  0.32753113711E+02 -0.12034795659E+02  0.43947980168E+02  0.56125107796E+02  0.10000000000E+01 0.  0.
    9000005    1    3    3    0    0 -0.32753113711E+02  0.12034795659E+02 -0.60670479068E+02  0.69996498446E+02  0.10000000000E+01 0.  0.
<mgrwt>
<rscale>  0 0.12500807E+03</rscale>
<asrwt>0</asrwt>
<pdfrwt beam="2">  1        4 0.10988008E-01 0.12500807E+03</pdfrwt>
<pdfrwt beam="1">  1       -4 0.84153159E-02 0.12500807E+03</pdfrwt>
<totfact> 0.10426395E+04</totfact>
</mgrwt>
</event>
<event>
 5    1  0.3277540E-002  0.1249949E+03  0.7818608E-02  0.1235077E+00
          4   -1    0    0  501    0  0.00000000000E+00  0.00000000000E+00  0.74039111693E+01  0.75120437034E+01  0.12700000000E+01 0.  1.
         -4   -1    0    0    0  501 -0.00000000000E+00 -0.00000000000E+00 -0.52361641732E+03  0.52361795747E+03  0.12700000000E+01 0.  1.
         25    2    1    2    0    0  0.00000000000E+00  0.00000000000E+00 -0.51621250615E+03  0.53113000117E+03  0.12499490646E+03 0.  0.
    9000005    1    3    3    0    0  0.52865878807E+02 -0.10535585719E+02 -0.39241983819E+03  0.39610620939E+03  0.10000000000E+01 0.  0.
    9000005    1    3    3    0    0 -0.52865878807E+02  0.10535585719E+02 -0.12379266796E+03  0.13502379178E+03  0.10000000000E+01 0.  0.
<mgrwt>
<rscale>  0 0.12499491E+03</rscale>
<asrwt>0</asrwt>
<pdfrwt beam="1">  1        4 0.11475000E-02 0.12499491E+03</pdfrwt>
<pdfrwt beam="2">  1       -4 0.80564780E-01 0.12499491E+03</pdfrwt>
<totfact> 0.53533450E+03</totfact>
</mgrwt>
</event>
<event>
 5    1  0.3277540E-002  0.1250046E+03  0.7818608E-02  0.1235062E+00
          4   -1    0    0  501    0  0.00000000000E+00  0.00000000000E+00  0.61408119336E+01  0.62707632074E+01  0.12700000000E+01 0.  1.
         -4   -1    0    0    0  501 -0.00000000000E+00 -0.00000000000E+00 -0.62936812377E+03  0.62936940514E+03  0.12700000000E+01 0.  1.
         25    2    1    2    0    0  0.00000000000E+00  0.00000000000E+00 -0.62322731184E+03  0.63564016835E+03  0.12500456547E+03 0.  0.
    9000005    1    3    3    0    0  0.35719680471E+02  0.24576810009E+02 -0.54047079635E+03  0.54220807526E+03  0.10000000000E+01 0.  0.
    9000005    1    3    3    0    0 -0.35719680471E+02 -0.24576810009E+02 -0.82756515489E+02  0.93432093089E+02  0.10000000000E+01 0.  0.
<mgrwt>
<rscale>  0 0.12500457E+03</rscale>
<asrwt>0</asrwt>
<pdfrwt beam="1">  1        4 0.95483561E-03 0.12500457E+03</pdfrwt>
<pdfrwt beam="2">  1       -4 0.96835910E-01 0.12500457E+03</pdfrwt>
<totfact> 0.46687855E+03</totfact>
</mgrwt>
</event>
<event>
 5    1  0.3277540E-002  0.1249774E+03  0.7818608E-02  0.1235105E+00
          4   -1    0    0  501    0  0.00000000000E+00  0.00000000000E+00  0.81255196862E+03  0.81255296111E+03  0.12700000000E+01 0. -1.
         -4   -1    0    0    0  501 -0.00000000000E+00 -0.00000000000E+00 -0.47207267547E+01  0.48885745461E+01  0.12700000000E+01 0. -1.
         25    2    1    2    0    0  0.00000000000E+00  0.00000000000E+00  0.80783124186E+03  0.81744153565E+03  0.12497739348E+03 0.  0.
    9000005    1    3    3    0    0  0.21178115245E+02  0.45998884697E+02  0.16453730606E+03  0.17215671652E+03  0.10000000000E+01 0.  0.
    9000005    1    3    3    0    0 -0.21178115245E+02 -0.45998884697E+02  0.64329393580E+03  0.64528481913E+03  0.10000000000E+01 0.  0.
<mgrwt>
<rscale>  0 0.12497739E+03</rscale>
<asrwt>0</asrwt>
<pdfrwt beam="1">  1        4 0.12502106E+00 0.12497739E+03</pdfrwt>
<pdfrwt beam="2">  1       -4 0.73925289E-03 0.12497739E+03</pdfrwt>
<totfact> 0.37516352E+03</totfact>
</mgrwt>
</event>
<event>
 5    1  0.3277540E-002  0.1250085E+03  0.7818608E-02  0.1235056E+00
         -4   -1    0    0    0  501 -0.00000000000E+00  0.00000000000E+00  0.15059581175E+02  0.15113036927E+02  0.12700000000E+01 0. -1.
          4   -1    0    0  501    0  0.00000000000E+00 -0.00000000000E+00 -0.25890699117E+03  0.25891010597E+03  0.12700000000E+01 0. -1.
         25    2    1    2    0    0  0.00000000000E+00  0.00000000000E+00 -0.24384740999E+03  0.27402314290E+03  0.12500849365E+03 0.  0.
    9000005    1    3    3    0    0  0.58601327262E+01  0.34918693402E+02 -0.23481089960E+03  0.23746750278E+03  0.10000000000E+01 0.  0.
    9000005    1    3    3    0    0 -0.58601327262E+01 -0.34918693402E+02 -0.90365103877E+01  0.36555640119E+02  0.10000000000E+01 0.  0.
<mgrwt>
<rscale>  0 0.12500849E+03</rscale>
<asrwt>0</asrwt>
<pdfrwt beam="2">  1        4 0.39836193E-01 0.12500849E+03</pdfrwt>
<pdfrwt beam="1">  1       -4 0.23212104E-02 0.12500849E+03</pdfrwt>
<totfact> 0.78962412E+03</totfact>
</mgrwt>
</event>
<event>
 5    1  0.3277540E-002  0.1249966E+03  0.7818608E-02  0.1235075E+00
          4   -1    0    0  501    0  0.00000000000E+00  0.00000000000E+00  0.61279835273E+03  0.61279966874E+03  0.12700000000E+01 0.  1.
         -4   -1    0    0    0  501 -0.00000000000E+00 -0.00000000000E+00 -0.63095041582E+01  0.64360502424E+01  0.12700000000E+01 0.  1.
         25    2    1    2    0    0  0.00000000000E+00  0.00000000000E+00  0.60648884857E+03  0.61923571898E+03  0.12499660884E+03 0.  0.
    9000005    1    3    3    0    0 -0.11566001571E+02  0.15569892196E+02  0.59753340861E+03  0.59784895110E+03  0.10000000000E+01 0.  0.
    9000005    1    3    3    0    0  0.11566001571E+02 -0.15569892196E+02  0.89554399653E+01  0.21386767879E+02  0.10000000000E+01 0.  0.
<mgrwt>
<rscale>  0 0.12499661E+03</rscale>
<asrwt>0</asrwt>
<pdfrwt beam="1">  1        4 0.94286490E-01 0.12499661E+03</pdfrwt>
<pdfrwt beam="2">  1       -4 0.98052865E-03 0.12499661E+03</pdfrwt>
<totfact> 0.47679029E+03</totfact>
</mgrwt>
</event>
<event>
 5    1  0.3277540E-002  0.1250008E+03  0.7818608E-02  0.1235068E+00
          4   -1    0    0  501    0  0.00000000000E+00  0.00000000000E+00  0.17292328172E+04  0.17292332836E+04  0.12700000000E+01 0.  1.
         -4   -1    0    0    0  501 -0.00000000000E+00 -0.00000000000E+00 -0.20799752027E+01  0.24370467464E+01  0.12700000000E+01 0.  1.
         25    2    1    2    0    0  0.00000000000E+00  0.00000000000E+00  0.17271528420E+04  0.17316703303E+04  0.12500077301E+03 0.  0.
    9000005    1    3    3    0    0  0.40124998661E+02 -0.46047966949E+02  0.10467686775E+04  0.10485495196E+04  0.10000000000E+01 0.  0.
    9000005    1    3    3    0    0 -0.40124998661E+02  0.46047966949E+02  0.68038416447E+03  0.68312081072E+03  0.10000000000E+01 0.  0.
<mgrwt>
<rscale>  0 0.12500077E+03</rscale>
<asrwt>0</asrwt>
<pdfrwt beam="1">  1        4 0.26606238E+00 0.12500077E+03</pdfrwt>
<pdfrwt beam="2">  1       -4 0.34750034E-03 0.12500077E+03</pdfrwt>
<totfact> 0.13785998E+03</totfact>
</mgrwt>
</event>
<event>
 5    1  0.3277540E-002  0.1250067E+03  0.7818608E-02  0.1235059E+00
          4   -1    0    0  501    0  0.00000000000E+00  0.00000000000E+00  0.10484468202E+04  0.10484475894E+04  0.12700000000E+01 0. -1.
         -4   -1    0    0    0  501 -0.00000000000E+00 -0.00000000000E+00 -0.36171404243E+01  0.38336151148E+01  0.12700000000E+01 0. -1.
         25    2    1    2    0    0  0.00000000000E+00  0.00000000000E+00  0.10448296798E+04  0.10522812045E+04  0.12500669424E+03 0.  0.
    9000005    1    3    3    0    0 -0.30943663580E+02 -0.54296903724E+02  0.52186084867E+03  0.52559053401E+03  0.10000000000E+01 0.  0.
    9000005    1    3    3    0    0  0.30943663580E+02  0.54296903724E+02  0.52296883112E+03  0.52669067050E+03  0.10000000000E+01 0.  0.
<mgrwt>
<rscale>  0 0.12500669E+03</rscale>
<asrwt>0</asrwt>
<pdfrwt beam="1">  1        4 0.16131615E+00 0.12500669E+03</pdfrwt>
<pdfrwt beam="2">  1       -4 0.57319445E-03 0.12500669E+03</pdfrwt>
<totfact> 0.28919437E+03</totfact>
</mgrwt>
</event>
<event>
 5    1  0.3277540E-002  0.1249839E+03  0.7818608E-02  0.1235094E+00
          4   -1    0    0  501    0  0.00000000000E+00  0.00000000000E+00  0.65356989663E+02  0.65369327653E+02  0.12700000000E+01 0. -1.
         -4   -1    0    0    0  501 -0.00000000000E+00 -0.00000000000E+00 -0.59727801922E+02  0.59741302483E+02  0.12700000000E+01 0. -1.
         25    2    1    2    0    0  0.00000000000E+00  0.00000000000E+00  0.56291877412E+01  0.12511063014E+03  0.12498392704E+03 0.  0.
    9000005    1    3    3    0    0 -0.20544704204E+02  0.31928688109E+02 -0.46861509332E+02  0.60320204343E+02  0.10000000000E+01 0.  0.
    9000005    1    3    3    0    0  0.20544704204E+02 -0.31928688109E+02  0.52490697073E+02  0.64790425793E+02  0.10000000000E+01 0.  0.
<mgrwt>
<rscale>  0 0.12498393E+03</rscale>
<asrwt>0</asrwt>
<pdfrwt beam="1">  1        4 0.10056909E-01 0.12498393E+03</pdfrwt>
<pdfrwt beam="2">  1       -4 0.91908802E-02 0.12498393E+03</pdfrwt>
<totfact> 0.10454257E+04</totfact>
</mgrwt>
</event>
<event>
 5    1  0.3277540E-002  0.1250070E+03  0.7818608E-02  0.1235058E+00
         -4   -1    0    0    0  501 -0.00000000000E+00  0.00000000000E+00  0.32002249213E+02  0.32027439091E+02  0.12700000000E+01 0. -1.
          4   -1    0    0  501    0  0.00000000000E+00 -0.00000000000E+00 -0.12199896259E+03  0.12200557271E+03  0.12700000000E+01 0. -1.
         25    2    1    2    0    0  0.00000000000E+00  0.00000000000E+00 -0.89996713376E+02  0.15403301180E+03  0.12500704103E+03 0.  0.
    9000005    1    3    3    0    0 -0.26723769458E+02  0.10420685894E+02  0.23418297987E+02  0.37042775667E+02  0.10000000000E+01 0.  0.
    9000005    1    3    3    0    0  0.26723769458E+02 -0.10420685894E+02 -0.11341501136E+03  0.11699023614E+03  0.10000000000E+01 0.  0.
<mgrwt>
<rscale>  0 0.12500704E+03</rscale>
<asrwt>0</asrwt>
<pdfrwt beam="2">  1        4 0.18771517E-01 0.12500704E+03</pdfrwt>
<pdfrwt beam="1">  1       -4 0.49258692E-02 0.12500704E+03</pdfrwt>
<totfact> 0.98490067E+03</totfact>
</mgrwt>
</event>
<event>
 5    1  0.3277540E-002  0.1249995E+03  0.7818608E-02  0.1235070E+00
         -4   -1    0    0    0  501 -0.00000000000E+00  0.00000000000E+00  0.15713751370E+02  0.15764989126E+02  0.12700000000E+01 0. -1.
          4   -1    0    0  501    0  0.00000000000E+00 -0.00000000000E+00 -0.24812853629E+03  0.24813178640E+03  0.12700000000E+01 0. -1.
         25    2    1    2    0    0  0.00000000000E+00  0.00000000000E+00 -0.23241478492E+03  0.26389677553E+03  0.12499950353E+03 0.  0.
    9000005    1    3    3    0    0  0.58258351650E+02  0.17511676748E+02 -0.14639985830E+03  0.15853899479E+03  0.10000000000E+01 0.  0.
    9000005    1    3    3    0    0 -0.58258351650E+02 -0.17511676748E+02 -0.86014926621E+02  0.10535778073E+03  0.10000000000E+01 0.  0.
<mgrwt>
<rscale>  0 0.12499950E+03</rscale>
<asrwt>0</asrwt>
<pdfrwt beam="2">  1        4 0.38177809E-01 0.12499950E+03</pdfrwt>
<pdfrwt beam="1">  1       -4 0.24216918E-02 0.12499950E+03</pdfrwt>
<totfact> 0.80363184E+03</totfact>
</mgrwt>
</event>
<event>
 5    1  0.3277540E-002  0.1250011E+03  0.7818608E-02  0.1235068E+00
          4   -1    0    0  501    0  0.00000000000E+00  0.00000000000E+00  0.38092504802E+02  0.38113669753E+02  0.12700000000E+01 0.  1.
         -4   -1    0    0    0  501 -0.00000000000E+00 -0.00000000000E+00 -0.10249470822E+03  0.10250257613E+03  0.12700000000E+01 0.  1.
         25    2    1    2    0    0  0.00000000000E+00  0.00000000000E+00 -0.64402203415E+02  0.14061624588E+03  0.12500113920E+03 0.  0.
    9000005    1    3    3    0    0  0.35659433538E+02 -0.47483979994E+02 -0.54100883275E+02  0.80338217104E+02  0.10000000000E+01 0.  0.
    9000005    1    3    3    0    0 -0.35659433538E+02  0.47483979994E+02 -0.10301320140E+02  0.60278028775E+02  0.10000000000E+01 0.  0.
<mgrwt>
<rscale>  0 0.12500114E+03</rscale>
<asrwt>0</asrwt>
<pdfrwt beam="1">  1        4 0.58626187E-02 0.12500114E+03</pdfrwt>
<pdfrwt beam="2">  1       -4 0.15770650E-01 0.12500114E+03</pdfrwt>
<totfact> 0.10120570E+04</totfact>
</mgrwt>
</event>
<event>
 5    1  0.3277540E-002  0.1249982E+03  0.7818608E-02  0.1235072E+00
         -4   -1    0    0    0  501 -0.00000000000E+00  0.00000000000E+00  0.25623582901E+01  0.28598216739E+01  0.12700000000E+01 0.  1.
          4   -1    0    0  501    0  0.00000000000E+00 -0.00000000000E+00 -0.14405012587E+04  0.14405018185E+04  0.12700000000E+01 0.  1.
         25    2    1    2    0    0  0.00000000000E+00  0.00000000000E+00 -0.14379389004E+04  0.14433616402E+04  0.12499817250E+03 0.  0.
    9000005    1    3    3    0    0  0.15529991997E+01 -0.13627686885E+02 -0.14976406979E+02  0.20332693436E+02  0.10000000000E+01 0.  0.
    9000005    1    3    3    0    0 -0.15529991997E+01  0.13627686885E+02 -0.14229624934E+04  0.14230289467E+04  0.10000000000E+01 0.  0.
<mgrwt>
<rscale>  0 0.12499817E+03</rscale>
<asrwt>0</asrwt>
<pdfrwt beam="2">  1        4 0.22163789E+00 0.12499817E+03</pdfrwt>
<pdfrwt beam="1">  1       -4 0.41713498E-03 0.12499817E+03</pdfrwt>
<totfact> 0.19069953E+03</totfact>
</mgrwt>
</event>
<event>
 5    1  0.3277540E-002  0.1249829E+03  0.7818608E-02  0.1235096E+00
         -4   -1    0    0    0  501 -0.00000000000E+00  0.00000000000E+00  0.66415277274E+02  0.66427418702E+02  0.12700000000E+01 0. -1.
          4   -1    0    0  501    0  0.00000000000E+00 -0.00000000000E+00 -0.58775044735E+02  0.58788764094E+02  0.12700000000E+01 0. -1.
         25    2    1    2    0    0  0.00000000000E+00  0.00000000000E+00  0.76402325390E+01  0.12521618280E+03  0.12498287595E+03 0.  0.
    9000005    1    3    3    0    0 -0.48538680971E+02  0.32584285696E+02  0.25916685643E+02  0.63956343074E+02  0.10000000000E+01 0.  0.
    9000005    1    3    3    0    0  0.48538680971E+02 -0.32584285696E+02 -0.18276453104E+02  0.61259839722E+02  0.10000000000E+01 0.  0.
<mgrwt>
<rscale>  0 0.12498288E+03</rscale>
<asrwt>0</asrwt>
<pdfrwt beam="2">  1        4 0.90443039E-02 0.12498288E+03</pdfrwt>
<pdfrwt beam="1">  1       -4 0.10219724E-01 0.12498288E+03</pdfrwt>
<totfact> 0.10452213E+04</totfact>
</mgrwt>
</event>
<event>
 5    1  0.3277540E-002  0.1250001E+03  0.7818608E-02  0.1235069E+00
         -4   -1    0    0    0  501 -0.00000000000E+00  0.00000000000E+00  0.76522501781E+02  0.76533039786E+02  0.12700000000E+01 0. -1.
          4   -1    0    0  501    0  0.00000000000E+00 -0.00000000000E+00 -0.51025222776E+02  0.51041025257E+02  0.12700000000E+01 0. -1.
         25    2    1    2    0    0  0.00000000000E+00  0.00000000000E+00  0.25497279006E+02  0.12757406504E+03  0.12500012334E+03 0.  0.
    9000005    1    3    3    0    0 -0.15520638704E+02 -0.50009261907E+02  0.47560254632E+02  0.70744570978E+02  0.10000000000E+01 0.  0.
    9000005    1    3    3    0    0  0.15520638704E+02  0.50009261907E+02 -0.22062975626E+02  0.56829494065E+02  0.10000000000E+01 0.  0.
<mgrwt>
<rscale>  0 0.12500012E+03</rscale>
<asrwt>0</asrwt>
<pdfrwt beam="2">  1        4 0.78520605E-02 0.12500012E+03</pdfrwt>
<pdfrwt beam="1">  1       -4 0.11774719E-01 0.12500012E+03</pdfrwt>
<totfact> 0.10396668E+04</totfact>
</mgrwt>
</event>
<event>
 5    1  0.3277540E-002  0.1249641E+03  0.7818608E-02  0.1235125E+00
          4   -1    0    0  501    0  0.00000000000E+00  0.00000000000E+00  0.27111464287E+02  0.27141193706E+02  0.12700000000E+01 0. -1.
         -4   -1    0    0    0  501 -0.00000000000E+00 -0.00000000000E+00 -0.14388687948E+03  0.14389248412E+03  0.12700000000E+01 0. -1.
         25    2    1    2    0    0  0.00000000000E+00  0.00000000000E+00 -0.11677541520E+03  0.17103367783E+03  0.12496408027E+03 0.  0.
    9000005    1    3    3    0    0 -0.59175084645E+01 -0.46796599910E+02 -0.11445389744E+03  0.12379674192E+03  0.10000000000E+01 0.  0.
    9000005    1    3    3    0    0  0.59175084645E+01  0.46796599910E+02 -0.23215177518E+01  0.47236935911E+02  0.10000000000E+01 0.  0.
<mgrwt>
<rscale>  0 0.12496408E+03</rscale>
<asrwt>0</asrwt>
<pdfrwt beam="1">  1        4 0.41737126E-02 0.12496408E+03</pdfrwt>
<pdfrwt beam="2">  1       -4 0.22139161E-01 0.12496408E+03</pdfrwt>
<totfact> 0.95333153E+03</totfact>
</mgrwt>
</event>
<event>
 5    1  0.3277540E-002  0.1250345E+03  0.7818608E-02  0.1235015E+00
          4   -1    0    0  501    0  0.00000000000E+00  0.00000000000E+00  0.52951544766E+02  0.52966772538E+02  0.12700000000E+01 0.  1.
         -4   -1    0    0    0  501 -0.00000000000E+00 -0.00000000000E+00 -0.73779704519E+02  0.73790634223E+02  0.12700000000E+01 0.  1.
         25    2    1    2    0    0  0.00000000000E+00  0.00000000000E+00 -0.20828159754E+02  0.12675740676E+03  0.12503450696E+03 0.  0.
    9000005    1    3    3    0    0 -0.10902348598E+02  0.55712851383E+00 -0.72810825338E+02  0.73631432714E+02  0.10000000000E+01 0.  0.
    9000005    1    3    3    0    0  0.10902348598E+02 -0.55712851383E+00  0.51982665584E+02  0.53125974046E+02  0.10000000000E+01 0.  0.
<mgrwt>
<rscale>  0 0.12503451E+03</rscale>
<asrwt>0</asrwt>
<pdfrwt beam="1">  1        4 0.81484036E-02 0.12503451E+03</pdfrwt>
<pdfrwt beam="2">  1       -4 0.11352736E-01 0.12503451E+03</pdfrwt>
<totfact> 0.10406313E+04</totfact>
</mgrwt>
</event>
<event>
 5    1  0.3277540E-002  0.1249961E+03  0.7818608E-02  0.1235075E+00
         -4   -1    0    0    0  501 -0.00000000000E+00  0.00000000000E+00  0.70992711685E+01  0.72119727623E+01  0.12700000000E+01 0. -1.
          4   -1    0    0  501    0  0.00000000000E+00 -0.00000000000E+00 -0.54575177005E+03  0.54575324774E+03  0.12700000000E+01 0. -1.
         25    2    1    2    0    0  0.00000000000E+00  0.00000000000E+00 -0.53865249888E+03  0.55296522050E+03  0.12499608205E+03 0.  0.
    9000005    1    3    3    0    0  0.42987434429E+00  0.12398357787E+02  0.16185370992E+01  0.12550845792E+02  0.10000000000E+01 0.  0.
    9000005    1    3    3    0    0 -0.42987434429E+00 -0.12398357787E+02 -0.54027103598E+03  0.54041437471E+03  0.10000000000E+01 0.  0.
<mgrwt>
<rscale>  0 0.12499608E+03</rscale>
<asrwt>0</asrwt>
<pdfrwt beam="2">  1        4 0.83970561E-01 0.12499608E+03</pdfrwt>
<pdfrwt beam="1">  1       -4 0.11009790E-02 0.12499608E+03</pdfrwt>
<totfact> 0.51982360E+03</totfact>
</mgrwt>
</event>
<event>
 5    1  0.3277540E-002  0.1250119E+03  0.7818608E-02  0.1235051E+00
         -4   -1    0    0    0  501 -0.00000000000E+00  0.00000000000E+00  0.14675649021E+02  0.14730498097E+02  0.12700000000E+01 0. -1.
          4   -1    0    0  501    0  0.00000000000E+00 -0.00000000000E+00 -0.26566997558E+03  0.26567301109E+03  0.12700000000E+01 0. -1.
         25    2    1    2    0    0  0.00000000000E+00  0.00000000000E+00 -0.25099432655E+03  0.28040350919E+03  0.12501190344E+03 0.  0.
    9000005    1    3    3    0    0  0.30894921083E+02  0.54058639762E+02 -0.11338461115E+03  0.12935958692E+03  0.10000000000E+01 0.  0.
    9000005    1    3    3    0    0 -0.30894921083E+02 -0.54058639762E+02 -0.13760971540E+03  0.15104392227E+03  0.10000000000E+01 0.  0.
<mgrwt>
<rscale>  0 0.12501190E+03</rscale>
<asrwt>0</asrwt>
<pdfrwt beam="2">  1        4 0.40876753E-01 0.12501190E+03</pdfrwt>
<pdfrwt beam="1">  1       -4 0.22622450E-02 0.12501190E+03</pdfrwt>
<totfact> 0.78103968E+03</totfact>
</mgrwt>
</event>
<event>
 5    1  0.3277540E-002  0.1250006E+03  0.7818608E-02  0.1235068E+00
          4   -1    0    0  501    0  0.00000000000E+00  0.00000000000E+00  0.22481781217E+01  0.25820931174E+01  0.12700000000E+01 0. -1.
         -4   -1    0    0    0  501 -0.00000000000E+00 -0.00000000000E+00 -0.16170863127E+04  0.16170868114E+04  0.12700000000E+01 0. -1.
         25    2    1    2    0    0  0.00000000000E+00  0.00000000000E+00 -0.16148381346E+04  0.16196689045E+04  0.12500063756E+03 0.  0.
    9000005    1    3    3    0    0  0.16264864808E+02  0.18534649889E+02 -0.15514437981E+04  0.15516400800E+04  0.10000000000E+01 0.  0.
    9000005    1    3    3    0    0 -0.16264864808E+02 -0.18534649889E+02 -0.63394336454E+02  0.68028824539E+02  0.10000000000E+01 0.  0.
<mgrwt>
<rscale>  0 0.12500064E+03</rscale>
<asrwt>0</asrwt>
<pdfrwt beam="1">  1        4 0.37159898E-03 0.12500064E+03</pdfrwt>
<pdfrwt beam="2">  1       -4 0.24880737E+00 0.12500064E+03</pdfrwt>
<totfact> 0.15693073E+03</totfact>
</mgrwt>
</event>
<event>
 5    1  0.3277540E-002  0.1250028E+03  0.7818608E-02  0.1235065E+00
          4   -1    0    0  501    0  0.00000000000E+00  0.00000000000E+00  0.27456719288E+03  0.27457013004E+03  0.12700000000E+01 0. -1.
         -4   -1    0    0    0  501 -0.00000000000E+00 -0.00000000000E+00 -0.14196205421E+02  0.14252899647E+02  0.12700000000E+01 0. -1.
         25    2    1    2    0    0  0.00000000000E+00  0.00000000000E+00  0.26037098746E+03  0.28882302968E+03  0.12500276542E+03 0.  0.
    9000005    1    3    3    0    0  0.58625371637E+02  0.21628321198E+02  0.13212463993E+03  0.14615963517E+03  0.10000000000E+01 0.  0.
    9000005    1    3    3    0    0 -0.58625371637E+02 -0.21628321198E+02  0.12824634754E+03  0.14266339451E+03  0.10000000000E+01 0.  0.
<mgrwt>
<rscale>  0 0.12500277E+03</rscale>
<asrwt>0</asrwt>
<pdfrwt beam="1">  1        4 0.42245691E-01 0.12500277E+03</pdfrwt>
<pdfrwt beam="2">  1       -4 0.21886188E-02 0.12500277E+03</pdfrwt>
<totfact> 0.77017862E+03</totfact>
</mgrwt>
</event>
<event>
 5    1  0.3277540E-002  0.1249932E+03  0.7818608E-02  0.1235080E+00
          4   -1    0    0  501    0  0.00000000000E+00  0.00000000000E+00  0.71583719536E+01  0.72701574278E+01  0.12700000000E+01 0.  1.
         -4   -1    0    0    0  501 -0.00000000000E+00 -0.00000000000E+00 -0.54129023280E+03  0.54129172266E+03  0.12700000000E+01 0.  1.
         25    2    1    2    0    0  0.00000000000E+00  0.00000000000E+00 -0.53413186084E+03  0.54856188009E+03  0.12499316589E+03 0.  0.
    9000005    1    3    3    0    0 -0.35678983965E+02  0.49756433380E+02 -0.21222775684E+03  0.22088529452E+03  0.10000000000E+01 0.  0.
    9000005    1    3    3    0    0  0.35678983965E+02 -0.49756433380E+02 -0.32190410400E+03  0.32767658557E+03  0.10000000000E+01 0.  0.
<mgrwt>
<rscale>  0 0.12499317E+03</rscale>
<asrwt>0</asrwt>
<pdfrwt beam="1">  1        4 0.11100019E-02 0.12499317E+03</pdfrwt>
<pdfrwt beam="2">  1       -4 0.83284102E-01 0.12499317E+03</pdfrwt>
<totfact> 0.52292174E+03</totfact>
</mgrwt>
</event>
<event>
 5    1  0.3277540E-002  0.1249884E+03  0.7818608E-02  0.1235087E+00
         -4   -1    0    0    0  501 -0.00000000000E+00  0.00000000000E+00  0.43541401123E+03  0.43541586337E+03  0.12700000000E+01 0. -1.
          4   -1    0    0  501    0  0.00000000000E+00 -0.00000000000E+00 -0.89228446765E+01  0.90127718889E+01  0.12700000000E+01 0. -1.
         25    2    1    2    0    0  0.00000000000E+00  0.00000000000E+00  0.42649116655E+03  0.44442863526E+03  0.12498838622E+03 0.  0.
    9000005    1    3    3    0    0  0.83277832768E+01 -0.17265059029E+02  0.17723409611E+01  0.19276291917E+02  0.10000000000E+01 0.  0.
    9000005    1    3    3    0    0 -0.83277832768E+01  0.17265059029E+02  0.42471882559E+03  0.42515234334E+03  0.10000000000E+01 0.  0.
<mgrwt>
<rscale>  0 0.12498839E+03</rscale>
<asrwt>0</asrwt>
<pdfrwt beam="2">  1        4 0.13798056E-02 0.12498839E+03</pdfrwt>
<pdfrwt beam="1">  1       -4 0.66993818E-01 0.12498839E+03</pdfrwt>
<totfact> 0.60464975E+03</totfact>
</mgrwt>
</event>
<event>
 5    1  0.3277540E-002  0.1250160E+03  0.7818608E-02  0.1235044E+00
         -4   -1    0    0    0  501 -0.00000000000E+00  0.00000000000E+00  0.51753929276E+03  0.51754085100E+03  0.12700000000E+01 0.  1.
          4   -1    0    0  501    0  0.00000000000E+00 -0.00000000000E+00 -0.74946789766E+01  0.76015204376E+01  0.12700000000E+01 0.  1.
         25    2    1    2    0    0  0.00000000000E+00  0.00000000000E+00  0.51004461379E+03  0.52514237144E+03  0.12501600788E+03 0.  0.
    9000005    1    3    3    0    0  0.12324595861E+02  0.60900277546E+02  0.22668425149E+03  0.23504784479E+03  0.10000000000E+01 0.  0.
    9000005    1    3    3    0    0 -0.12324595861E+02 -0.60900277546E+02  0.28336036230E+03  0.29009452665E+03  0.10000000000E+01 0.  0.
<mgrwt>
<rscale>  0 0.12501601E+03</rscale>
<asrwt>0</asrwt>
<pdfrwt beam="2">  1        4 0.11613659E-02 0.12501601E+03</pdfrwt>
<pdfrwt beam="1">  1       -4 0.79629771E-01 0.12501601E+03</pdfrwt>
<totfact> 0.53946089E+03</totfact>
</mgrwt>
</event>
<event>
 5    1  0.3277540E-002  0.1249991E+03  0.7818608E-02  0.1235071E+00
          4   -1    0    0  501    0  0.00000000000E+00  0.00000000000E+00  0.52327771371E+03  0.52327925486E+03  0.12700000000E+01 0. -1.
         -4   -1    0    0    0  501 -0.00000000000E+00 -0.00000000000E+00 -0.74092765610E+01  0.75173319175E+01  0.12700000000E+01 0. -1.
         25    2    1    2    0    0  0.00000000000E+00  0.00000000000E+00  0.51586843715E+03  0.53079658677E+03  0.12499908834E+03 0.  0.
    9000005    1    3    3    0    0 -0.30925661486E+02  0.54301819459E+02  0.25653299046E+03  0.26403647348E+03  0.10000000000E+01 0.  0.
    9000005    1    3    3    0    0  0.30925661486E+02 -0.54301819459E+02  0.25933544669E+03  0.26676011329E+03  0.10000000000E+01 0.  0.
<mgrwt>
<rscale>  0 0.12499909E+03</rscale>
<asrwt>0</asrwt>
<pdfrwt beam="1">  1        4 0.80512696E-01 0.12499909E+03</pdfrwt>
<pdfrwt beam="2">  1       -4 0.11483192E-02 0.12499909E+03</pdfrwt>
<totfact> 0.53552743E+03</totfact>
</mgrwt>
</event>
<event>
 5    1  0.3277540E-002  0.1249960E+03  0.7818608E-02  0.1235076E+00
          4   -1    0    0  501    0  0.00000000000E+00  0.00000000000E+00  0.21182486044E+02  0.21220523438E+02  0.12700000000E+01 0.  1.
         -4   -1    0    0    0  501 -0.00000000000E+00 -0.00000000000E+00 -0.18419191032E+03  0.18419628859E+03  0.12700000000E+01 0.  1.
         25    2    1    2    0    0  0.00000000000E+00  0.00000000000E+00 -0.16300942428E+03  0.20541681203E+03  0.12499597697E+03 0.  0.
    9000005    1    3    3    0    0  0.16305480117E+02  0.52794508584E+02 -0.12946994386E+03  0.14077142885E+03  0.10000000000E+01 0.  0.
    9000005    1    3    3    0    0 -0.16305480117E+02 -0.52794508584E+02 -0.33539480422E+02  0.64645383171E+02  0.10000000000E+01 0.  0.
<mgrwt>
<rscale>  0 0.12499598E+03</rscale>
<asrwt>0</asrwt>
<pdfrwt beam="1">  1        4 0.32621069E-02 0.12499598E+03</pdfrwt>
<pdfrwt beam="2">  1       -4 0.28340479E-01 0.12499598E+03</pdfrwt>
<totfact> 0.89237918E+03</totfact>
</mgrwt>
</event>
<event>
 5    1  0.3277540E-002  0.1250038E+03  0.7818608E-02  0.1235063E+00
         -4   -1    0    0    0  501 -0.00000000000E+00  0.00000000000E+00  0.25273830648E+03  0.25274149731E+03  0.12700000000E+01 0. -1.
          4   -1    0    0  501    0  0.00000000000E+00 -0.00000000000E+00 -0.15427255904E+02  0.15479442003E+02  0.12700000000E+01 0. -1.
         25    2    1    2    0    0  0.00000000000E+00  0.00000000000E+00  0.23731105058E+03  0.26822093932E+03  0.12500375019E+03 0.  0.
    9000005    1    3    3    0    0 -0.22648752506E+02  0.30297802646E+02  0.11917597419E+02  0.39673063450E+02  0.10000000000E+01 0.  0.
    9000005    1    3    3    0    0  0.22648752506E+02 -0.30297802646E+02  0.22539345316E+03  0.22854787587E+03  0.10000000000E+01 0.  0.
<mgrwt>
<rscale>  0 0.12500375E+03</rscale>
<asrwt>0</asrwt>
<pdfrwt beam="2">  1        4 0.23776836E-02 0.12500375E+03</pdfrwt>
<pdfrwt beam="1">  1       -4 0.38887079E-01 0.12500375E+03</pdfrwt>
<totfact> 0.79759377E+03</totfact>
</mgrwt>
</event>
<event>
 5    1  0.3277540E-002  0.1250038E+03  0.7818608E-02  0.1235063E+00
         -4   -1    0    0    0  501 -0.00000000000E+00  0.00000000000E+00  0.11791463920E+02  0.11859659413E+02  0.12700000000E+01 0.  1.
          4   -1    0    0  501    0  0.00000000000E+00 -0.00000000000E+00 -0.33027334184E+03  0.33027578360E+03  0.12700000000E+01 0.  1.
         25    2    1    2    0    0  0.00000000000E+00  0.00000000000E+00 -0.31848187792E+03  0.34213544301E+03  0.12500381914E+03 0.  0.
    9000005    1    3    3    0    0  0.88489764448E+01 -0.59534276456E+02 -0.11320933231E+03  0.12821851418E+03  0.10000000000E+01 0.  0.
    9000005    1    3    3    0    0 -0.88489764448E+01  0.59534276456E+02 -0.20527254561E+03  0.21391692883E+03  0.10000000000E+01 0.  0.
<mgrwt>
<rscale>  0 0.12500382E+03</rscale>
<asrwt>0</asrwt>
<pdfrwt beam="2">  1        4 0.50816710E-01 0.12500382E+03</pdfrwt>
<pdfrwt beam="1">  1       -4 0.18195053E-02 0.12500382E+03</pdfrwt>
<totfact> 0.70592541E+03</totfact>
</mgrwt>
</event>
<event>
 5    1  0.3277540E-002  0.1250009E+03  0.7818608E-02  0.1235068E+00
         -4   -1    0    0    0  501 -0.00000000000E+00  0.00000000000E+00  0.70817569990E+02  0.70828956785E+02  0.12700000000E+01 0. -1.
          4   -1    0    0  501    0  0.00000000000E+00 -0.00000000000E+00 -0.55136958207E+02  0.55151582573E+02  0.12700000000E+01 0. -1.
         25    2    1    2    0    0  0.00000000000E+00  0.00000000000E+00  0.15680611783E+02  0.12598053936E+03  0.12500085884E+03 0.  0.
    9000005    1    3    3    0    0  0.27694411350E+02 -0.19126272863E+02  0.60907600094E+02  0.69595477460E+02  0.10000000000E+01 0.  0.
    9000005    1    3    3    0    0 -0.27694411350E+02  0.19126272863E+02 -0.45226988311E+02  0.56385061899E+02  0.10000000000E+01 0.  0.
<mgrwt>
<rscale>  0 0.12500086E+03</rscale>
<asrwt>0</asrwt>
<pdfrwt beam="2">  1        4 0.84846098E-02 0.12500086E+03</pdfrwt>
<pdfrwt beam="1">  1       -4 0.10897012E-01 0.12500086E+03</pdfrwt>
<totfact> 0.10431181E+04</totfact>
</mgrwt>
</event>
<event>
 5    1  0.3277540E-002  0.1249982E+03  0.7818608E-02  0.1235072E+00
         -4   -1    0    0    0  501 -0.00000000000E+00  0.00000000000E+00  0.74576325321E+01  0.75649972230E+01  0.12700000000E+01 0. -1.
          4   -1    0    0  501    0  0.00000000000E+00 -0.00000000000E+00 -0.51992563754E+03  0.51992718862E+03  0.12700000000E+01 0. -1.
         25    2    1    2    0    0  0.00000000000E+00  0.00000000000E+00 -0.51246800501E+03  0.52749218585E+03  0.12499819988E+03 0.  0.
    9000005    1    3    3    0    0 -0.94580244288E+01  0.52850978137E+02 -0.12129581320E+03  0.13265125109E+03  0.10000000000E+01 0.  0.
    9000005    1    3    3    0    0  0.94580244288E+01 -0.52850978137E+02 -0.39117219180E+03  0.39484093475E+03  0.10000000000E+01 0.  0.
<mgrwt>
<rscale>  0 0.12499820E+03</rscale>
<asrwt>0</asrwt>
<pdfrwt beam="2">  1        4 0.79996910E-01 0.12499820E+03</pdfrwt>
<pdfrwt beam="1">  1       -4 0.11557066E-02 0.12499820E+03</pdfrwt>
<totfact> 0.53794809E+03</totfact>
</mgrwt>
</event>
<event>
 5    1  0.3277540E-002  0.1249975E+03  0.7818608E-02  0.1235073E+00
         -4   -1    0    0    0  501 -0.00000000000E+00  0.00000000000E+00  0.42021520259E+02  0.42040707236E+02  0.12700000000E+01 0. -1.
          4   -1    0    0  501    0  0.00000000000E+00 -0.00000000000E+00 -0.92909866852E+02  0.92918546364E+02  0.12700000000E+01 0. -1.
         25    2    1    2    0    0  0.00000000000E+00  0.00000000000E+00 -0.50888346592E+02  0.13495925360E+03  0.12499750523E+03 0.  0.
    9000005    1    3    3    0    0 -0.24270226120E+02 -0.36180762539E+02 -0.73814084787E+02  0.85718204407E+02  0.10000000000E+01 0.  0.
    9000005    1    3    3    0    0  0.24270226120E+02  0.36180762539E+02  0.22925738195E+02  0.49241049193E+02  0.10000000000E+01 0.  0.
<mgrwt>
<rscale>  0 0.12499751E+03</rscale>
<asrwt>0</asrwt>
<pdfrwt beam="2">  1        4 0.14295969E-01 0.12499751E+03</pdfrwt>
<pdfrwt beam="1">  1       -4 0.64669929E-02 0.12499751E+03</pdfrwt>
<totfact> 0.10239506E+04</totfact>
</mgrwt>
</event>
<event>
 5    1  0.3277540E-002  0.1250008E+03  0.7818608E-02  0.1235068E+00
          4   -1    0    0  501    0  0.00000000000E+00  0.00000000000E+00  0.91400779621E+02  0.91409602424E+02  0.12700000000E+01 0. -1.
         -4   -1    0    0    0  501 -0.00000000000E+00 -0.00000000000E+00 -0.42717842777E+02  0.42736717136E+02  0.12700000000E+01 0. -1.
         25    2    1    2    0    0  0.00000000000E+00  0.00000000000E+00  0.48682936843E+02  0.13414631956E+03  0.12500082684E+03 0.  0.
    9000005    1    3    3    0    0  0.60682383763E+02  0.29988121509E+01  0.86440139537E+01  0.61376408747E+02  0.10000000000E+01 0.  0.
    9000005    1    3    3    0    0 -0.60682383763E+02 -0.29988121509E+01  0.40038922890E+02  0.72769910812E+02  0.10000000000E+01 0.  0.
<mgrwt>
<rscale>  0 0.12500083E+03</rscale>
<asrwt>0</asrwt>
<pdfrwt beam="1">  1        4 0.14063789E-01 0.12500083E+03</pdfrwt>
<pdfrwt beam="2">  1       -4 0.65741064E-02 0.12500083E+03</pdfrwt>
<totfact> 0.10255904E+04</totfact>
</mgrwt>
</event>
<event>
 5    1  0.3277540E-002  0.1250006E+03  0.7818608E-02  0.1235068E+00
          4   -1    0    0  501    0  0.00000000000E+00  0.00000000000E+00  0.17332742569E+04  0.17332747222E+04  0.12700000000E+01 0.  1.
         -4   -1    0    0    0  501 -0.00000000000E+00 -0.00000000000E+00 -0.20742849185E+01  0.24321919996E+01  0.12700000000E+01 0.  1.
         25    2    1    2    0    0  0.00000000000E+00  0.00000000000E+00  0.17311999720E+04  0.17357069142E+04  0.12500059570E+03 0.  0.
    9000005    1    3    3    0    0 -0.60019829719E+02  0.42961937131E+01  0.63141056469E+03  0.63427213280E+03  0.10000000000E+01 0.  0.
    9000005    1    3    3    0    0  0.60019829719E+02 -0.42961937131E+01  0.10997894073E+04  0.11014347814E+04  0.10000000000E+01 0.  0.
<mgrwt>
<rscale>  0 0.12500060E+03</rscale>
<asrwt>0</asrwt>
<pdfrwt beam="1">  1        4 0.26668452E+00 0.12500060E+03</pdfrwt>
<pdfrwt beam="2">  1       -4 0.34668868E-03 0.12500060E+03</pdfrwt>
<totfact> 0.13720376E+03</totfact>
</mgrwt>
</event>
<event>
 5    1  0.3277540E-002  0.1249975E+03  0.7818608E-02  0.1235073E+00
          4   -1    0    0  501    0  0.00000000000E+00  0.00000000000E+00  0.80834382413E+01  0.81825957862E+01  0.12700000000E+01 0. -1.
         -4   -1    0    0    0  501 -0.00000000000E+00 -0.00000000000E+00 -0.48017580630E+03  0.48017748579E+03  0.12700000000E+01 0. -1.
         25    2    1    2    0    0  0.00000000000E+00  0.00000000000E+00 -0.47209236806E+03  0.48836008158E+03  0.12499746115E+03 0.  0.
    9000005    1    3    3    0    0  0.17932110307E+02  0.59847390049E+02 -0.23077446878E+03  0.23908393112E+03  0.10000000000E+01 0.  0.
    9000005    1    3    3    0    0 -0.17932110307E+02 -0.59847390049E+02 -0.24131789928E+03  0.24927615046E+03  0.10000000000E+01 0.  0.
<mgrwt>
<rscale>  0 0.12499746E+03</rscale>
<asrwt>0</asrwt>
<pdfrwt beam="1">  1        4 0.12513630E-02 0.12499746E+03</pdfrwt>
<pdfrwt beam="2">  1       -4 0.73880936E-01 0.12499746E+03</pdfrwt>
<totfact> 0.56782108E+03</totfact>
</mgrwt>
</event>
<event>
 5    1  0.3277540E-002  0.1250006E+03  0.7818608E-02  0.1235068E+00
          4   -1    0    0  501    0  0.00000000000E+00  0.00000000000E+00  0.37537843322E+03  0.37538058158E+03  0.12700000000E+01 0.  1.
         -4   -1    0    0    0  501 -0.00000000000E+00 -0.00000000000E+00 -0.10365335357E+02  0.10442848130E+02  0.12700000000E+01 0.  1.
         25    2    1    2    0    0  0.00000000000E+00  0.00000000000E+00  0.36501309787E+03  0.38582342971E+03  0.12500062920E+03 0.  0.
    9000005    1    3    3    0    0 -0.16064436706E+02 -0.51442857288E+02  0.28015427112E+03  0.28529256794E+03  0.10000000000E+01 0.  0.
    9000005    1    3    3    0    0  0.16064436706E+02  0.51442857288E+02  0.84858826747E+02  0.10053086178E+03  0.10000000000E+01 0.  0.
<mgrwt>
<rscale>  0 0.12500063E+03</rscale>
<asrwt>0</asrwt>
<pdfrwt beam="1">  1        4 0.57756655E-01 0.12500063E+03</pdfrwt>
<pdfrwt beam="2">  1       -4 0.16007948E-02 0.12500063E+03</pdfrwt>
<totfact> 0.65954423E+03</totfact>
</mgrwt>
</event>
<event>
 5    1  0.3277540E-002  0.1250212E+03  0.7818608E-02  0.1235036E+00
          4   -1    0    0  501    0  0.00000000000E+00  0.00000000000E+00  0.11825555570E+02  0.11893555588E+02  0.12700000000E+01 0. -1.
         -4   -1    0    0    0  501 -0.00000000000E+00 -0.00000000000E+00 -0.32941801468E+03  0.32942046278E+03  0.12700000000E+01 0. -1.
         25    2    1    2    0    0  0.00000000000E+00  0.00000000000E+00 -0.31759245911E+03  0.34131401836E+03  0.12502115440E+03 0.  0.
    9000005    1    3    3    0    0  0.52480773387E+02 -0.33174319313E+02 -0.17844599646E+03  0.18894110376E+03  0.10000000000E+01 0.  0.
    9000005    1    3    3    0    0 -0.52480773387E+02  0.33174319313E+02 -0.13914646265E+03  0.15237291461E+03  0.10000000000E+01 0.  0.
<mgrwt>
<rscale>  0 0.12502115E+03</rscale>
<asrwt>0</asrwt>
<pdfrwt beam="1">  1        4 0.18247356E-02 0.12502115E+03</pdfrwt>
<pdfrwt beam="2">  1       -4 0.50685107E-01 0.12502115E+03</pdfrwt>
<totfact> 0.70657714E+03</totfact>
</mgrwt>
</event>
<event>
 5    1  0.3277540E-002  0.1249991E+03  0.7818608E-02  0.1235071E+00
         -4   -1    0    0    0  501 -0.00000000000E+00  0.00000000000E+00  0.23859365533E+02  0.23893141770E+02  0.12700000000E+01 0. -1.
          4   -1    0    0  501    0  0.00000000000E+00 -0.00000000000E+00 -0.16356526399E+03  0.16357019436E+03  0.12700000000E+01 0. -1.
         25    2    1    2    0    0  0.00000000000E+00  0.00000000000E+00 -0.13970589845E+03  0.18746333613E+03  0.12499905732E+03 0.  0.
    9000005    1    3    3    0    0 -0.30969723145E+02  0.42741606173E+02 -0.19680210639E+02  0.56340743167E+02  0.10000000000E+01 0.  0.
    9000005    1    3    3    0    0  0.30969723145E+02 -0.42741606173E+02 -0.12002568781E+03  0.13112259296E+03  0.10000000000E+01 0.  0.
<mgrwt>
<rscale>  0 0.12499906E+03</rscale>
<asrwt>0</asrwt>
<pdfrwt beam="2">  1        4 0.25166864E-01 0.12499906E+03</pdfrwt>
<pdfrwt beam="1">  1       -4 0.36736492E-02 0.12499906E+03</pdfrwt>
<totfact> 0.92292518E+03</totfact>
</mgrwt>
</event>
<event>
 5    1  0.3277540E-002  0.1250001E+03  0.7818608E-02  0.1235069E+00
          4   -1    0    0  501    0  0.00000000000E+00  0.00000000000E+00  0.75276045618E+01  0.76339852266E+01  0.12700000000E+01 0. -1.
         -4   -1    0    0    0  501 -0.00000000000E+00 -0.00000000000E+00 -0.51517627650E+03  0.51517784188E+03  0.12700000000E+01 0. -1.
         25    2    1    2    0    0  0.00000000000E+00  0.00000000000E+00 -0.50764867193E+03  0.52281182711E+03  0.12500012978E+03 0.  0.
    9000005    1    3    3    0    0 -0.31780371719E+02 -0.45503883369E+02 -0.37393266116E+03  0.37803072694E+03  0.10000000000E+01 0.  0.
    9000005    1    3    3    0    0  0.31780371719E+02  0.45503883369E+02 -0.13371601078E+03  0.14478110017E+03  0.10000000000E+01 0.  0.
<mgrwt>
<rscale>  0 0.12500013E+03</rscale>
<asrwt>0</asrwt>
<pdfrwt beam="1">  1        4 0.11663970E-02 0.12500013E+03</pdfrwt>
<pdfrwt beam="2">  1       -4 0.79266165E-01 0.12500013E+03</pdfrwt>
<totfact> 0.54136750E+03</totfact>
</mgrwt>
</event>
<event>
 5    1  0.3277540E-002  0.1249994E+03  0.7818608E-02  0.1235070E+00
          4   -1    0    0  501    0  0.00000000000E+00  0.00000000000E+00  0.11150322361E+04  0.11150329594E+04  0.12700000000E+01 0. -1.
         -4   -1    0    0    0  501 -0.00000000000E+00 -0.00000000000E+00 -0.33873797263E+01  0.36176292527E+01  0.12700000000E+01 0. -1.
         25    2    1    2    0    0  0.00000000000E+00  0.00000000000E+00  0.11116448564E+04  0.11186505886E+04  0.12499941074E+03 0.  0.
    9000005    1    3    3    0    0  0.59588314522E+02 -0.78886230412E+01  0.40284119196E+03  0.40730212808E+03  0.10000000000E+01 0.  0.
    9000005    1    3    3    0    0 -0.59588314522E+02  0.78886230412E+01  0.70880366443E+03  0.71134846054E+03  0.10000000000E+01 0.  0.
<mgrwt>
<rscale>  0 0.12499941E+03</rscale>
<asrwt>0</asrwt>
<pdfrwt beam="1">  1        4 0.17156130E+00 0.12499941E+03</pdfrwt>
<pdfrwt beam="2">  1       -4 0.53890214E-03 0.12499941E+03</pdfrwt>
<totfact> 0.26944186E+03</totfact>
</mgrwt>
</event>
<event>
 5    1  0.3277540E-002  0.1250014E+03  0.7818608E-02  0.1235067E+00
         -4   -1    0    0    0  501 -0.00000000000E+00  0.00000000000E+00  0.11309850807E+03  0.11310563836E+03  0.12700000000E+01 0.  1.
          4   -1    0    0  501    0  0.00000000000E+00 -0.00000000000E+00 -0.34519360866E+02  0.34542715217E+02  0.12700000000E+01 0.  1.
         25    2    1    2    0    0  0.00000000000E+00  0.00000000000E+00  0.78579147205E+02  0.14764835357E+03  0.12500141574E+03 0.  0.
    9000005    1    3    3    0    0 -0.12936974146E+02  0.46172768172E+02 -0.80465866915E+01  0.48631649963E+02  0.10000000000E+01 0.  0.
    9000005    1    3    3    0    0  0.12936974146E+02 -0.46172768172E+02  0.86625733897E+02  0.99016703610E+02  0.10000000000E+01 0.  0.
<mgrwt>
<rscale>  0 0.12500142E+03</rscale>
<asrwt>0</asrwt>
<pdfrwt beam="2">  1        4 0.53130159E-02 0.12500142E+03</pdfrwt>
<pdfrwt beam="1">  1       -4 0.17402115E-01 0.12500142E+03</pdfrwt>
<totfact> 0.99771366E+03</totfact>
</mgrwt>
</event>
<event>
 5    1  0.3277540E-002  0.1249976E+03  0.7818608E-02  0.1235073E+00
          4   -1    0    0  501    0  0.00000000000E+00  0.00000000000E+00  0.81144877449E+02  0.81154815237E+02  0.12700000000E+01 0. -1.
         -4   -1    0    0    0  501 -0.00000000000E+00 -0.00000000000E+00 -0.48116097121E+02  0.48132854706E+02  0.12700000000E+01 0. -1.
         25    2    1    2    0    0  0.00000000000E+00  0.00000000000E+00  0.33028780328E+02  0.12928766994E+03  0.12499760505E+03 0.  0.
    9000005    1    3    3    0    0  0.53428823724E+02  0.31536861398E+02  0.24246761523E+02  0.66619203506E+02  0.10000000000E+01 0.  0.
    9000005    1    3    3    0    0 -0.53428823724E+02 -0.31536861398E+02  0.87820188049E+01  0.62668466438E+02  0.10000000000E+01 0.  0.
<mgrwt>
<rscale>  0 0.12499761E+03</rscale>
<asrwt>0</asrwt>
<pdfrwt beam="1">  1        4 0.12485881E-01 0.12499761E+03</pdfrwt>
<pdfrwt beam="2">  1       -4 0.74045301E-02 0.12499761E+03</pdfrwt>
<totfact> 0.10360330E+04</totfact>
</mgrwt>
</event>
<event>
 5    1  0.3277540E-002  0.1249982E+03  0.7818608E-02  0.1235072E+00
         -4   -1    0    0    0  501 -0.00000000000E+00  0.00000000000E+00  0.84645524765E+01  0.85592960357E+01  0.12700000000E+01 0.  1.
          4   -1    0    0  501    0  0.00000000000E+00 -0.00000000000E+00 -0.45880621847E+03  0.45880797618E+03  0.12700000000E+01 0.  1.
         25    2    1    2    0    0  0.00000000000E+00  0.00000000000E+00 -0.45034166599E+03  0.46736727221E+03  0.12499820402E+03 0.  0.
    9000005    1    3    3    0    0  0.59913985121E+02  0.17631787071E+02 -0.23316582926E+03  0.24138738464E+03  0.10000000000E+01 0.  0.
    9000005    1    3    3    0    0 -0.59913985121E+02 -0.17631787071E+02 -0.21717583673E+03  0.22597988757E+03  0.10000000000E+01 0.  0.
<mgrwt>
<rscale>  0 0.12499820E+03</rscale>
<asrwt>0</asrwt>
<pdfrwt beam="2">  1        4 0.70592976E-01 0.12499820E+03</pdfrwt>
<pdfrwt beam="1">  1       -4 0.13096624E-02 0.12499820E+03</pdfrwt>
<totfact> 0.58490571E+03</totfact>
</mgrwt>
</event>
<event>
 5    1  0.3277540E-002  0.1250009E+03  0.7818608E-02  0.1235068E+00
         -4   -1    0    0    0  501 -0.00000000000E+00  0.00000000000E+00  0.65261658262E+03  0.65261781834E+03  0.12700000000E+01 0.  1.
          4   -1    0    0  501    0  0.00000000000E+00 -0.00000000000E+00 -0.59169883810E+01  0.60517478055E+01  0.12700000000E+01 0.  1.
         25    2    1    2    0    0  0.00000000000E+00  0.00000000000E+00  0.64669959424E+03  0.65866956614E+03  0.12500092869E+03 0.  0.
    9000005    1    3    3    0    0  0.53684854926E+02  0.21596370886E+02  0.44769241946E+03  0.45141773262E+03  0.10000000000E+01 0.  0.
    9000005    1    3    3    0    0 -0.53684854926E+02 -0.21596370886E+02  0.19900717478E+03  0.20725183352E+03  0.10000000000E+01 0.  0.
<mgrwt>
<rscale>  0 0.12500093E+03</rscale>
<asrwt>0</asrwt>
<pdfrwt beam="2">  1        4 0.92076670E-03 0.12500093E+03</pdfrwt>
<pdfrwt beam="1">  1       -4 0.10041305E+00 0.12500093E+03</pdfrwt>
<totfact> 0.45358972E+03</totfact>
</mgrwt>
</event>
<event>
 5    1  0.3277540E-002  0.1249986E+03  0.7818608E-02  0.1235071E+00
          4   -1    0    0  501    0  0.00000000000E+00  0.00000000000E+00  0.47774909852E+03  0.47775078654E+03  0.12700000000E+01 0. -1.
         -4   -1    0    0    0  501 -0.00000000000E+00 -0.00000000000E+00 -0.81251506874E+01  0.82238053049E+01  0.12700000000E+01 0. -1.
         25    2    1    2    0    0  0.00000000000E+00  0.00000000000E+00  0.46962394784E+03  0.48597459184E+03  0.12499860614E+03 0.  0.
    9000005    1    3    3    0    0 -0.21188363670E+02  0.57910705341E+02  0.19543785805E+03  0.20493792452E+03  0.10000000000E+01 0.  0.
    9000005    1    3    3    0    0  0.21188363670E+02 -0.57910705341E+02  0.27418608979E+03  0.28103666732E+03  0.10000000000E+01 0.  0.
<mgrwt>
<rscale>  0 0.12499861E+03</rscale>
<asrwt>0</asrwt>
<pdfrwt beam="1">  1        4 0.73507582E-01 0.12499861E+03</pdfrwt>
<pdfrwt beam="2">  1       -4 0.12577418E-02 0.12499861E+03</pdfrwt>
<totfact> 0.56970970E+03</totfact>
</mgrwt>
</event>
<event>
 5    1  0.3277540E-002  0.1249923E+03  0.7818608E-02  0.1235081E+00
         -4   -1    0    0    0  501 -0.00000000000E+00  0.00000000000E+00  0.71081583971E+02  0.71092928480E+02  0.12700000000E+01 0.  1.
          4   -1    0    0  501    0  0.00000000000E+00 -0.00000000000E+00 -0.54924625388E+02  0.54939306275E+02  0.12700000000E+01 0.  1.
         25    2    1    2    0    0  0.00000000000E+00  0.00000000000E+00  0.16156958584E+02  0.12603223476E+03  0.12499230731E+03 0.  0.
    9000005    1    3    3    0    0 -0.35243621744E+02 -0.40986954601E+02 -0.23530797047E+02  0.58963901929E+02  0.10000000000E+01 0.  0.
    9000005    1    3    3    0    0  0.35243621744E+02  0.40986954601E+02  0.39687755631E+02  0.67068332826E+02  0.10000000000E+01 0.  0.
<mgrwt>
<rscale>  0 0.12499231E+03</rscale>
<asrwt>0</asrwt>
<pdfrwt beam="2">  1        4 0.84519443E-02 0.12499231E+03</pdfrwt>
<pdfrwt beam="1">  1       -4 0.10937630E-01 0.12499231E+03</pdfrwt>
<totfact> 0.10432061E+04</totfact>
</mgrwt>
</event>
<event>
 5    1  0.3277540E-002  0.1249989E+03  0.7818608E-02  0.1235071E+00
         -4   -1    0    0    0  501 -0.00000000000E+00  0.00000000000E+00  0.16986676024E+04  0.16986680771E+04  0.12700000000E+01 0. -1.
          4   -1    0    0  501    0  0.00000000000E+00 -0.00000000000E+00 -0.21236970753E+01  0.24744674715E+01  0.12700000000E+01 0. -1.
         25    2    1    2    0    0  0.00000000000E+00  0.00000000000E+00  0.16965439053E+04  0.17011425446E+04  0.12499893776E+03 0.  0.
    9000005    1    3    3    0    0  0.22367194822E+02  0.75565739000E+01  0.16357047750E+04  0.16358754550E+04  0.10000000000E+01 0.  0.
    9000005    1    3    3    0    0 -0.22367194822E+02 -0.75565739000E+01  0.60839130297E+02  0.65267089629E+02  0.10000000000E+01 0.  0.
<mgrwt>
<rscale>  0 0.12499894E+03</rscale>
<asrwt>0</asrwt>
<pdfrwt beam="2">  1        4 0.35374212E-03 0.12499894E+03</pdfrwt>
<pdfrwt beam="1">  1       -4 0.26136002E+00 0.12499894E+03</pdfrwt>
<totfact> 0.14289246E+03</totfact>
</mgrwt>
</event>
<event>
 5    1  0.3277540E-002  0.1249954E+03  0.7818608E-02  0.1235077E+00
          4   -1    0    0  501    0  0.00000000000E+00  0.00000000000E+00  0.16863317265E+03  0.16863795486E+03  0.12700000000E+01 0.  1.
         -4   -1    0    0    0  501 -0.00000000000E+00 -0.00000000000E+00 -0.23139945594E+02  0.23174770379E+02  0.12700000000E+01 0.  1.
         25    2    1    2    0    0  0.00000000000E+00  0.00000000000E+00  0.14549322706E+03  0.19181272524E+03  0.12499536969E+03 0.  0.
    9000005    1    3    3    0    0 -0.62181756934E+02  0.61185722011E+01  0.74244510679E+02  0.97042543181E+02  0.10000000000E+01 0.  0.
    9000005    1    3    3    0    0  0.62181756934E+02 -0.61185722011E+01  0.71248716381E+02  0.94770182057E+02  0.10000000000E+01 0.  0.
<mgrwt>
<rscale>  0 0.12499537E+03</rscale>
<asrwt>0</asrwt>
<pdfrwt beam="1">  1        4 0.25946612E-01 0.12499537E+03</pdfrwt>
<pdfrwt beam="2">  1       -4 0.35630382E-02 0.12499537E+03</pdfrwt>
<totfact> 0.91542351E+03</totfact>
</mgrwt>
</event>
<event>
 5    1  0.3277540E-002  0.1250055E+03  0.7818608E-02  0.1235061E+00
         -4   -1    0    0    0  501 -0.00000000000E+00  0.00000000000E+00  0.78736581929E+03  0.78736684352E+03  0.12700000000E+01 0. -1.
          4   -1    0    0  501    0  0.00000000000E+00 -0.00000000000E+00 -0.48792835839E+01  0.50418556397E+01  0.12700000000E+01 0. -1.
         25    2    1    2    0    0  0.00000000000E+00  0.00000000000E+00  0.78248653570E+03  0.79240869916E+03  0.12500547170E+03 0.  0.
    9000005    1    3    3    0    0  0.33177925005E+02 -0.50928171999E+02  0.29913385640E+03  0.30524828821E+03  0.10000000000E+01 0.  0.
    9000005    1    3    3    0    0 -0.33177925005E+02  0.50928171999E+02  0.48335267930E+03  0.48716041095E+03  0.10000000000E+01 0.  0.
<mgrwt>
<rscale>  0 0.12500547E+03</rscale>
<asrwt>0</asrwt>
<pdfrwt beam="2">  1        4 0.76324437E-03 0.12500547E+03</pdfrwt>
<pdfrwt beam="1">  1       -4 0.12114562E+00 0.12500547E+03</pdfrwt>
<totfact> 0.38601309E+03</totfact>
</mgrwt>
</event>
<event>
 5    1  0.3277540E-002  0.1249998E+03  0.7818608E-02  0.1235070E+00
         -4   -1    0    0    0  501 -0.00000000000E+00  0.00000000000E+00  0.27266190401E+02  0.27295751299E+02  0.12700000000E+01 0.  1.
          4   -1    0    0  501    0  0.00000000000E+00 -0.00000000000E+00 -0.14315304301E+03  0.14315867638E+03  0.12700000000E+01 0.  1.
         25    2    1    2    0    0  0.00000000000E+00  0.00000000000E+00 -0.11588685261E+03  0.17045442768E+03  0.12499979723E+03 0.  0.
    9000005    1    3    3    0    0  0.18524772156E+02  0.14777007345E+01  0.23417719628E+02  0.29912211143E+02  0.10000000000E+01 0.  0.
    9000005    1    3    3    0    0 -0.18524772156E+02 -0.14777007345E+01 -0.13930457223E+03  0.14054221653E+03  0.10000000000E+01 0.  0.
<mgrwt>
<rscale>  0 0.12499980E+03</rscale>
<asrwt>0</asrwt>
<pdfrwt beam="2">  1        4 0.22026252E-01 0.12499980E+03</pdfrwt>
<pdfrwt beam="1">  1       -4 0.41975059E-02 0.12499980E+03</pdfrwt>
<totfact> 0.95364439E+03</totfact>
</mgrwt>
</event>
<event>
 5    1  0.3277540E-002  0.1249999E+03  0.7818608E-02  0.1235069E+00
          4   -1    0    0  501    0  0.00000000000E+00  0.00000000000E+00  0.18307138651E+02  0.18351136902E+02  0.12700000000E+01 0.  1.
         -4   -1    0    0    0  501 -0.00000000000E+00 -0.00000000000E+00 -0.21307067145E+03  0.21307445631E+03  0.12700000000E+01 0.  1.
         25    2    1    2    0    0  0.00000000000E+00  0.00000000000E+00 -0.19476353280E+03  0.23142559321E+03  0.12499988594E+03 0.  0.
    9000005    1    3    3    0    0 -0.45303150804E+01  0.66864533989E+01 -0.21210938326E+03  0.21226545381E+03  0.10000000000E+01 0.  0.
    9000005    1    3    3    0    0  0.45303150804E+01 -0.66864533989E+01  0.17345850460E+02  0.19160139404E+02  0.10000000000E+01 0.  0.
<mgrwt>
<rscale>  0 0.12499989E+03</rscale>
<asrwt>0</asrwt>
<pdfrwt beam="1">  1        4 0.28201586E-02 0.12499989E+03</pdfrwt>
<pdfrwt beam="2">  1       -4 0.32783777E-01 0.12499989E+03</pdfrwt>
<totfact> 0.85091393E+03</totfact>
</mgrwt>
</event>
<event>
 5    1  0.3277540E-002  0.1250027E+03  0.7818608E-02  0.1235065E+00
         -4   -1    0    0    0  501 -0.00000000000E+00  0.00000000000E+00  0.14051894578E+02  0.14109168694E+02  0.12700000000E+01 0. -1.
          4   -1    0    0  501    0  0.00000000000E+00 -0.00000000000E+00 -0.27737526178E+03  0.27737816919E+03  0.12700000000E+01 0. -1.
         25    2    1    2    0    0  0.00000000000E+00  0.00000000000E+00 -0.26332336720E+03  0.29148733789E+03  0.12500268972E+03 0.  0.
    9000005    1    3    3    0    0  0.25343285408E+02 -0.52370527181E+02 -0.78463643553E+02  0.97685708228E+02  0.10000000000E+01 0.  0.
    9000005    1    3    3    0    0 -0.25343285408E+02  0.52370527181E+02 -0.18485972365E+03  0.19380162966E+03  0.10000000000E+01 0.  0.
<mgrwt>
<rscale>  0 0.12500269E+03</rscale>
<asrwt>0</asrwt>
<pdfrwt beam="2">  1        4 0.42677743E-01 0.12500269E+03</pdfrwt>
<pdfrwt beam="1">  1       -4 0.21664595E-02 0.12500269E+03</pdfrwt>
<totfact> 0.76674632E+03</totfact>
</mgrwt>
</event>
<event>
 5    1  0.3277540E-002  0.1249936E+03  0.7818608E-02  0.1235079E+00
          4   -1    0    0  501    0  0.00000000000E+00  0.00000000000E+00  0.30420303274E+03  0.30420568375E+03  0.12700000000E+01 0. -1.
         -4   -1    0    0    0  501 -0.00000000000E+00 -0.00000000000E+00 -0.12805492135E+02  0.12868314918E+02  0.12700000000E+01 0. -1.
         25    2    1    2    0    0  0.00000000000E+00  0.00000000000E+00  0.29139754060E+03  0.31707399867E+03  0.12499357569E+03 0.  0.
    9000005    1    3    3    0    0 -0.54215662215E+02  0.82011072458E+01  0.22172651485E+03  0.22840806373E+03  0.10000000000E+01 0.  0.
    9000005    1    3    3    0    0  0.54215662215E+02 -0.82011072458E+01  0.69671025755E+02  0.88665934942E+02  0.10000000000E+01 0.  0.
<mgrwt>
<rscale>  0 0.12499358E+03</rscale>
<asrwt>0</asrwt>
<pdfrwt beam="1">  1        4 0.46805498E-01 0.12499358E+03</pdfrwt>
<pdfrwt beam="2">  1       -4 0.19751124E-02 0.12499358E+03</pdfrwt>
<totfact> 0.73515963E+03</totfact>
</mgrwt>
</event>
<event>
 5    1  0.3277540E-002  0.1249997E+03  0.7818608E-02  0.1235070E+00
         -4   -1    0    0    0  501 -0.00000000000E+00  0.00000000000E+00  0.61109221687E+02  0.61122417125E+02  0.12700000000E+01 0.  1.
          4   -1    0    0  501    0  0.00000000000E+00 -0.00000000000E+00 -0.63895726793E+02  0.63908346892E+02  0.12700000000E+01 0.  1.
         25    2    1    2    0    0  0.00000000000E+00  0.00000000000E+00 -0.27865051060E+01  0.12503076402E+03  0.12499970936E+03 0.  0.
    9000005    1    3    3    0    0 -0.78378907840E+01 -0.13326763550E+02 -0.61957421387E+02  0.63865148740E+02  0.10000000000E+01 0.  0.
    9000005    1    3    3    0    0  0.78378907840E+01  0.13326763550E+02  0.59170916281E+02  0.61165615277E+02  0.10000000000E+01 0.  0.
<mgrwt>
<rscale>  0 0.12499971E+03</rscale>
<asrwt>0</asrwt>
<pdfrwt beam="2">  1        4 0.98320977E-02 0.12499971E+03</pdfrwt>
<pdfrwt beam="1">  1       -4 0.94034045E-02 0.12499971E+03</pdfrwt>
<totfact> 0.10452263E+04</totfact>
</mgrwt>
</event>
<event>
 5    1  0.3277540E-002  0.1250096E+03  0.7818608E-02  0.1235054E+00
          4   -1    0    0  501    0  0.00000000000E+00  0.00000000000E+00  0.33802636497E+02  0.33826485690E+02  0.12700000000E+01 0. -1.
         -4   -1    0    0    0  501 -0.00000000000E+00 -0.00000000000E+00 -0.11551016249E+03  0.11551714392E+03  0.12700000000E+01 0. -1.
         25    2    1    2    0    0  0.00000000000E+00  0.00000000000E+00 -0.81707525995E+02  0.14934362961E+03  0.12500959923E+03 0.  0.
    9000005    1    3    3    0    0 -0.46428705309E+02  0.41685665840E+02 -0.36624851348E+02  0.72358131191E+02  0.10000000000E+01 0.  0.
    9000005    1    3    3    0    0  0.46428705309E+02 -0.41685665840E+02 -0.45082674646E+02  0.76985498417E+02  0.10000000000E+01 0.  0.
<mgrwt>
<rscale>  0 0.12500960E+03</rscale>
<asrwt>0</asrwt>
<pdfrwt beam="1">  1        4 0.52027772E-02 0.12500960E+03</pdfrwt>
<pdfrwt beam="2">  1       -4 0.17773166E-01 0.12500960E+03</pdfrwt>
<totfact> 0.99413216E+03</totfact>
</mgrwt>
</event>
<event>
 5    1  0.3277540E-002  0.1250012E+03  0.7818608E-02  0.1235067E+00
          4   -1    0    0  501    0  0.00000000000E+00  0.00000000000E+00  0.12749248816E+02  0.12812347379E+02  0.12700000000E+01 0.  1.
         -4   -1    0    0    0  501 -0.00000000000E+00 -0.00000000000E+00 -0.30557550192E+03  0.30557814103E+03  0.12700000000E+01 0.  1.
         25    2    1    2    0    0  0.00000000000E+00  0.00000000000E+00 -0.29282625310E+03  0.31839048840E+03  0.12500115440E+03 0.  0.
    9000005    1    3    3    0    0  0.30496017970E+02 -0.53410740912E+02 -0.17461676244E+03  0.18513435144E+03  0.10000000000E+01 0.  0.
    9000005    1    3    3    0    0 -0.30496017970E+02  0.53410740912E+02 -0.11820949066E+03  0.13325613697E+03  0.10000000000E+01 0.  0.
<mgrwt>
<rscale>  0 0.12500115E+03</rscale>
<asrwt>0</asrwt>
<pdfrwt beam="1">  1        4 0.19664799E-02 0.12500115E+03</pdfrwt>
<pdfrwt beam="2">  1       -4 0.47016667E-01 0.12500115E+03</pdfrwt>
<totfact> 0.73346090E+03</totfact>
</mgrwt>
</event>
<event>
 5    1  0.3277540E-002  0.1250001E+03  0.7818608E-02  0.1235069E+00
         -4   -1    0    0    0  501 -0.00000000000E+00  0.00000000000E+00  0.40128242496E+02  0.40148334285E+02  0.12700000000E+01 0.  1.
          4   -1    0    0  501    0  0.00000000000E+00 -0.00000000000E+00 -0.97295721269E+02  0.97304009564E+02  0.12700000000E+01 0.  1.
         25    2    1    2    0    0  0.00000000000E+00  0.00000000000E+00 -0.57167478773E+02  0.13745234385E+03  0.12500010480E+03 0.  0.
    9000005    1    3    3    0    0 -0.24954617416E+02 -0.56794763781E+02 -0.20290665009E+02  0.65277019003E+02  0.10000000000E+01 0.  0.
    9000005    1    3    3    0    0  0.24954617416E+02  0.56794763781E+02 -0.36876813763E+02  0.72175324846E+02  0.10000000000E+01 0.  0.
<mgrwt>
<rscale>  0 0.12500010E+03</rscale>
<asrwt>0</asrwt>
<pdfrwt beam="2">  1        4 0.14970756E-01 0.12500010E+03</pdfrwt>
<pdfrwt beam="1">  1       -4 0.61757588E-02 0.12500010E+03</pdfrwt>
<totfact> 0.10186612E+04</totfact>
</mgrwt>
</event>
<event>
 5    1  0.3277540E-002  0.1249983E+03  0.7818608E-02  0.1235072E+00
         -4   -1    0    0    0  501 -0.00000000000E+00  0.00000000000E+00  0.10337577017E+03  0.10338357102E+03  0.12700000000E+01 0. -1.
          4   -1    0    0  501    0  0.00000000000E+00 -0.00000000000E+00 -0.37766001627E+02  0.37787349455E+02  0.12700000000E+01 0. -1.
         25    2    1    2    0    0  0.00000000000E+00  0.00000000000E+00  0.65609768540E+02  0.14117092048E+03  0.12499834823E+03 0.  0.
    9000005    1    3    3    0    0  0.11670792629E+02 -0.10222368048E+02 -0.35561865153E+02  0.38811730988E+02  0.10000000000E+01 0.  0.
    9000005    1    3    3    0    0 -0.11670792629E+02  0.10222368048E+02  0.10117163369E+03  0.10235918949E+03  0.10000000000E+01 0.  0.
<mgrwt>
<rscale>  0 0.12499835E+03</rscale>
<asrwt>0</asrwt>
<pdfrwt beam="2">  1        4 0.58123963E-02 0.12499835E+03</pdfrwt>
<pdfrwt beam="1">  1       -4 0.15906207E-01 0.12499835E+03</pdfrwt>
<totfact> 0.10109751E+04</totfact>
</mgrwt>
</event>
<event>
 5    1  0.3277540E-002  0.1250058E+03  0.7818608E-02  0.1235060E+00
         -4   -1    0    0    0  501 -0.00000000000E+00  0.00000000000E+00  0.10499255732E+04  0.10499263413E+04  0.12700000000E+01 0. -1.
          4   -1    0    0  501    0  0.00000000000E+00 -0.00000000000E+00 -0.36116834198E+01  0.38284666806E+01  0.12700000000E+01 0. -1.
         25    2    1    2    0    0  0.00000000000E+00  0.00000000000E+00  0.10463138897E+04  0.10537548079E+04  0.12500575746E+03 0.  0.
    9000005    1    3    3    0    0  0.46227513188E+02  0.20383232826E+02  0.21307060458E+03  0.21898068794E+03  0.10000000000E+01 0.  0.
    9000005    1    3    3    0    0 -0.46227513188E+02 -0.20383232826E+02  0.83324328516E+03  0.83477412000E+03  0.10000000000E+01 0.  0.
<mgrwt>
<rscale>  0 0.12500576E+03</rscale>
<asrwt>0</asrwt>
<pdfrwt beam="2">  1        4 0.57237735E-03 0.12500576E+03</pdfrwt>
<pdfrwt beam="1">  1       -4 0.16154402E+00 0.12500576E+03</pdfrwt>
<totfact> 0.28874135E+03</totfact>
</mgrwt>
</event>
<event>
 5    1  0.3277540E-002  0.1249988E+03  0.7818608E-02  0.1235071E+00
          4   -1    0    0  501    0  0.00000000000E+00  0.00000000000E+00  0.66465150175E+02  0.66477282494E+02  0.12700000000E+01 0.  1.
         -4   -1    0    0    0  501 -0.00000000000E+00 -0.00000000000E+00 -0.58745869028E+02  0.58759595199E+02  0.12700000000E+01 0.  1.
         25    2    1    2    0    0  0.00000000000E+00  0.00000000000E+00  0.77192811465E+01  0.12523687769E+03  0.12499875292E+03 0.  0.
    9000005    1    3    3    0    0 -0.72841200629E+01  0.61879969895E+02  0.86628299537E+01  0.62914495167E+02  0.10000000000E+01 0.  0.
    9000005    1    3    3    0    0  0.72841200629E+01 -0.61879969895E+02 -0.94354880724E+00  0.62322382526E+02  0.10000000000E+01 0.  0.
<mgrwt>
<rscale>  0 0.12499875E+03</rscale>
<asrwt>0</asrwt>
<pdfrwt beam="1">  1        4 0.10227397E-01 0.12499875E+03</pdfrwt>
<pdfrwt beam="2">  1       -4 0.90398152E-02 0.12499875E+03</pdfrwt>
<totfact> 0.10448014E+04</totfact>
</mgrwt>
</event>
<event>
 5    1  0.3277540E-002  0.1250005E+03  0.7818608E-02  0.1235069E+00
         -4   -1    0    0    0  501 -0.00000000000E+00  0.00000000000E+00  0.24149351690E+02  0.24182722904E+02  0.12700000000E+01 0.  1.
          4   -1    0    0  501    0  0.00000000000E+00 -0.00000000000E+00 -0.16160756501E+03  0.16161255511E+03  0.12700000000E+01 0.  1.
         25    2    1    2    0    0  0.00000000000E+00  0.00000000000E+00 -0.13745821332E+03  0.18579527801E+03  0.12500049969E+03 0.  0.
    9000005    1    3    3    0    0  0.23914385148E+02  0.39742877108E+02 -0.13097686898E+03  0.13895083413E+03  0.10000000000E+01 0.  0.
    9000005    1    3    3    0    0 -0.23914385148E+02 -0.39742877108E+02 -0.64813443371E+01  0.46844443878E+02  0.10000000000E+01 0.  0.
<mgrwt>
<rscale>  0 0.12500050E+03</rscale>
<asrwt>0</asrwt>
<pdfrwt beam="2">  1        4 0.24865652E-01 0.12500050E+03</pdfrwt>
<pdfrwt beam="1">  1       -4 0.37182359E-02 0.12500050E+03</pdfrwt>
<totfact> 0.92583077E+03</totfact>
</mgrwt>
</event>
<event>
 5    1  0.3277540E-002  0.1250010E+03  0.7818608E-02  0.1235068E+00
         -4   -1    0    0    0  501 -0.00000000000E+00  0.00000000000E+00  0.16870776780E+02  0.16918510843E+02  0.12700000000E+01 0.  1.
          4   -1    0    0  501    0  0.00000000000E+00 -0.00000000000E+00 -0.23116666136E+03  0.23117014995E+03  0.12700000000E+01 0.  1.
         25    2    1    2    0    0  0.00000000000E+00  0.00000000000E+00 -0.21429588458E+03  0.24808866079E+03  0.12500102985E+03 0.  0.
    9000005    1    3    3    0    0 -0.37097228877E+02  0.42961241995E+02 -0.15903320838E+03  0.16886217478E+03  0.10000000000E+01 0.  0.
    9000005    1    3    3    0    0  0.37097228877E+02 -0.42961241995E+02 -0.55262676203E+02  0.79226486008E+02  0.10000000000E+01 0.  0.
<mgrwt>
<rscale>  0 0.12500103E+03</rscale>
<asrwt>0</asrwt>
<pdfrwt beam="2">  1        4 0.35568040E-01 0.12500103E+03</pdfrwt>
<pdfrwt beam="1">  1       -4 0.25994445E-02 0.12500103E+03</pdfrwt>
<totfact> 0.82605368E+03</totfact>
</mgrwt>
</event>
<event>
 5    1  0.3277540E-002  0.1250036E+03  0.7818608E-02  0.1235064E+00
          4   -1    0    0  501    0  0.00000000000E+00  0.00000000000E+00  0.31289990936E+03  0.31290248669E+03  0.12700000000E+01 0.  1.
         -4   -1    0    0    0  501 -0.00000000000E+00 -0.00000000000E+00 -0.12449812468E+02  0.12514420901E+02  0.12700000000E+01 0.  1.
         25    2    1    2    0    0  0.00000000000E+00  0.00000000000E+00  0.30045009689E+03  0.32541690759E+03  0.12500361205E+03 0.  0.
    9000005    1    3    3    0    0 -0.42296156094E+02 -0.43558488527E+02  0.11168545515E+03  0.12712571587E+03  0.10000000000E+01 0.  0.
    9000005    1    3    3    0    0  0.42296156094E+02  0.43558488527E+02  0.18876464174E+03  0.19829119172E+03  0.10000000000E+01 0.  0.
<mgrwt>
<rscale>  0 0.12500361E+03</rscale>
<asrwt>0</asrwt>
<pdfrwt beam="1">  1        4 0.48143615E-01 0.12500361E+03</pdfrwt>
<pdfrwt beam="2">  1       -4 0.19205239E-02 0.12500361E+03</pdfrwt>
<totfact> 0.72510649E+03</totfact>
</mgrwt>
</event>
<event>
 5    1  0.3277540E-002  0.1250000E+03  0.7818608E-02  0.1235069E+00
         -4   -1    0    0    0  501 -0.00000000000E+00  0.00000000000E+00  0.66471607273E+02  0.66483738413E+02  0.12700000000E+01 0. -1.
          4   -1    0    0  501    0  0.00000000000E+00 -0.00000000000E+00 -0.58741315942E+02  0.58755043175E+02  0.12700000000E+01 0. -1.
         25    2    1    2    0    0  0.00000000000E+00  0.00000000000E+00  0.77302913311E+01  0.12523878159E+03  0.12499998004E+03 0.  0.
    9000005    1    3    3    0    0  0.18046018306E+02 -0.48436656923E+02  0.39053178522E+02  0.64791351763E+02  0.10000000000E+01 0.  0.
    9000005    1    3    3    0    0 -0.18046018306E+02  0.48436656923E+02 -0.31322887191E+02  0.60447429826E+02  0.10000000000E+01 0.  0.
<mgrwt>
<rscale>  0 0.12499998E+03</rscale>
<asrwt>0</asrwt>
<pdfrwt beam="2">  1        4 0.90391147E-02 0.12499998E+03</pdfrwt>
<pdfrwt beam="1">  1       -4 0.10228390E-01 0.12499998E+03</pdfrwt>
<totfact> 0.10447683E+04</totfact>
</mgrwt>
</event>
<event>
 5    1  0.3277540E-002  0.1250014E+03  0.7818608E-02  0.1235067E+00
          4   -1    0    0  501    0  0.00000000000E+00  0.00000000000E+00  0.25632769215E+01  0.28606447833E+01  0.12700000000E+01 0. -1.
         -4   -1    0    0    0  501 -0.00000000000E+00 -0.00000000000E+00 -0.14401128602E+04  0.14401134202E+04  0.12700000000E+01 0. -1.
         25    2    1    2    0    0  0.00000000000E+00  0.00000000000E+00 -0.14375495833E+04  0.14429740650E+04  0.12500139121E+03 0.  0.
    9000005    1    3    3    0    0 -0.39518007817E+02 -0.38169494994E+02 -0.37502283886E+03  0.37902732481E+03  0.10000000000E+01 0.  0.
    9000005    1    3    3    0    0  0.39518007817E+02  0.38169494994E+02 -0.10625267444E+04  0.10639467402E+04  0.10000000000E+01 0.  0.
<mgrwt>
<rscale>  0 0.12500139E+03</rscale>
<asrwt>0</asrwt>
<pdfrwt beam="1">  1        4 0.41726897E-03 0.12500139E+03</pdfrwt>
<pdfrwt beam="2">  1       -4 0.22157813E+00 0.12500139E+03</pdfrwt>
<totfact> 0.19076600E+03</totfact>
</mgrwt>
</event>
<event>
 5    1  0.3277540E-002  0.1249994E+03  0.7818608E-02  0.1235070E+00
         -4   -1    0    0    0  501 -0.00000000000E+00  0.00000000000E+00  0.49676100835E+03  0.49676263176E+03  0.12700000000E+01 0.  1.
          4   -1    0    0  501    0  0.00000000000E+00 -0.00000000000E+00 -0.78104363830E+01  0.79130156383E+01  0.12700000000E+01 0.  1.
         25    2    1    2    0    0  0.00000000000E+00  0.00000000000E+00  0.48895057196E+03  0.50467564740E+03  0.12499938901E+03 0.  0.
    9000005    1    3    3    0    0 -0.40048256907E+02  0.19598570512E+02  0.67691161650E+02  0.81062076293E+02  0.10000000000E+01 0.  0.
    9000005    1    3    3    0    0  0.40048256907E+02 -0.19598570512E+02  0.42125941031E+03  0.42361357111E+03  0.10000000000E+01 0.  0.
<mgrwt>
<rscale>  0 0.12499939E+03</rscale>
<asrwt>0</asrwt>
<pdfrwt beam="2">  1        4 0.12096210E-02 0.12499939E+03</pdfrwt>
<pdfrwt beam="1">  1       -4 0.76432799E-01 0.12499939E+03</pdfrwt>
<totfact> 0.55504148E+03</totfact>
</mgrwt>
</event>
<event>
 5    1  0.3277540E-002  0.1250008E+03  0.7818608E-02  0.1235068E+00
          4   -1    0    0  501    0  0.00000000000E+00  0.00000000000E+00  0.18441611269E+02  0.18485289454E+02  0.12700000000E+01 0. -1.
         -4   -1    0    0    0  501 -0.00000000000E+00 -0.00000000000E+00 -0.21152385184E+03  0.21152766437E+03  0.12700000000E+01 0. -1.
         25    2    1    2    0    0  0.00000000000E+00  0.00000000000E+00 -0.19308224057E+03  0.23001295383E+03  0.12500082922E+03 0.  0.
    9000005    1    3    3    0    0  0.57906035725E+02  0.23498730874E+02 -0.96449104303E+02  0.11492923495E+03  0.10000000000E+01 0.  0.
    9000005    1    3    3    0    0 -0.57906035725E+02 -0.23498730874E+02 -0.96633136263E+02  0.11508371888E+03  0.10000000000E+01 0.  0.
<mgrwt>
<rscale>  0 0.12500083E+03</rscale>
<asrwt>0</asrwt>
<pdfrwt beam="1">  1        4 0.28408243E-02 0.12500083E+03</pdfrwt>
<pdfrwt beam="2">  1       -4 0.32545782E-01 0.12500083E+03</pdfrwt>
<totfact> 0.85306030E+03</totfact>
</mgrwt>
</event>
<event>
 4    1  0.3277540E-002  0.1262191E+03  0.7818608E-02  0.1233176E+00
         -4   -1    0    0    0  501 -0.00000000000E+00  0.00000000000E+00  0.63966384317E+01  0.65214939413E+01  0.12700000000E+01 0. -1.
          4   -1    0    0  501    0  0.00000000000E+00 -0.00000000000E+00 -0.61649893330E+03  0.61650024141E+03  0.12700000000E+01 0. -1.
    9000005    1    1    2    0    0  0.31287358014E+01  0.31966072701E+01  0.56371055162E+01  0.72652766193E+01  0.10000000000E+01 0.  0.
    9000005    1    1    2    0    0 -0.31287358014E+01 -0.31966072701E+01 -0.61573940038E+03  0.61575645873E+03  0.10000000000E+01 0.  0.
<mgrwt>
<rscale>  0 0.12621914E+03</rscale>
<asrwt>0</asrwt>
<pdfrwt beam="2">  1        4 0.94855649E-01 0.12621914E+03</pdfrwt>
<pdfrwt beam="1">  1       -4 0.99380360E-03 0.12621914E+03</pdfrwt>
<totfact> 0.46200376E+03</totfact>
</mgrwt>
</event>
<event>
 5    1  0.3277540E-002  0.1250012E+03  0.7818608E-02  0.1235067E+00
         -4   -1    0    0    0  501 -0.00000000000E+00  0.00000000000E+00  0.24118698024E+02  0.24152111593E+02  0.12700000000E+01 0.  1.
          4   -1    0    0  501    0  0.00000000000E+00 -0.00000000000E+00 -0.16181461956E+03  0.16181960327E+03  0.12700000000E+01 0.  1.
         25    2    1    2    0    0  0.00000000000E+00  0.00000000000E+00 -0.13769592154E+03  0.18597171487E+03  0.12500124768E+03 0.  0.
    9000005    1    3    3    0    0  0.35780704178E+02  0.51179152536E+02 -0.65276244022E+02  0.90341311034E+02  0.10000000000E+01 0.  0.
    9000005    1    3    3    0    0 -0.35780704178E+02 -0.51179152536E+02 -0.72419677514E+02  0.95630403831E+02  0.10000000000E+01 0.  0.
<mgrwt>
<rscale>  0 0.12500125E+03</rscale>
<asrwt>0</asrwt>
<pdfrwt beam="2">  1        4 0.24897510E-01 0.12500125E+03</pdfrwt>
<pdfrwt beam="1">  1       -4 0.37135227E-02 0.12500125E+03</pdfrwt>
<totfact> 0.92550398E+03</totfact>
</mgrwt>
</event>
<event>
 5    1  0.3277540E-002  0.1249909E+03  0.7818608E-02  0.1235083E+00
         -4   -1    0    0    0  501 -0.00000000000E+00  0.00000000000E+00  0.56954093991E+03  0.56954235588E+03  0.12700000000E+01 0.  1.
          4   -1    0    0  501    0  0.00000000000E+00 -0.00000000000E+00 -0.67973635584E+01  0.69149874436E+01  0.12700000000E+01 0.  1.
         25    2    1    2    0    0  0.00000000000E+00  0.00000000000E+00  0.56274357635E+03  0.57645734332E+03  0.12499094343E+03 0.  0.
    9000005    1    3    3    0    0 -0.30310198749E+01  0.62347932142E+02  0.26813909650E+03  0.27531078220E+03  0.10000000000E+01 0.  0.
    9000005    1    3    3    0    0  0.30310198749E+01 -0.62347932142E+02  0.29460447986E+03  0.30114656112E+03  0.10000000000E+01 0.  0.
<mgrwt>
<rscale>  0 0.12499094E+03</rscale>
<asrwt>0</asrwt>
<pdfrwt beam="2">  1        4 0.10549046E-02 0.12499094E+03</pdfrwt>
<pdfrwt beam="1">  1       -4 0.87630884E-01 0.12499094E+03</pdfrwt>
<totfact> 0.50398225E+03</totfact>
</mgrwt>
</event>
<event>
 5    1  0.3277540E-002  0.1250415E+03  0.7818608E-02  0.1235005E+00
          4   -1    0    0  501    0  0.00000000000E+00  0.00000000000E+00  0.18391047567E+03  0.18391486063E+03  0.12700000000E+01 0. -1.
         -4   -1    0    0    0  501 -0.00000000000E+00 -0.00000000000E+00 -0.21230431273E+02  0.21268382920E+02  0.12700000000E+01 0. -1.
         25    2    1    2    0    0  0.00000000000E+00  0.00000000000E+00  0.16268004440E+03  0.20518324355E+03  0.12504145948E+03 0.  0.
    9000005    1    3    3    0    0  0.45664292611E+02 -0.17797763172E+02  0.17663513980E+02  0.52105544040E+02  0.10000000000E+01 0.  0.
    9000005    1    3    3    0    0 -0.45664292611E+02  0.17797763172E+02  0.14501653042E+03  0.15307769951E+03  0.10000000000E+01 0.  0.
<mgrwt>
<rscale>  0 0.12504146E+03</rscale>
<asrwt>0</asrwt>
<pdfrwt beam="1">  1        4 0.28297177E-01 0.12504146E+03</pdfrwt>
<pdfrwt beam="2">  1       -4 0.32694767E-02 0.12504146E+03</pdfrwt>
<totfact> 0.89185882E+03</totfact>
</mgrwt>
</event>
<event>
 5    1  0.3277540E-002  0.1249993E+03  0.7818608E-02  0.1235070E+00
          4   -1    0    0  501    0  0.00000000000E+00  0.00000000000E+00  0.62943247156E+02  0.62956058188E+02  0.12700000000E+01 0. -1.
         -4   -1    0    0    0  501 -0.00000000000E+00 -0.00000000000E+00 -0.62033546590E+02  0.62046545452E+02  0.12700000000E+01 0. -1.
         25    2    1    2    0    0  0.00000000000E+00  0.00000000000E+00  0.90970056618E+00  0.12500260364E+03  0.12499929344E+03 0.  0.
    9000005    1    3    3    0    0  0.39409344385E+02  0.47374376890E+02  0.10836735380E+02  0.62576855500E+02  0.10000000000E+01 0.  0.
    9000005    1    3    3    0    0 -0.39409344385E+02 -0.47374376890E+02 -0.99270348142E+01  0.62425748139E+02  0.10000000000E+01 0.  0.
<mgrwt>
<rscale>  0 0.12499929E+03</rscale>
<asrwt>0</asrwt>
<pdfrwt beam="1">  1        4 0.96855618E-02 0.12499929E+03</pdfrwt>
<pdfrwt beam="2">  1       -4 0.95456079E-02 0.12499929E+03</pdfrwt>
<totfact> 0.10452973E+04</totfact>
</mgrwt>
</event>
<event>
 5    1  0.3277540E-002  0.1250011E+03  0.7818608E-02  0.1235068E+00
          4   -1    0    0  501    0  0.00000000000E+00  0.00000000000E+00  0.24165899657E+03  0.24166233369E+03  0.12700000000E+01 0. -1.
         -4   -1    0    0    0  501 -0.00000000000E+00 -0.00000000000E+00 -0.16136188679E+02  0.16186089246E+02  0.12700000000E+01 0. -1.
         25    2    1    2    0    0  0.00000000000E+00  0.00000000000E+00  0.22552280789E+03  0.25784842294E+03  0.12500108932E+03 0.  0.
    9000005    1    3    3    0    0  0.46943589666E+02  0.40438110620E+02  0.12956717525E+03  0.14362309809E+03  0.10000000000E+01 0.  0.
    9000005    1    3    3    0    0 -0.46943589666E+02 -0.40438110620E+02  0.95955632640E+02  0.11422532485E+03  0.10000000000E+01 0.  0.
<mgrwt>
<rscale>  0 0.12500109E+03</rscale>
<asrwt>0</asrwt>
<pdfrwt beam="1">  1        4 0.37182401E-01 0.12500109E+03</pdfrwt>
<pdfrwt beam="2">  1       -4 0.24865858E-02 0.12500109E+03</pdfrwt>
<totfact> 0.81206986E+03</totfact>
</mgrwt>
</event>
<event>
 5    1  0.3277540E-002  0.1250002E+03  0.7818608E-02  0.1235069E+00
         -4   -1    0    0    0  501 -0.00000000000E+00  0.00000000000E+00  0.42608627292E+03  0.42608816561E+03  0.12700000000E+01 0. -1.
          4   -1    0    0  501    0  0.00000000000E+00 -0.00000000000E+00 -0.91218632249E+01  0.92098473762E+01  0.12700000000E+01 0. -1.
         25    2    1    2    0    0  0.00000000000E+00  0.00000000000E+00  0.41696440970E+03  0.43529801299E+03  0.12500016462E+03 0.  0.
    9000005    1    3    3    0    0 -0.62039564469E+01  0.61800836552E+02  0.18449980404E+03  0.19467668110E+03  0.10000000000E+01 0.  0.
    9000005    1    3    3    0    0  0.62039564469E+01 -0.61800836552E+02  0.23246460566E+03  0.24062133189E+03  0.10000000000E+01 0.  0.
<mgrwt>
<rscale>  0 0.12500016E+03</rscale>
<asrwt>0</asrwt>
<pdfrwt beam="2">  1        4 0.14102775E-02 0.12500016E+03</pdfrwt>
<pdfrwt beam="1">  1       -4 0.65558631E-01 0.12500016E+03</pdfrwt>
<totfact> 0.61258463E+03</totfact>
</mgrwt>
</event>
<event>
 5    1  0.3277540E-002  0.1250001E+03  0.7818608E-02  0.1235069E+00
          4   -1    0    0  501    0  0.00000000000E+00  0.00000000000E+00  0.96053177163E+03  0.96053261121E+03  0.12700000000E+01 0. -1.
         -4   -1    0    0    0  501 -0.00000000000E+00 -0.00000000000E+00 -0.39667483884E+01  0.41650921690E+01  0.12700000000E+01 0. -1.
         25    2    1    2    0    0  0.00000000000E+00  0.00000000000E+00  0.95656502324E+03  0.96469770338E+03  0.12500006091E+03 0.  0.
    9000005    1    3    3    0    0  0.13171274918E+02  0.56005804982E+02  0.66655363156E+03  0.66903279173E+03  0.10000000000E+01 0.  0.
    9000005    1    3    3    0    0 -0.13171274918E+02 -0.56005804982E+02  0.29001139168E+03  0.29566491165E+03  0.10000000000E+01 0.  0.
<mgrwt>
<rscale>  0 0.12500006E+03</rscale>
<asrwt>0</asrwt>
<pdfrwt beam="1">  1        4 0.14778957E+00 0.12500006E+03</pdfrwt>
<pdfrwt beam="2">  1       -4 0.62559021E-03 0.12500006E+03</pdfrwt>
<totfact> 0.31799752E+03</totfact>
</mgrwt>
</event>
<event>
 5    1  0.3277540E-002  0.1249997E+03  0.7818608E-02  0.1235070E+00
          4   -1    0    0  501    0  0.00000000000E+00  0.00000000000E+00  0.10068029988E+03  0.10068830957E+03  0.12700000000E+01 0. -1.
         -4   -1    0    0    0  501 -0.00000000000E+00 -0.00000000000E+00 -0.38778399333E+02  0.38799190131E+02  0.12700000000E+01 0. -1.
         25    2    1    2    0    0  0.00000000000E+00  0.00000000000E+00  0.61901900546E+02  0.13948749970E+03  0.12499966912E+03 0.  0.
    9000005    1    3    3    0    0 -0.23319280123E+02 -0.55877886042E+02  0.48206084626E+02  0.77401250435E+02  0.10000000000E+01 0.  0.
    9000005    1    3    3    0    0  0.23319280123E+02  0.55877886042E+02  0.13695815920E+02  0.62086249264E+02  0.10000000000E+01 0.  0.
<mgrwt>
<rscale>  0 0.12499967E+03</rscale>
<asrwt>0</asrwt>
<pdfrwt beam="1">  1        4 0.15491492E-01 0.12499967E+03</pdfrwt>
<pdfrwt beam="2">  1       -4 0.59681231E-02 0.12499967E+03</pdfrwt>
<totfact> 0.10144294E+04</totfact>
</mgrwt>
</event>
<event>
 5    1  0.3277540E-002  0.1250168E+03  0.7818608E-02  0.1235043E+00
          4   -1    0    0  501    0  0.00000000000E+00  0.00000000000E+00  0.23166474952E+01  0.26419227121E+01  0.12700000000E+01 0. -1.
         -4   -1    0    0    0  501 -0.00000000000E+00 -0.00000000000E+00 -0.15756534712E+04  0.15756539830E+04  0.12700000000E+01 0. -1.
         25    2    1    2    0    0  0.00000000000E+00  0.00000000000E+00 -0.15733368237E+04  0.15782959057E+04  0.12501681976E+03 0.  0.
    9000005    1    3    3    0    0  0.36795971428E+02 -0.20613043320E+02 -0.20436315752E+03  0.20867232979E+03  0.10000000000E+01 0.  0.
    9000005    1    3    3    0    0 -0.36795971428E+02  0.20613043320E+02 -0.13689736662E+04  0.13696235759E+04  0.10000000000E+01 0.  0.
<mgrwt>
<rscale>  0 0.12501682E+03</rscale>
<asrwt>0</asrwt>
<pdfrwt beam="1">  1        4 0.38146911E-03 0.12501682E+03</pdfrwt>
<pdfrwt beam="2">  1       -4 0.24243249E+00 0.12501682E+03</pdfrwt>
<totfact> 0.16435691E+03</totfact>
</mgrwt>
</event>
<event>
 5    1  0.3277540E-002  0.1250080E+03  0.7818608E-02  0.1235057E+00
         -4   -1    0    0    0  501 -0.00000000000E+00  0.00000000000E+00  0.33642732142E+02  0.33666694610E+02  0.12700000000E+01 0. -1.
          4   -1    0    0  501    0  0.00000000000E+00 -0.00000000000E+00 -0.11605592088E+03  0.11606286947E+03  0.12700000000E+01 0. -1.
         25    2    1    2    0    0  0.00000000000E+00  0.00000000000E+00 -0.82413188735E+02  0.14972956409E+03  0.12500803448E+03 0.  0.
    9000005    1    3    3    0    0 -0.53860653509E+02 -0.31196999745E+02 -0.47932137443E+02  0.78566612434E+02  0.10000000000E+01 0.  0.
    9000005    1    3    3    0    0  0.53860653509E+02  0.31196999745E+02 -0.34481051292E+02  0.71162951651E+02  0.10000000000E+01 0.  0.
<mgrwt>
<rscale>  0 0.12500803E+03</rscale>
<asrwt>0</asrwt>
<pdfrwt beam="2">  1        4 0.17857135E-01 0.12500803E+03</pdfrwt>
<pdfrwt beam="1">  1       -4 0.51781828E-02 0.12500803E+03</pdfrwt>
<totfact> 0.99339668E+03</totfact>
</mgrwt>
</event>
<event>
 4    1  0.3277540E-002  0.1250687E+03  0.7818608E-02  0.1234962E+00
         -4   -1    0    0    0  501 -0.00000000000E+00  0.00000000000E+00  0.78193964896E+01  0.79218597224E+01  0.12700000000E+01 0. -1.
          4   -1    0    0  501    0  0.00000000000E+00 -0.00000000000E+00 -0.49674975380E+03  0.49675137725E+03  0.12700000000E+01 0. -1.
    9000005    1    1    2    0    0 -0.43402571618E+02  0.44659619298E+02 -0.26703350703E+03  0.27420094583E+03  0.10000000000E+01 0.  0.
    9000005    1    1    2    0    0  0.43402571618E+02 -0.44659619298E+02 -0.22189685028E+03  0.23047229114E+03  0.10000000000E+01 0.  0.
<mgrwt>
<rscale>  0 0.12506871E+03</rscale>
<asrwt>0</asrwt>
<pdfrwt beam="2">  1        4 0.76431021E-01 0.12506871E+03</pdfrwt>
<pdfrwt beam="1">  1       -4 0.12109911E-02 0.12506871E+03</pdfrwt>
<totfact> 0.55419848E+03</totfact>
</mgrwt>
</event>
<event>
 5    1  0.3277540E-002  0.1250103E+03  0.7818608E-02  0.1235053E+00
          4   -1    0    0  501    0  0.00000000000E+00  0.00000000000E+00  0.20446087907E+02  0.20485492688E+02  0.12700000000E+01 0.  1.
         -4   -1    0    0    0  501 -0.00000000000E+00 -0.00000000000E+00 -0.19085713567E+03  0.19086136103E+03  0.12700000000E+01 0.  1.
         25    2    1    2    0    0  0.00000000000E+00  0.00000000000E+00 -0.17041104776E+03  0.21134685372E+03  0.12501026909E+03 0.  0.
    9000005    1    3    3    0    0 -0.27700427872E+02  0.42840980120E+02 -0.24173131805E+02  0.56462408585E+02  0.10000000000E+01 0.  0.
    9000005    1    3    3    0    0  0.27700427872E+02 -0.42840980120E+02 -0.14623791596E+03  0.15488444514E+03  0.10000000000E+01 0.  0.
<mgrwt>
<rscale>  0 0.12501027E+03</rscale>
<asrwt>0</asrwt>
<pdfrwt beam="1">  1        4 0.31489083E-02 0.12501027E+03</pdfrwt>
<pdfrwt beam="2">  1       -4 0.29365991E-01 0.12501027E+03</pdfrwt>
<totfact> 0.88236137E+03</totfact>
</mgrwt>
</event>
<event>
 5    1  0.3277540E-002  0.1250004E+03  0.7818608E-02  0.1235069E+00
         -4   -1    0    0    0  501 -0.00000000000E+00  0.00000000000E+00  0.13503269564E+02  0.13562860647E+02  0.12700000000E+01 0.  1.
          4   -1    0    0  501    0  0.00000000000E+00 -0.00000000000E+00 -0.28858561663E+03  0.28858841110E+03  0.12700000000E+01 0.  1.
         25    2    1    2    0    0  0.00000000000E+00  0.00000000000E+00 -0.27508234706E+03  0.30215127175E+03  0.12500037342E+03 0.  0.
    9000005    1    3    3    0    0  0.15553311794E+02  0.55594989691E+02 -0.19538080225E+03  0.20373356688E+03  0.10000000000E+01 0.  0.
    9000005    1    3    3    0    0 -0.15553311794E+02 -0.55594989691E+02 -0.79701544814E+02  0.98417704872E+02  0.10000000000E+01 0.  0.
<mgrwt>
<rscale>  0 0.12500037E+03</rscale>
<asrwt>0</asrwt>
<pdfrwt beam="2">  1        4 0.44402582E-01 0.12500037E+03</pdfrwt>
<pdfrwt beam="1">  1       -4 0.20822252E-02 0.12500037E+03</pdfrwt>
<totfact> 0.75329155E+03</totfact>
</mgrwt>
</event>
<event>
 5    1  0.3277540E-002  0.1250007E+03  0.7818608E-02  0.1235068E+00
          4   -1    0    0  501    0  0.00000000000E+00  0.00000000000E+00  0.43883313814E+02  0.43901687112E+02  0.12700000000E+01 0.  1.
         -4   -1    0    0    0  501 -0.00000000000E+00 -0.00000000000E+00 -0.88973962540E+02  0.88983025966E+02  0.12700000000E+01 0.  1.
         25    2    1    2    0    0  0.00000000000E+00  0.00000000000E+00 -0.45090648726E+02  0.13288471308E+03  0.12500072147E+03 0.  0.
    9000005    1    3    3    0    0 -0.37541134809E+02  0.38045629103E+02  0.11877326930E+02  0.54762008652E+02  0.10000000000E+01 0.  0.
    9000005    1    3    3    0    0  0.37541134809E+02 -0.38045629103E+02 -0.56967975656E+02  0.78122704426E+02  0.10000000000E+01 0.  0.
<mgrwt>
<rscale>  0 0.12500072E+03</rscale>
<asrwt>0</asrwt>
<pdfrwt beam="1">  1        4 0.67533896E-02 0.12500072E+03</pdfrwt>
<pdfrwt beam="2">  1       -4 0.13690412E-01 0.12500072E+03</pdfrwt>
<totfact> 0.10282683E+04</totfact>
</mgrwt>
</event>
<event>
 5    1  0.3277540E-002  0.1250002E+03  0.7818608E-02  0.1235069E+00
         -4   -1    0    0    0  501 -0.00000000000E+00  0.00000000000E+00  0.14252488595E+03  0.14253054415E+03  0.12700000000E+01 0.  1.
          4   -1    0    0  501    0  0.00000000000E+00 -0.00000000000E+00 -0.27386654107E+02  0.27416085118E+02  0.12700000000E+01 0.  1.
         25    2    1    2    0    0  0.00000000000E+00  0.00000000000E+00  0.11513823184E+03  0.16994662926E+03  0.12500017747E+03 0.  0.
    9000005    1    3    3    0    0 -0.27054358752E+02 -0.55611796330E+02  0.45359374624E+02  0.76701258692E+02  0.10000000000E+01 0.  0.
    9000005    1    3    3    0    0  0.27054358752E+02  0.55611796330E+02  0.69778857217E+02  0.93245370572E+02  0.10000000000E+01 0.  0.
<mgrwt>
<rscale>  0 0.12500018E+03</rscale>
<asrwt>0</asrwt>
<pdfrwt beam="2">  1        4 0.42160305E-02 0.12500018E+03</pdfrwt>
<pdfrwt beam="1">  1       -4 0.21929605E-01 0.12500018E+03</pdfrwt>
<totfact> 0.95458204E+03</totfact>
</mgrwt>
</event>
<event>
 5    1  0.3277540E-002  0.1249966E+03  0.7818608E-02  0.1235075E+00
         -4   -1    0    0    0  501 -0.00000000000E+00  0.00000000000E+00  0.26688333872E+04  0.26688336893E+04  0.12700000000E+01 0. -1.
          4   -1    0    0  501    0  0.00000000000E+00 -0.00000000000E+00 -0.11877099439E+01  0.17388372296E+01  0.12700000000E+01 0. -1.
         25    2    1    2    0    0  0.00000000000E+00  0.00000000000E+00  0.26676456772E+04  0.26705725266E+04  0.12499664180E+03 0.  0.
    9000005    1    3    3    0    0  0.92720283341E+01  0.54662876019E+02  0.71791335846E+03  0.72005179728E+03  0.10000000000E+01 0.  0.
    9000005    1    3    3    0    0 -0.92720283341E+01 -0.54662876019E+02  0.19497323188E+04  0.19505207293E+04  0.10000000000E+01 0.  0.
<mgrwt>
<rscale>  0 0.12499664E+03</rscale>
<asrwt>0</asrwt>
<pdfrwt beam="2">  1        4 0.22514152E-03 0.12499664E+03</pdfrwt>
<pdfrwt beam="1">  1       -4 0.41063352E+00 0.12499664E+03</pdfrwt>
<totfact> 0.34638712E+02</totfact>
</mgrwt>
</event>
<event>
 5    1  0.3277540E-002  0.1249998E+03  0.7818608E-02  0.1235070E+00
          4   -1    0    0  501    0  0.00000000000E+00  0.00000000000E+00  0.90540501277E+03  0.90540590347E+03  0.12700000000E+01 0. -1.
         -4   -1    0    0    0  501 -0.00000000000E+00 -0.00000000000E+00 -0.42199775815E+01  0.44069389363E+01  0.12700000000E+01 0. -1.
         25    2    1    2    0    0  0.00000000000E+00  0.00000000000E+00  0.90118503519E+03  0.90981284241E+03  0.12499976228E+03 0.  0.
    9000005    1    3    3    0    0  0.40305338748E+02 -0.46276512243E+02  0.36471859813E+03  0.36984684903E+03  0.10000000000E+01 0.  0.
    9000005    1    3    3    0    0 -0.40305338748E+02  0.46276512243E+02  0.53646643706E+03  0.53996599338E+03  0.10000000000E+01 0.  0.
<mgrwt>
<rscale>  0 0.12499976E+03</rscale>
<asrwt>0</asrwt>
<pdfrwt beam="1">  1        4 0.13930761E+00 0.12499976E+03</pdfrwt>
<pdfrwt beam="2">  1       -4 0.66367710E-03 0.12499976E+03</pdfrwt>
<totfact> 0.33787107E+03</totfact>
</mgrwt>
</event>
<event>
 5    1  0.3277540E-002  0.1249912E+03  0.7818608E-02  0.1235083E+00
          4   -1    0    0  501    0  0.00000000000E+00  0.00000000000E+00  0.38816920320E+02  0.38837690497E+02  0.12700000000E+01 0.  1.
         -4   -1    0    0    0  501 -0.00000000000E+00 -0.00000000000E+00 -0.10056677484E+03  0.10057479357E+03  0.12700000000E+01 0.  1.
         25    2    1    2    0    0  0.00000000000E+00  0.00000000000E+00 -0.61749854519E+02  0.13941248407E+03  0.12499118441E+03 0.  0.
    9000005    1    3    3    0    0 -0.33685551095E+02  0.36388165502E+02 -0.73286953720E+02  0.88491765305E+02  0.10000000000E+01 0.  0.
    9000005    1    3    3    0    0  0.33685551095E+02 -0.36388165502E+02  0.11537099201E+02  0.50920718761E+02  0.10000000000E+01 0.  0.
<mgrwt>
<rscale>  0 0.12499118E+03</rscale>
<asrwt>0</asrwt>
<pdfrwt beam="1">  1        4 0.59740485E-02 0.12499118E+03</pdfrwt>
<pdfrwt beam="2">  1       -4 0.15474026E-01 0.12499118E+03</pdfrwt>
<totfact> 0.10147792E+04</totfact>
</mgrwt>
</event>
<event>
 5    1  0.3277540E-002  0.1250000E+03  0.7818608E-02  0.1235069E+00
         -4   -1    0    0    0  501 -0.00000000000E+00  0.00000000000E+00  0.19060645811E+02  0.19102908646E+02  0.12700000000E+01 0.  1.
          4   -1    0    0  501    0  0.00000000000E+00 -0.00000000000E+00 -0.20466693230E+03  0.20467087256E+03  0.12700000000E+01 0.  1.
         25    2    1    2    0    0  0.00000000000E+00  0.00000000000E+00 -0.18560628648E+03  0.22377378121E+03  0.12500004630E+03 0.  0.
    9000005    1    3    3    0    0  0.50808882384E+02 -0.16820909136E+02 -0.35049968522E+02  0.63984262180E+02  0.10000000000E+01 0.  0.
    9000005    1    3    3    0    0 -0.50808882384E+02  0.16820909136E+02 -0.15055631796E+03  0.15978951903E+03  0.10000000000E+01 0.  0.
<mgrwt>
<rscale>  0 0.12500005E+03</rscale>
<asrwt>0</asrwt>
<pdfrwt beam="2">  1        4 0.31490773E-01 0.12500005E+03</pdfrwt>
<pdfrwt beam="1">  1       -4 0.29359613E-02 0.12500005E+03</pdfrwt>
<totfact> 0.86274610E+03</totfact>
</mgrwt>
</event>
<event>
 5    1  0.3277540E-002  0.1249966E+03  0.7818608E-02  0.1235075E+00
         -4   -1    0    0    0  501 -0.00000000000E+00  0.00000000000E+00  0.14295720853E+02  0.14352021973E+02  0.12700000000E+01 0.  1.
          4   -1    0    0  501    0  0.00000000000E+00 -0.00000000000E+00 -0.27263651057E+03  0.27263946852E+03  0.12700000000E+01 0.  1.
         25    2    1    2    0    0  0.00000000000E+00  0.00000000000E+00 -0.25834078972E+03  0.28699149050E+03  0.12499660790E+03 0.  0.
    9000005    1    3    3    0    0 -0.14168460296E+02 -0.10761528855E+01  0.10548628961E+02  0.17725037239E+02  0.10000000000E+01 0.  0.
    9000005    1    3    3    0    0  0.14168460296E+02  0.10761528855E+01 -0.26888941868E+03  0.26926645326E+03  0.10000000000E+01 0.  0.
<mgrwt>
<rscale>  0 0.12499661E+03</rscale>
<asrwt>0</asrwt>
<pdfrwt beam="2">  1        4 0.41948633E-01 0.12499661E+03</pdfrwt>
<pdfrwt beam="1">  1       -4 0.22039003E-02 0.12499661E+03</pdfrwt>
<totfact> 0.77265949E+03</totfact>
</mgrwt>
</event>
<event>
 5    1  0.3277540E-002  0.1249774E+03  0.7818608E-02  0.1235105E+00
         -4   -1    0    0    0  501 -0.00000000000E+00  0.00000000000E+00  0.16486457582E+03  0.16486946734E+03  0.12700000000E+01 0.  1.
          4   -1    0    0  501    0  0.00000000000E+00 -0.00000000000E+00 -0.23662859534E+02  0.23696915861E+02  0.12700000000E+01 0.  1.
         25    2    1    2    0    0  0.00000000000E+00  0.00000000000E+00  0.14120171629E+03  0.18856638320E+03  0.12497742273E+03 0.  0.
    9000005    1    3    3    0    0 -0.12139563133E+01 -0.16734386128E+02 -0.20207631838E+02  0.26284249152E+02  0.10000000000E+01 0.  0.
    9000005    1    3    3    0    0  0.12139563133E+01  0.16734386128E+02  0.16140934813E+03  0.16228213405E+03  0.10000000000E+01 0.  0.
<mgrwt>
<rscale>  0 0.12497742E+03</rscale>
<asrwt>0</asrwt>
<pdfrwt beam="2">  1        4 0.36434359E-02 0.12497742E+03</pdfrwt>
<pdfrwt beam="1">  1       -4 0.25366777E-01 0.12497742E+03</pdfrwt>
<totfact> 0.92143956E+03</totfact>
</mgrwt>
</event>
<event>
 5    1  0.3277540E-002  0.1250017E+03  0.7818608E-02  0.1235067E+00
         -4   -1    0    0    0  501 -0.00000000000E+00  0.00000000000E+00  0.54458943357E+03  0.54459091441E+03  0.12700000000E+01 0.  1.
          4   -1    0    0  501    0  0.00000000000E+00 -0.00000000000E+00 -0.71153187251E+01  0.72277700960E+01  0.12700000000E+01 0.  1.
         25    2    1    2    0    0  0.00000000000E+00  0.00000000000E+00  0.53747411484E+03  0.55181868450E+03  0.12500174575E+03 0.  0.
    9000005    1    3    3    0    0  0.51532223506E+02  0.11219540770E+02  0.41673179587E+03  0.42005694595E+03  0.10000000000E+01 0.  0.
    9000005    1    3    3    0    0 -0.51532223506E+02 -0.11219540770E+02  0.12074231897E+03  0.13176173855E+03  0.10000000000E+01 0.  0.
<mgrwt>
<rscale>  0 0.12500175E+03</rscale>
<asrwt>0</asrwt>
<pdfrwt beam="2">  1        4 0.11034285E-02 0.12500175E+03</pdfrwt>
<pdfrwt beam="1">  1       -4 0.83791749E-01 0.12500175E+03</pdfrwt>
<totfact> 0.52055407E+03</totfact>
</mgrwt>
</event>
<event>
 5    1  0.3277540E-002  0.1250012E+03  0.7818608E-02  0.1235067E+00
         -4   -1    0    0    0  501 -0.00000000000E+00  0.00000000000E+00  0.18284227424E+04  0.18284231835E+04  0.12700000000E+01 0. -1.
          4   -1    0    0  501    0  0.00000000000E+00 -0.00000000000E+00 -0.19472297236E+01  0.23247803330E+01  0.12700000000E+01 0. -1.
         25    2    1    2    0    0  0.00000000000E+00  0.00000000000E+00  0.18264755127E+04  0.18307479638E+04  0.12500123414E+03 0.  0.
    9000005    1    3    3    0    0 -0.55649938837E+02  0.20259287111E+02  0.12054113180E+04  0.12068656926E+04  0.10000000000E+01 0.  0.
    9000005    1    3    3    0    0  0.55649938837E+02 -0.20259287111E+02  0.62106419469E+03  0.62388227121E+03  0.10000000000E+01 0.  0.
<mgrwt>
<rscale>  0 0.12500123E+03</rscale>
<asrwt>0</asrwt>
<pdfrwt beam="2">  1        4 0.32864983E-03 0.12500123E+03</pdfrwt>
<pdfrwt beam="1">  1       -4 0.28132510E+00 0.12500123E+03</pdfrwt>
<totfact> 0.12235357E+03</totfact>
</mgrwt>
</event>
<event>
 5    1  0.3277540E-002  0.1249993E+03  0.7818608E-02  0.1235070E+00
          4   -1    0    0  501    0  0.00000000000E+00  0.00000000000E+00  0.15453835646E+03  0.15454357481E+03  0.12700000000E+01 0.  1.
         -4   -1    0    0    0  501 -0.00000000000E+00 -0.00000000000E+00 -0.25255018584E+02  0.25286930690E+02  0.12700000000E+01 0.  1.
         25    2    1    2    0    0  0.00000000000E+00  0.00000000000E+00  0.12928333787E+03  0.17983050550E+03  0.12499931703E+03 0.  0.
    9000005    1    3    3    0    0  0.24034563214E+02  0.10615037274E+02  0.14621295370E+03  0.14855829520E+03  0.10000000000E+01 0.  0.
    9000005    1    3    3    0    0 -0.24034563214E+02 -0.10615037274E+02 -0.16929615823E+02  0.31272210301E+02  0.10000000000E+01 0.  0.
<mgrwt>
<rscale>  0 0.12499932E+03</rscale>
<asrwt>0</asrwt>
<pdfrwt beam="1">  1        4 0.23777988E-01 0.12499932E+03</pdfrwt>
<pdfrwt beam="2">  1       -4 0.38882436E-02 0.12499932E+03</pdfrwt>
<totfact> 0.93648955E+03</totfact>
</mgrwt>
</event>
<event>
 5    1  0.3277540E-002  0.1249939E+03  0.7818608E-02  0.1235079E+00
          4   -1    0    0  501    0  0.00000000000E+00  0.00000000000E+00  0.28719167028E+02  0.28747233863E+02  0.12700000000E+01 0.  1.
         -4   -1    0    0    0  501 -0.00000000000E+00 -0.00000000000E+00 -0.13590473061E+03  0.13591066442E+03  0.12700000000E+01 0.  1.
         25    2    1    2    0    0  0.00000000000E+00  0.00000000000E+00 -0.10718556359E+03  0.16465789828E+03  0.12499391356E+03 0.  0.
    9000005    1    3    3    0    0  0.38749210687E+02  0.41222642554E+02 -0.18638598449E+02  0.59575204071E+02  0.10000000000E+01 0.  0.
    9000005    1    3    3    0    0 -0.38749210687E+02 -0.41222642554E+02 -0.88546965138E+02  0.10508269421E+03  0.10000000000E+01 0.  0.
<mgrwt>
<rscale>  0 0.12499391E+03</rscale>
<asrwt>0</asrwt>
<pdfrwt beam="1">  1        4 0.44209489E-02 0.12499391E+03</pdfrwt>
<pdfrwt beam="2">  1       -4 0.20911035E-01 0.12499391E+03</pdfrwt>
<totfact> 0.96465410E+03</totfact>
</mgrwt>
</event>
<event>
 5    1  0.3277540E-002  0.1250043E+03  0.7818608E-02  0.1235063E+00
         -4   -1    0    0    0  501 -0.00000000000E+00  0.00000000000E+00  0.36247890159E+02  0.36270131527E+02  0.12700000000E+01 0. -1.
          4   -1    0    0  501    0  0.00000000000E+00 -0.00000000000E+00 -0.10771323139E+03  0.10772071814E+03  0.12700000000E+01 0. -1.
         25    2    1    2    0    0  0.00000000000E+00  0.00000000000E+00 -0.71465341229E+02  0.14399084966E+03  0.12500427909E+03 0.  0.
    9000005    1    3    3    0    0 -0.21640123017E+02 -0.38113290315E+02  0.15582581508E+02  0.46526709203E+02  0.10000000000E+01 0.  0.
    9000005    1    3    3    0    0  0.21640123017E+02  0.38113290315E+02 -0.87047922737E+02  0.97464140460E+02  0.10000000000E+01 0.  0.
<mgrwt>
<rscale>  0 0.12500428E+03</rscale>
<asrwt>0</asrwt>
<pdfrwt beam="2">  1        4 0.16573553E-01 0.12500428E+03</pdfrwt>
<pdfrwt beam="1">  1       -4 0.55788853E-02 0.12500428E+03</pdfrwt>
<totfact> 0.10050564E+04</totfact>
</mgrwt>
</event>
<event>
 5    1  0.3277540E-002  0.1250103E+03  0.7818608E-02  0.1235053E+00
         -4   -1    0    0    0  501 -0.00000000000E+00  0.00000000000E+00  0.61677234002E+03  0.61677364756E+03  0.12700000000E+01 0.  1.
          4   -1    0    0  501    0  0.00000000000E+00 -0.00000000000E+00 -0.62694307366E+01  0.63967696348E+01  0.12700000000E+01 0.  1.
         25    2    1    2    0    0  0.00000000000E+00  0.00000000000E+00  0.61050290929E+03  0.62317041719E+03  0.12501026603E+03 0.  0.
    9000005    1    3    3    0    0 -0.54126868685E+02 -0.16860783142E+02  0.43637448091E+03  0.44004282918E+03  0.10000000000E+01 0.  0.
    9000005    1    3    3    0    0  0.54126868685E+02  0.16860783142E+02  0.17412842838E+03  0.18312758801E+03  0.10000000000E+01 0.  0.
<mgrwt>
<rscale>  0 0.12501027E+03</rscale>
<asrwt>0</asrwt>
<pdfrwt beam="2">  1        4 0.97442340E-03 0.12501027E+03</pdfrwt>
<pdfrwt beam="1">  1       -4 0.94897976E-01 0.12501027E+03</pdfrwt>
<totfact> 0.47426263E+03</totfact>
</mgrwt>
</event>
<event>
 5    1  0.3277540E-002  0.1250038E+03  0.7818608E-02  0.1235063E+00
          4   -1    0    0  501    0  0.00000000000E+00  0.00000000000E+00  0.70218069621E+02  0.70229553617E+02  0.12700000000E+01 0.  1.
         -4   -1    0    0    0  501 -0.00000000000E+00 -0.00000000000E+00 -0.55610324631E+02  0.55624824544E+02  0.12700000000E+01 0.  1.
         25    2    1    2    0    0  0.00000000000E+00  0.00000000000E+00  0.14607744990E+02  0.12585437816E+03  0.12500375310E+03 0.  0.
    9000005    1    3    3    0    0  0.20342843673E+02 -0.10517544421E+02 -0.51238467776E+02  0.56132259970E+02  0.10000000000E+01 0.  0.
    9000005    1    3    3    0    0 -0.20342843673E+02  0.10517544421E+02  0.65846212766E+02  0.69722118190E+02  0.10000000000E+01 0.  0.
<mgrwt>
<rscale>  0 0.12500375E+03</rscale>
<asrwt>0</asrwt>
<pdfrwt beam="1">  1        4 0.10804779E-01 0.12500375E+03</pdfrwt>
<pdfrwt beam="2">  1       -4 0.85574333E-02 0.12500375E+03</pdfrwt>
<totfact> 0.10433267E+04</totfact>
</mgrwt>
</event>
<event>
 5    1  0.3277540E-002  0.1250001E+03  0.7818608E-02  0.1235069E+00
          4   -1    0    0  501    0  0.00000000000E+00  0.00000000000E+00  0.10175226581E+03  0.10176019113E+03  0.12700000000E+01 0.  1.
         -4   -1    0    0    0  501 -0.00000000000E+00 -0.00000000000E+00 -0.38369954422E+02  0.38390966416E+02  0.12700000000E+01 0.  1.
         25    2    1    2    0    0  0.00000000000E+00  0.00000000000E+00  0.63382311390E+02  0.14015115754E+03  0.12500011825E+03 0.  0.
    9000005    1    3    3    0    0 -0.94945101191E+01 -0.59716936531E+02  0.49383492811E+02  0.78076805732E+02  0.10000000000E+01 0.  0.
    9000005    1    3    3    0    0  0.94945101191E+01  0.59716936531E+02  0.13998818579E+02  0.62074351810E+02  0.10000000000E+01 0.  0.
<mgrwt>
<rscale>  0 0.12500012E+03</rscale>
<asrwt>0</asrwt>
<pdfrwt beam="1">  1        4 0.15656420E-01 0.12500012E+03</pdfrwt>
<pdfrwt beam="2">  1       -4 0.59052960E-02 0.12500012E+03</pdfrwt>
<totfact> 0.10130427E+04</totfact>
</mgrwt>
</event>
<event>
 5    1  0.3277540E-002  0.1249981E+03  0.7818608E-02  0.1235072E+00
          4   -1    0    0  501    0  0.00000000000E+00  0.00000000000E+00  0.23601292259E+03  0.23601633954E+03  0.12700000000E+01 0. -1.
         -4   -1    0    0    0  501 -0.00000000000E+00 -0.00000000000E+00 -0.16522593584E+02  0.16571330627E+02  0.12700000000E+01 0. -1.
         25    2    1    2    0    0  0.00000000000E+00  0.00000000000E+00  0.21949032901E+03  0.25258767017E+03  0.12499810636E+03 0.  0.
    9000005    1    3    3    0    0 -0.41158588267E+02 -0.40154063284E+01  0.15072657981E+02  0.44026558970E+02  0.10000000000E+01 0.  0.
    9000005    1    3    3    0    0  0.41158588267E+02  0.40154063284E+01  0.20441767103E+03  0.20856111120E+03  0.10000000000E+01 0.  0.
<mgrwt>
<rscale>  0 0.12499811E+03</rscale>
<asrwt>0</asrwt>
<pdfrwt beam="1">  1        4 0.36313690E-01 0.12499811E+03</pdfrwt>
<pdfrwt beam="2">  1       -4 0.25459495E-02 0.12499811E+03</pdfrwt>
<totfact> 0.81961119E+03</totfact>
</mgrwt>
</event>
<event>
 5    1  0.3277540E-002  0.1249962E+03  0.7818608E-02  0.1235075E+00
         -4   -1    0    0    0  501 -0.00000000000E+00  0.00000000000E+00  0.77205180186E+02  0.77215625023E+02  0.12700000000E+01 0.  1.
          4   -1    0    0  501    0  0.00000000000E+00 -0.00000000000E+00 -0.50570786293E+02  0.50586730733E+02  0.12700000000E+01 0.  1.
         25    2    1    2    0    0  0.00000000000E+00  0.00000000000E+00  0.26634393894E+02  0.12780235576E+03  0.12499620474E+03 0.  0.
    9000005    1    3    3    0    0 -0.18379565691E+02  0.39676954278E+02  0.58961811457E+02  0.73413652314E+02  0.10000000000E+01 0.  0.
    9000005    1    3    3    0    0  0.18379565691E+02 -0.39676954278E+02 -0.32327417563E+02  0.54388703442E+02  0.10000000000E+01 0.  0.
<mgrwt>
<rscale>  0 0.12499620E+03</rscale>
<asrwt>0</asrwt>
<pdfrwt beam="2">  1        4 0.77821509E-02 0.12499620E+03</pdfrwt>
<pdfrwt beam="1">  1       -4 0.11879750E-01 0.12499620E+03</pdfrwt>
<totfact> 0.10392649E+04</totfact>
</mgrwt>
</event>
<event>
 5    1  0.3277540E-002  0.1249997E+03  0.7818608E-02  0.1235070E+00
          4   -1    0    0  501    0  0.00000000000E+00  0.00000000000E+00  0.45832136491E+02  0.45849728847E+02  0.12700000000E+01 0.  1.
         -4   -1    0    0    0  501 -0.00000000000E+00 -0.00000000000E+00 -0.85190401463E+02  0.85199867379E+02  0.12700000000E+01 0.  1.
         25    2    1    2    0    0  0.00000000000E+00  0.00000000000E+00 -0.39358264972E+02  0.13104959623E+03  0.12499969460E+03 0.  0.
    9000005    1    3    3    0    0 -0.68535997266E+01  0.23857682305E+02  0.40447004043E+02  0.47467051417E+02  0.10000000000E+01 0.  0.
    9000005    1    3    3    0    0  0.68535997266E+01 -0.23857682305E+02 -0.79805269015E+02  0.83582544809E+02  0.10000000000E+01 0.  0.
<mgrwt>
<rscale>  0 0.12499969E+03</rscale>
<asrwt>0</asrwt>
<pdfrwt beam="1">  1        4 0.70531793E-02 0.12499969E+03</pdfrwt>
<pdfrwt beam="2">  1       -4 0.13108297E-01 0.12499969E+03</pdfrwt>
<totfact> 0.10322097E+04</totfact>
</mgrwt>
</event>
<event>
 5    1  0.3277540E-002  0.1250135E+03  0.7818608E-02  0.1235048E+00
          4   -1    0    0  501    0  0.00000000000E+00  0.00000000000E+00  0.21231720136E+03  0.21232099965E+03  0.12700000000E+01 0. -1.
         -4   -1    0    0    0  501 -0.00000000000E+00 -0.00000000000E+00 -0.18376272114E+02  0.18420105233E+02  0.12700000000E+01 0. -1.
         25    2    1    2    0    0  0.00000000000E+00  0.00000000000E+00  0.19394092925E+03  0.23074110488E+03  0.12501349306E+03 0.  0.
    9000005    1    3    3    0    0 -0.19190074668E+02 -0.48981674030E+02  0.34688917854E+02  0.63022094367E+02  0.10000000000E+01 0.  0.
    9000005    1    3    3    0    0  0.19190074668E+02  0.48981674030E+02  0.15925201139E+03  0.16771901052E+03  0.10000000000E+01 0.  0.
<mgrwt>
<rscale>  0 0.12501349E+03</rscale>
<asrwt>0</asrwt>
<pdfrwt beam="1">  1        4 0.32667848E-01 0.12501349E+03</pdfrwt>
<pdfrwt beam="2">  1       -4 0.28307828E-02 0.12501349E+03</pdfrwt>
<totfact> 0.85170287E+03</totfact>
</mgrwt>
</event>
<event>
 5    1  0.3277540E-002  0.1250088E+03  0.7818608E-02  0.1235056E+00
         -4   -1    0    0    0  501 -0.00000000000E+00  0.00000000000E+00  0.45263003261E+02  0.45280816735E+02  0.12700000000E+01 0.  1.
          4   -1    0    0  501    0  0.00000000000E+00 -0.00000000000E+00 -0.86273822661E+02  0.86283169718E+02  0.12700000000E+01 0.  1.
         25    2    1    2    0    0  0.00000000000E+00  0.00000000000E+00 -0.41010819401E+02  0.13156398645E+03  0.12500878059E+03 0.  0.
    9000005    1    3    3    0    0  0.55364369983E+02  0.24219862998E+02 -0.37328508426E+01  0.60553690248E+02  0.10000000000E+01 0.  0.
    9000005    1    3    3    0    0 -0.55364369983E+02 -0.24219862998E+02 -0.37277968558E+02  0.71010296205E+02  0.10000000000E+01 0.  0.
<mgrwt>
<rscale>  0 0.12500878E+03</rscale>
<asrwt>0</asrwt>
<pdfrwt beam="2">  1        4 0.13274985E-01 0.12500878E+03</pdfrwt>
<pdfrwt beam="1">  1       -4 0.69656283E-02 0.12500878E+03</pdfrwt>
<totfact> 0.10308971E+04</totfact>
</mgrwt>
</event>
<event>
 5    1  0.3277540E-002  0.1249977E+03  0.7818608E-02  0.1235073E+00
          4   -1    0    0  501    0  0.00000000000E+00  0.00000000000E+00  0.14749190517E+03  0.14749737283E+03  0.12700000000E+01 0. -1.
         -4   -1    0    0    0  501 -0.00000000000E+00 -0.00000000000E+00 -0.26462330227E+02  0.26492788095E+02  0.12700000000E+01 0. -1.
         25    2    1    2    0    0  0.00000000000E+00  0.00000000000E+00  0.12102957494E+03  0.17399016092E+03  0.12499767233E+03 0.  0.
    9000005    1    3    3    0    0 -0.39309962525E+02  0.35103089901E+02  0.13773447976E+02  0.54481262315E+02  0.10000000000E+01 0.  0.
    9000005    1    3    3    0    0  0.39309962525E+02 -0.35103089901E+02  0.10725612697E+03  0.11950889861E+03  0.10000000000E+01 0.  0.
<mgrwt>
<rscale>  0 0.12499767E+03</rscale>
<asrwt>0</asrwt>
<pdfrwt beam="1">  1        4 0.22693825E-01 0.12499767E+03</pdfrwt>
<pdfrwt beam="2">  1       -4 0.40738914E-02 0.12499767E+03</pdfrwt>
<totfact> 0.94715063E+03</totfact>
</mgrwt>
</event>
<event>
 5    1  0.3277540E-002  0.1250011E+03  0.7818608E-02  0.1235068E+00
         -4   -1    0    0    0  501 -0.00000000000E+00  0.00000000000E+00  0.45320705218E+02  0.45338496022E+02  0.12700000000E+01 0. -1.
          4   -1    0    0  501    0  0.00000000000E+00 -0.00000000000E+00 -0.86153415147E+02  0.86162775266E+02  0.12700000000E+01 0. -1.
         25    2    1    2    0    0  0.00000000000E+00  0.00000000000E+00 -0.40832709929E+02  0.13150127129E+03  0.12500109660E+03 0.  0.
    9000005    1    3    3    0    0 -0.62138179303E+01  0.23583976790E+00  0.44999592719E+02  0.45438205275E+02  0.10000000000E+01 0.  0.
    9000005    1    3    3    0    0  0.62138179303E+01 -0.23583976790E+00 -0.85832302648E+02  0.86063066013E+02  0.10000000000E+01 0.  0.
<mgrwt>
<rscale>  0 0.12500110E+03</rscale>
<asrwt>0</asrwt>
<pdfrwt beam="2">  1        4 0.13256460E-01 0.12500110E+03</pdfrwt>
<pdfrwt beam="1">  1       -4 0.69745047E-02 0.12500110E+03</pdfrwt>
<totfact> 0.10312100E+04</totfact>
</mgrwt>
</event>
<event>
 5    1  0.3277540E-002  0.1249991E+03  0.7818608E-02  0.1235071E+00
         -4   -1    0    0    0  501 -0.00000000000E+00  0.00000000000E+00  0.10382707874E+03  0.10383484569E+03  0.12700000000E+01 0. -1.
          4   -1    0    0  501    0  0.00000000000E+00 -0.00000000000E+00 -0.37602236368E+02  0.37623677118E+02  0.12700000000E+01 0. -1.
         25    2    1    2    0    0  0.00000000000E+00  0.00000000000E+00  0.66224842371E+02  0.14145852281E+03  0.12499913571E+03 0.  0.
    9000005    1    3    3    0    0  0.60881581710E+02  0.14093578108E+02  0.33120146029E+02  0.70732877846E+02  0.10000000000E+01 0.  0.
    9000005    1    3    3    0    0 -0.60881581710E+02 -0.14093578108E+02  0.33104696342E+02  0.70725644962E+02  0.10000000000E+01 0.  0.
<mgrwt>
<rscale>  0 0.12499914E+03</rscale>
<asrwt>0</asrwt>
<pdfrwt beam="2">  1        4 0.57872063E-02 0.12499914E+03</pdfrwt>
<pdfrwt beam="1">  1       -4 0.15975643E-01 0.12499914E+03</pdfrwt>
<totfact> 0.10103643E+04</totfact>
</mgrwt>
</event>
<event>
 5    1  0.3277540E-002  0.1250007E+03  0.7818608E-02  0.1235068E+00
         -4   -1    0    0    0  501 -0.00000000000E+00  0.00000000000E+00  0.19828978314E+03  0.19829385012E+03  0.12700000000E+01 0.  1.
          4   -1    0    0  501    0  0.00000000000E+00 -0.00000000000E+00 -0.19675184678E+02  0.19716130252E+02  0.12700000000E+01 0.  1.
         25    2    1    2    0    0  0.00000000000E+00  0.00000000000E+00  0.17861459846E+03  0.21800998037E+03  0.12500070704E+03 0.  0.
    9000005    1    3    3    0    0 -0.29279075152E+02 -0.51393912358E+01 -0.65628902260E+01  0.30458974246E+02  0.10000000000E+01 0.  0.
    9000005    1    3    3    0    0  0.29279075152E+02  0.51393912358E+01  0.18517748868E+03  0.18755100613E+03  0.10000000000E+01 0.  0.
<mgrwt>
<rscale>  0 0.12500071E+03</rscale>
<asrwt>0</asrwt>
<pdfrwt beam="2">  1        4 0.30304140E-02 0.12500071E+03</pdfrwt>
<pdfrwt beam="1">  1       -4 0.30509583E-01 0.12500071E+03</pdfrwt>
<totfact> 0.87182849E+03</totfact>
</mgrwt>
</event>
<event>
 5    1  0.3277540E-002  0.1249972E+03  0.7818608E-02  0.1235074E+00
          4   -1    0    0  501    0  0.00000000000E+00  0.00000000000E+00  0.47380965048E+02  0.47397982540E+02  0.12700000000E+01 0.  1.
         -4   -1    0    0    0  501 -0.00000000000E+00 -0.00000000000E+00 -0.82403096978E+02  0.82412883044E+02  0.12700000000E+01 0.  1.
         25    2    1    2    0    0  0.00000000000E+00  0.00000000000E+00 -0.35022131931E+02  0.12981086558E+03  0.12499724436E+03 0.  0.
    9000005    1    3    3    0    0 -0.59565255467E+02 -0.92244740717E+01 -0.34637575755E+02  0.69526054361E+02  0.10000000000E+01 0.  0.
    9000005    1    3    3    0    0  0.59565255467E+02  0.92244740717E+01 -0.38455617538E+00  0.60284811223E+02  0.10000000000E+01 0.  0.
<mgrwt>
<rscale>  0 0.12499724E+03</rscale>
<asrwt>0</asrwt>
<pdfrwt beam="1">  1        4 0.72914411E-02 0.12499724E+03</pdfrwt>
<pdfrwt beam="2">  1       -4 0.12679461E-01 0.12499724E+03</pdfrwt>
<totfact> 0.10349199E+04</totfact>
</mgrwt>
</event>
<event>
 5    1  0.3277540E-002  0.1250021E+03  0.7818608E-02  0.1235066E+00
          4   -1    0    0  501    0  0.00000000000E+00  0.00000000000E+00  0.52328650530E+02  0.52344059513E+02  0.12700000000E+01 0.  1.
         -4   -1    0    0    0  501 -0.00000000000E+00 -0.00000000000E+00 -0.74619091705E+02  0.74629898479E+02  0.12700000000E+01 0.  1.
         25    2    1    2    0    0  0.00000000000E+00  0.00000000000E+00 -0.22290441176E+02  0.12697395799E+03  0.12500208894E+03 0.  0.
    9000005    1    3    3    0    0  0.67854362802E+01 -0.48075927625E+02 -0.51111063827E+02  0.70503034034E+02  0.10000000000E+01 0.  0.
    9000005    1    3    3    0    0 -0.67854362802E+01  0.48075927625E+02  0.28820622651E+02  0.56470923957E+02  0.10000000000E+01 0.  0.
<mgrwt>
<rscale>  0 0.12500209E+03</rscale>
<asrwt>0</asrwt>
<pdfrwt beam="1">  1        4 0.80525782E-02 0.12500209E+03</pdfrwt>
<pdfrwt beam="2">  1       -4 0.11481877E-01 0.12500209E+03</pdfrwt>
<totfact> 0.10409221E+04</totfact>
</mgrwt>
</event>
<event>
 5    1  0.3277540E-002  0.1249836E+03  0.7818608E-02  0.1235095E+00
         -4   -1    0    0    0  501 -0.00000000000E+00  0.00000000000E+00  0.72656940564E+03  0.72657051558E+03  0.12700000000E+01 0. -1.
          4   -1    0    0  501    0  0.00000000000E+00 -0.00000000000E+00 -0.52987286797E+01  0.54488003837E+01  0.12700000000E+01 0. -1.
         25    2    1    2    0    0  0.00000000000E+00  0.00000000000E+00  0.72127067696E+03  0.73201931597E+03  0.12498355693E+03 0.  0.
    9000005    1    3    3    0    0  0.31640897911E+02 -0.53816011237E+02  0.37603458507E+03  0.38118278904E+03  0.10000000000E+01 0.  0.
    9000005    1    3    3    0    0 -0.31640897911E+02  0.53816011237E+02  0.34523609189E+03  0.35083652693E+03  0.10000000000E+01 0.  0.
<mgrwt>
<rscale>  0 0.12498356E+03</rscale>
<asrwt>0</asrwt>
<pdfrwt beam="2">  1        4 0.82681832E-03 0.12498356E+03</pdfrwt>
<pdfrwt beam="1">  1       -4 0.11179155E+00 0.12498356E+03</pdfrwt>
<totfact> 0.41464176E+03</totfact>
</mgrwt>
</event>
<event>
 5    1  0.3277540E-002  0.1249997E+03  0.7818608E-02  0.1235070E+00
          4   -1    0    0  501    0  0.00000000000E+00  0.00000000000E+00  0.68064220762E+01  0.69238920759E+01  0.12700000000E+01 0.  1.
         -4   -1    0    0    0  501 -0.00000000000E+00 -0.00000000000E+00 -0.56887597720E+03  0.56887739482E+03  0.12700000000E+01 0.  1.
         25    2    1    2    0    0  0.00000000000E+00  0.00000000000E+00 -0.56206955513E+03  0.57580128690E+03  0.12499974877E+03 0.  0.
    9000005    1    3    3    0    0 -0.15610581000E+02  0.41816274550E+02 -0.48250670128E+03  0.48456785679E+03  0.10000000000E+01 0.  0.
    9000005    1    3    3    0    0  0.15610581000E+02 -0.41816274550E+02 -0.79562853846E+02  0.91233430104E+02  0.10000000000E+01 0.  0.
<mgrwt>
<rscale>  0 0.12499975E+03</rscale>
<asrwt>0</asrwt>
<pdfrwt beam="1">  1        4 0.10562875E-02 0.12499975E+03</pdfrwt>
<pdfrwt beam="2">  1       -4 0.87528489E-01 0.12499975E+03</pdfrwt>
<totfact> 0.50431913E+03</totfact>
</mgrwt>
</event>
<event>
 5    1  0.3277540E-002  0.1249767E+03  0.7818608E-02  0.1235106E+00
         -4   -1    0    0    0  501 -0.00000000000E+00  0.00000000000E+00  0.68526713075E+02  0.68538480468E+02  0.12700000000E+01 0. -1.
          4   -1    0    0  501    0  0.00000000000E+00 -0.00000000000E+00 -0.56958320164E+02  0.56972477004E+02  0.12700000000E+01 0. -1.
         25    2    1    2    0    0  0.00000000000E+00  0.00000000000E+00  0.11568392911E+02  0.12551095747E+03  0.12497668875E+03 0.  0.
    9000005    1    3    3    0    0 -0.48768926880E+02  0.14669756145E+02  0.42135387354E+02  0.66105981892E+02  0.10000000000E+01 0.  0.
    9000005    1    3    3    0    0  0.48768926880E+02 -0.14669756145E+02 -0.30566994443E+02  0.59404975580E+02  0.10000000000E+01 0.  0.
<mgrwt>
<rscale>  0 0.12497669E+03</rscale>
<asrwt>0</asrwt>
<pdfrwt beam="2">  1        4 0.87648127E-02 0.12497669E+03</pdfrwt>
<pdfrwt beam="1">  1       -4 0.10544565E-01 0.12497669E+03</pdfrwt>
<totfact> 0.10447204E+04</totfact>
</mgrwt>
</event>
<event>
 5    1  0.3277540E-002  0.1249811E+03  0.7818608E-02  0.1235099E+00
         -4   -1    0    0    0  501 -0.00000000000E+00  0.00000000000E+00  0.10576661858E+02  0.10652637047E+02  0.12700000000E+01 0.  1.
          4   -1    0    0  501    0  0.00000000000E+00 -0.00000000000E+00 -0.36781735539E+03  0.36781954791E+03  0.12700000000E+01 0.  1.
         25    2    1    2    0    0  0.00000000000E+00  0.00000000000E+00 -0.35724069353E+03  0.37847218495E+03  0.12498112527E+03 0.  0.
    9000005    1    3    3    0    0  0.35672339823E+02 -0.17532926033E+02 -0.32630814850E+02  0.51436265431E+02  0.10000000000E+01 0.  0.
    9000005    1    3    3    0    0 -0.35672339823E+02  0.17532926033E+02 -0.32460987868E+03  0.32703591952E+03  0.10000000000E+01 0.  0.
<mgrwt>
<rscale>  0 0.12498113E+03</rscale>
<asrwt>0</asrwt>
<pdfrwt beam="2">  1        4 0.56593289E-01 0.12498113E+03</pdfrwt>
<pdfrwt beam="1">  1       -4 0.16331919E-02 0.12498113E+03</pdfrwt>
<totfact> 0.66729638E+03</totfact>
</mgrwt>
</event>
<event>
 5    1  0.3277540E-002  0.1249985E+03  0.7818608E-02  0.1235072E+00
          4   -1    0    0  501    0  0.00000000000E+00  0.00000000000E+00  0.63753432226E+02  0.63766080486E+02  0.12700000000E+01 0.  1.
         -4   -1    0    0    0  501 -0.00000000000E+00 -0.00000000000E+00 -0.61244398233E+02  0.61257564552E+02  0.12700000000E+01 0.  1.
         25    2    1    2    0    0  0.00000000000E+00  0.00000000000E+00  0.25090339933E+01  0.12502364504E+03  0.12499846626E+03 0.  0.
    9000005    1    3    3    0    0  0.55785827055E+02 -0.25401521095E+02  0.13416668971E+02  0.62755898372E+02  0.10000000000E+01 0.  0.
    9000005    1    3    3    0    0 -0.55785827055E+02  0.25401521095E+02 -0.10907634978E+02  0.62267746667E+02  0.10000000000E+01 0.  0.
<mgrwt>
<rscale>  0 0.12499847E+03</rscale>
<asrwt>0</asrwt>
<pdfrwt beam="1">  1        4 0.98102061E-02 0.12499847E+03</pdfrwt>
<pdfrwt beam="2">  1       -4 0.94242009E-02 0.12499847E+03</pdfrwt>
<totfact> 0.10452711E+04</totfact>
</mgrwt>
</event>
<event>
 5    1  0.3277540E-002  0.1250066E+03  0.7818608E-02  0.1235059E+00
          4   -1    0    0  501    0  0.00000000000E+00  0.00000000000E+00  0.25086769015E+02  0.25118894872E+02  0.12700000000E+01 0.  1.
         -4   -1    0    0    0  501 -0.00000000000E+00 -0.00000000000E+00 -0.15559167370E+03  0.15559685673E+03  0.12700000000E+01 0.  1.
         25    2    1    2    0    0  0.00000000000E+00  0.00000000000E+00 -0.13050490468E+03  0.18071575160E+03  0.12500661075E+03 0.  0.
    9000005    1    3    3    0    0 -0.90851416636E+01 -0.37943913775E+02  0.53240168211E+01  0.39390678425E+02  0.10000000000E+01 0.  0.
    9000005    1    3    3    0    0  0.90851416636E+01  0.37943913775E+02 -0.13582892150E+03  0.14132507318E+03  0.10000000000E+01 0.  0.
<mgrwt>
<rscale>  0 0.12500661E+03</rscale>
<asrwt>0</asrwt>
<pdfrwt beam="1">  1        4 0.38623729E-02 0.12500661E+03</pdfrwt>
<pdfrwt beam="2">  1       -4 0.23940050E-01 0.12500661E+03</pdfrwt>
<totfact> 0.93474469E+03</totfact>
</mgrwt>
</event>
<event>
 5    1  0.3277540E-002  0.1249960E+03  0.7818608E-02  0.1235076E+00
         -4   -1    0    0    0  501 -0.00000000000E+00  0.00000000000E+00  0.48993582457E+03  0.48993747060E+03  0.12700000000E+01 0. -1.
          4   -1    0    0  501    0  0.00000000000E+00 -0.00000000000E+00 -0.79202204402E+01  0.80213958774E+01  0.12700000000E+01 0. -1.
         25    2    1    2    0    0  0.00000000000E+00  0.00000000000E+00  0.48201560413E+03  0.49795886648E+03  0.12499596025E+03 0.  0.
    9000005    1    3    3    0    0  0.49250177687E+02  0.37015745988E+02  0.19936764855E+03  0.20867248199E+03  0.10000000000E+01 0.  0.
    9000005    1    3    3    0    0 -0.49250177687E+02 -0.37015745988E+02  0.28264795558E+03  0.28928638448E+03  0.10000000000E+01 0.  0.
<mgrwt>
<rscale>  0 0.12499596E+03</rscale>
<asrwt>0</asrwt>
<pdfrwt beam="2">  1        4 0.12264043E-02 0.12499596E+03</pdfrwt>
<pdfrwt beam="1">  1       -4 0.75382681E-01 0.12499596E+03</pdfrwt>
<totfact> 0.56028043E+03</totfact>
</mgrwt>
</event>
<event>
 5    1  0.3277540E-002  0.1249996E+03  0.7818608E-02  0.1235070E+00
         -4   -1    0    0    0  501 -0.00000000000E+00  0.00000000000E+00  0.14617074608E+03  0.14617626316E+03  0.12700000000E+01 0.  1.
          4   -1    0    0  501    0  0.00000000000E+00 -0.00000000000E+00 -0.26702582072E+02  0.26732766211E+02  0.12700000000E+01 0.  1.
         25    2    1    2    0    0  0.00000000000E+00  0.00000000000E+00  0.11946816401E+03  0.17290902937E+03  0.12499956090E+03 0.  0.
    9000005    1    3    3    0    0 -0.73359121671E+01  0.32321024630E+02 -0.13550344650E+02  0.35820051376E+02  0.10000000000E+01 0.  0.
    9000005    1    3    3    0    0  0.73359121671E+01 -0.32321024630E+02  0.13301850866E+03  0.13708897799E+03  0.10000000000E+01 0.  0.
<mgrwt>
<rscale>  0 0.12499956E+03</rscale>
<asrwt>0</asrwt>
<pdfrwt beam="2">  1        4 0.41108357E-02 0.12499956E+03</pdfrwt>
<pdfrwt beam="1">  1       -4 0.22490554E-01 0.12499956E+03</pdfrwt>
<totfact> 0.94910133E+03</totfact>
</mgrwt>
</event>
<event>
 5    1  0.3277540E-002  0.1249989E+03  0.7818608E-02  0.1235071E+00
          4   -1    0    0  501    0  0.00000000000E+00  0.00000000000E+00  0.34290913232E+03  0.34291148410E+03  0.12700000000E+01 0.  1.
         -4   -1    0    0    0  501 -0.00000000000E+00 -0.00000000000E+00 -0.11353506742E+02  0.11424316843E+02  0.12700000000E+01 0.  1.
         25    2    1    2    0    0  0.00000000000E+00  0.00000000000E+00  0.33155562557E+03  0.35433580094E+03  0.12499890791E+03 0.  0.
    9000005    1    3    3    0    0  0.64903012692E+01 -0.52341651643E+02  0.70765954818E+02  0.88264335202E+02  0.10000000000E+01 0.  0.
    9000005    1    3    3    0    0 -0.64903012692E+01  0.52341651643E+02  0.26078967076E+03  0.26607146574E+03  0.10000000000E+01 0.  0.
<mgrwt>
<rscale>  0 0.12499891E+03</rscale>
<asrwt>0</asrwt>
<pdfrwt beam="1">  1        4 0.52760879E-01 0.12499891E+03</pdfrwt>
<pdfrwt beam="2">  1       -4 0.17523212E-02 0.12499891E+03</pdfrwt>
<totfact> 0.69251856E+03</totfact>
</mgrwt>
</event>
<event>
 5    1  0.3277540E-002  0.1250048E+03  0.7818608E-02  0.1235062E+00
         -4   -1    0    0    0  501 -0.00000000000E+00  0.00000000000E+00  0.48271176472E+02  0.48287880239E+02  0.12700000000E+01 0. -1.
          4   -1    0    0  501    0  0.00000000000E+00 -0.00000000000E+00 -0.80893594445E+02  0.80903563100E+02  0.12700000000E+01 0. -1.
         25    2    1    2    0    0  0.00000000000E+00  0.00000000000E+00 -0.32622417973E+02  0.12919144334E+03  0.12500482742E+03 0.  0.
    9000005    1    3    3    0    0 -0.22323516594E+02 -0.44223410131E+01 -0.76464108678E+02  0.79785063822E+02  0.10000000000E+01 0.  0.
    9000005    1    3    3    0    0  0.22323516594E+02  0.44223410131E+01  0.43841690704E+02  0.49406379517E+02  0.10000000000E+01 0.  0.
<mgrwt>
<rscale>  0 0.12500483E+03</rscale>
<asrwt>0</asrwt>
<pdfrwt beam="2">  1        4 0.12447220E-01 0.12500483E+03</pdfrwt>
<pdfrwt beam="1">  1       -4 0.74283865E-02 0.12500483E+03</pdfrwt>
<totfact> 0.10360706E+04</totfact>
</mgrwt>
</event>
<event>
 5    1  0.3277540E-002  0.1250071E+03  0.7818608E-02  0.1235058E+00
         -4   -1    0    0    0  501 -0.00000000000E+00  0.00000000000E+00  0.50729928181E+02  0.50745822619E+02  0.12700000000E+01 0.  1.
          4   -1    0    0  501    0  0.00000000000E+00 -0.00000000000E+00 -0.76976405263E+02  0.76986881137E+02  0.12700000000E+01 0.  1.
         25    2    1    2    0    0  0.00000000000E+00  0.00000000000E+00 -0.26246477082E+02  0.12773270376E+03  0.12500706400E+03 0.  0.
    9000005    1    3    3    0    0 -0.38835438681E+01  0.37065061637E+02 -0.64384714821E+02  0.74399544418E+02  0.10000000000E+01 0.  0.
    9000005    1    3    3    0    0  0.38835438681E+01 -0.37065061637E+02  0.38138237739E+02  0.53333159338E+02  0.10000000000E+01 0.  0.
<mgrwt>
<rscale>  0 0.12500706E+03</rscale>
<asrwt>0</asrwt>
<pdfrwt beam="2">  1        4 0.11844552E-01 0.12500706E+03</pdfrwt>
<pdfrwt beam="1">  1       -4 0.78066328E-02 0.12500706E+03</pdfrwt>
<totfact> 0.10391607E+04</totfact>
</mgrwt>
</event>
<event>
 5    1  0.3277540E-002  0.1249995E+03  0.7818608E-02  0.1235070E+00
         -4   -1    0    0    0  501 -0.00000000000E+00  0.00000000000E+00  0.13062812876E+03  0.13063430225E+03  0.12700000000E+01 0.  1.
          4   -1    0    0  501    0  0.00000000000E+00 -0.00000000000E+00 -0.29882977295E+02  0.29909952056E+02  0.12700000000E+01 0.  1.
         25    2    1    2    0    0  0.00000000000E+00  0.00000000000E+00  0.10074515147E+03  0.16054425431E+03  0.12499948818E+03 0.  0.
    9000005    1    3    3    0    0  0.13295859595E+01 -0.57439159143E+02  0.18802585139E+02  0.60461243866E+02  0.10000000000E+01 0.  0.
    9000005    1    3    3    0    0 -0.13295859595E+01  0.57439159143E+02  0.81942566332E+02  0.10008301044E+03  0.10000000000E+01 0.  0.
<mgrwt>
<rscale>  0 0.12499949E+03</rscale>
<asrwt>0</asrwt>
<pdfrwt beam="2">  1        4 0.45999310E-02 0.12499949E+03</pdfrwt>
<pdfrwt beam="1">  1       -4 0.20099185E-01 0.12499949E+03</pdfrwt>
<totfact> 0.97239078E+03</totfact>
</mgrwt>
</event>
<event>
 5    1  0.3277540E-002  0.1250019E+03  0.7818608E-02  0.1235066E+00
          4   -1    0    0  501    0  0.00000000000E+00  0.00000000000E+00  0.10809394748E+02  0.10883745441E+02  0.12700000000E+01 0.  1.
         -4   -1    0    0    0  501 -0.00000000000E+00 -0.00000000000E+00 -0.36007222283E+03  0.36007446252E+03  0.12700000000E+01 0.  1.
         25    2    1    2    0    0  0.00000000000E+00  0.00000000000E+00 -0.34926282808E+03  0.37095820796E+03  0.12500187586E+03 0.  0.
    9000005    1    3    3    0    0  0.10173388089E+02  0.50291903176E+01  0.77403533777E+01  0.13773294845E+02  0.10000000000E+01 0.  0.
    9000005    1    3    3    0    0 -0.10173388089E+02 -0.50291903176E+01 -0.35700318146E+03  0.35718491311E+03  0.10000000000E+01 0.  0.
<mgrwt>
<rscale>  0 0.12500188E+03</rscale>
<asrwt>0</asrwt>
<pdfrwt beam="1">  1        4 0.16688757E-02 0.12500188E+03</pdfrwt>
<pdfrwt beam="2">  1       -4 0.55401609E-01 0.12500188E+03</pdfrwt>
<totfact> 0.67476015E+03</totfact>
</mgrwt>
</event>
<event>
 5    1  0.3277540E-002  0.1250009E+03  0.7818608E-02  0.1235068E+00
         -4   -1    0    0    0  501 -0.00000000000E+00  0.00000000000E+00  0.42849290637E+02  0.42868107121E+02  0.12700000000E+01 0.  1.
          4   -1    0    0  501    0  0.00000000000E+00 -0.00000000000E+00 -0.91120576811E+02  0.91129426743E+02  0.12700000000E+01 0.  1.
         25    2    1    2    0    0  0.00000000000E+00  0.00000000000E+00 -0.48271286174E+02  0.13399753386E+03  0.12500088805E+03 0.  0.
    9000005    1    3    3    0    0  0.22894799402E+02  0.36422986810E+02  0.24453221170E+02  0.49495109187E+02  0.10000000000E+01 0.  0.
    9000005    1    3    3    0    0 -0.22894799402E+02 -0.36422986810E+02 -0.72724507344E+02  0.84502424677E+02  0.10000000000E+01 0.  0.
<mgrwt>
<rscale>  0 0.12500089E+03</rscale>
<asrwt>0</asrwt>
<pdfrwt beam="2">  1        4 0.14020678E-01 0.12500089E+03</pdfrwt>
<pdfrwt beam="1">  1       -4 0.65943268E-02 0.12500089E+03</pdfrwt>
<totfact> 0.10259038E+04</totfact>
</mgrwt>
</event>
<event>
 5    1  0.3277540E-002  0.1249970E+03  0.7818608E-02  0.1235074E+00
          4   -1    0    0  501    0  0.00000000000E+00  0.00000000000E+00  0.48320343988E+03  0.48320510884E+03  0.12700000000E+01 0. -1.
         -4   -1    0    0    0  501 -0.00000000000E+00 -0.00000000000E+00 -0.80321078490E+01  0.81318913236E+01  0.12700000000E+01 0. -1.
         25    2    1    2    0    0  0.00000000000E+00  0.00000000000E+00  0.47517133203E+03  0.49133700016E+03  0.12499701176E+03 0.  0.
    9000005    1    3    3    0    0 -0.55445528868E+01  0.31913698705E+02  0.44764720728E+03  0.44881872556E+03  0.10000000000E+01 0.  0.
    9000005    1    3    3    0    0  0.55445528868E+01 -0.31913698705E+02  0.27524124749E+02  0.42518274600E+02  0.10000000000E+01 0.  0.
<mgrwt>
<rscale>  0 0.12499701E+03</rscale>
<asrwt>0</asrwt>
<pdfrwt beam="1">  1        4 0.74346790E-01 0.12499701E+03</pdfrwt>
<pdfrwt beam="2">  1       -4 0.12435130E-02 0.12499701E+03</pdfrwt>
<totfact> 0.56546546E+03</totfact>
</mgrwt>
</event>
<event>
 5    1  0.3277540E-002  0.1249980E+03  0.7818608E-02  0.1235072E+00
         -4   -1    0    0    0  501 -0.00000000000E+00  0.00000000000E+00  0.14201379831E+02  0.14258053482E+02  0.12700000000E+01 0. -1.
          4   -1    0    0  501    0  0.00000000000E+00 -0.00000000000E+00 -0.27444671832E+03  0.27444965676E+03  0.12700000000E+01 0. -1.
         25    2    1    2    0    0  0.00000000000E+00  0.00000000000E+00 -0.26024533849E+03  0.28870771025E+03  0.12499802298E+03 0.  0.
    9000005    1    3    3    0    0  0.17353612984E+01 -0.62120447397E+02 -0.14529739946E+03  0.15803257814E+03  0.10000000000E+01 0.  0.
    9000005    1    3    3    0    0 -0.17353612984E+01  0.62120447397E+02 -0.11494793903E+03  0.13067513210E+03  0.10000000000E+01 0.  0.
<mgrwt>
<rscale>  0 0.12499802E+03</rscale>
<asrwt>0</asrwt>
<pdfrwt beam="2">  1        4 0.42227154E-01 0.12499802E+03</pdfrwt>
<pdfrwt beam="1">  1       -4 0.21894134E-02 0.12499802E+03</pdfrwt>
<totfact> 0.77040899E+03</totfact>
</mgrwt>
</event>
<event>
 5    1  0.3277540E-002  0.1250026E+03  0.7818608E-02  0.1235065E+00
          4   -1    0    0  501    0  0.00000000000E+00  0.00000000000E+00  0.11705836362E+02  0.11774527801E+02  0.12700000000E+01 0. -1.
         -4   -1    0    0    0  501 -0.00000000000E+00 -0.00000000000E+00 -0.33266857214E+03  0.33267099631E+03  0.12700000000E+01 0. -1.
         25    2    1    2    0    0  0.00000000000E+00  0.00000000000E+00 -0.32096273578E+03  0.34444552411E+03  0.12500256528E+03 0.  0.
    9000005    1    3    3    0    0 -0.29097503572E+02  0.53705026846E+02 -0.19688283461E+03  0.20614253609E+03  0.10000000000E+01 0.  0.
    9000005    1    3    3    0    0  0.29097503572E+02 -0.53705026846E+02 -0.12407990117E+03  0.13830298803E+03  0.10000000000E+01 0.  0.
<mgrwt>
<rscale>  0 0.12500257E+03</rscale>
<asrwt>0</asrwt>
<pdfrwt beam="1">  1        4 0.18063686E-02 0.12500257E+03</pdfrwt>
<pdfrwt beam="2">  1       -4 0.51185243E-01 0.12500257E+03</pdfrwt>
<totfact> 0.70335979E+03</totfact>
</mgrwt>
</event>
<event>
 5    1  0.3277540E-002  0.1250064E+03  0.7818608E-02  0.1235059E+00
          4   -1    0    0  501    0  0.00000000000E+00  0.00000000000E+00  0.78305791178E+02  0.78316089228E+02  0.12700000000E+01 0.  1.
         -4   -1    0    0    0  501 -0.00000000000E+00 -0.00000000000E+00 -0.49868032204E+02  0.49884201266E+02  0.12700000000E+01 0.  1.
         25    2    1    2    0    0  0.00000000000E+00  0.00000000000E+00  0.28437758973E+02  0.12820029049E+03  0.12500643322E+03 0.  0.
    9000005    1    3    3    0    0  0.40043666440E+02  0.27808289937E+02 -0.25880709283E+02  0.55205138567E+02  0.10000000000E+01 0.  0.
    9000005    1    3    3    0    0 -0.40043666440E+02 -0.27808289937E+02  0.54318468256E+02  0.72995151927E+02  0.10000000000E+01 0.  0.
<mgrwt>
<rscale>  0 0.12500643E+03</rscale>
<asrwt>0</asrwt>
<pdfrwt beam="1">  1        4 0.12049081E-01 0.12500643E+03</pdfrwt>
<pdfrwt beam="2">  1       -4 0.76740409E-02 0.12500643E+03</pdfrwt>
<totfact> 0.10381657E+04</totfact>
</mgrwt>
</event>
<event>
 5    1  0.3277540E-002  0.1249974E+03  0.7818608E-02  0.1235073E+00
         -4   -1    0    0    0  501 -0.00000000000E+00  0.00000000000E+00  0.91643005617E+02  0.91651805102E+02  0.12700000000E+01 0. -1.
          4   -1    0    0  501    0  0.00000000000E+00 -0.00000000000E+00 -0.42602584104E+02  0.42621509503E+02  0.12700000000E+01 0. -1.
         25    2    1    2    0    0  0.00000000000E+00  0.00000000000E+00  0.49040421513E+02  0.13427331460E+03  0.12499744027E+03 0.  0.
    9000005    1    3    3    0    0 -0.11292817697E+02  0.12619409538E+02  0.89136444958E+02  0.90736338082E+02  0.10000000000E+01 0.  0.
    9000005    1    3    3    0    0  0.11292817697E+02 -0.12619409538E+02 -0.40096023446E+02  0.43536976523E+02  0.10000000000E+01 0.  0.
<mgrwt>
<rscale>  0 0.12499744E+03</rscale>
<asrwt>0</asrwt>
<pdfrwt beam="2">  1        4 0.65563764E-02 0.12499744E+03</pdfrwt>
<pdfrwt beam="1">  1       -4 0.14101057E-01 0.12499744E+03</pdfrwt>
<totfact> 0.10254002E+04</totfact>
</mgrwt>
</event>
<event>
 5    1  0.3277540E-002  0.1249924E+03  0.7818608E-02  0.1235081E+00
          4   -1    0    0  501    0  0.00000000000E+00  0.00000000000E+00  0.34935571709E+02  0.34958648010E+02  0.12700000000E+01 0.  1.
         -4   -1    0    0    0  501 -0.00000000000E+00 -0.00000000000E+00 -0.11173582970E+03  0.11174304694E+03  0.12700000000E+01 0.  1.
         25    2    1    2    0    0  0.00000000000E+00  0.00000000000E+00 -0.76800257994E+02  0.14670169495E+03  0.12499243046E+03 0.  0.
    9000005    1    3    3    0    0 -0.11570455866E+02 -0.37015451343E+02 -0.95907775667E+02  0.10345685342E+03  0.10000000000E+01 0.  0.
    9000005    1    3    3    0    0  0.11570455866E+02  0.37015451343E+02  0.19107517672E+02  0.43244841527E+02  0.10000000000E+01 0.  0.
<mgrwt>
<rscale>  0 0.12499243E+03</rscale>
<asrwt>0</asrwt>
<pdfrwt beam="1">  1        4 0.53770337E-02 0.12499243E+03</pdfrwt>
<pdfrwt beam="2">  1       -4 0.17192458E-01 0.12499243E+03</pdfrwt>
<totfact> 0.99982315E+03</totfact>
</mgrwt>
</event>
<event>
 5    1  0.3277540E-002  0.1249948E+03  0.7818608E-02  0.1235077E+00
         -4   -1    0    0    0  501 -0.00000000000E+00  0.00000000000E+00  0.37600045502E+02  0.37621487500E+02  0.12700000000E+01 0.  1.
          4   -1    0    0  501    0  0.00000000000E+00 -0.00000000000E+00 -0.10382589498E+03  0.10383366202E+03  0.12700000000E+01 0.  1.
         25    2    1    2    0    0  0.00000000000E+00  0.00000000000E+00 -0.66225849478E+02  0.14145514952E+03  0.12499478464E+03 0.  0.
    9000005    1    3    3    0    0  0.84364221286E+01 -0.37792071760E+02 -0.88617714948E+02  0.96713563211E+02  0.10000000000E+01 0.  0.
    9000005    1    3    3    0    0 -0.84364221286E+01  0.37792071760E+02  0.22391865470E+02  0.44741586309E+02  0.10000000000E+01 0.  0.
<mgrwt>
<rscale>  0 0.12499478E+03</rscale>
<asrwt>0</asrwt>
<pdfrwt beam="2">  1        4 0.15975461E-01 0.12499478E+03</pdfrwt>
<pdfrwt beam="1">  1       -4 0.57868693E-02 0.12499478E+03</pdfrwt>
<totfact> 0.10104703E+04</totfact>
</mgrwt>
</event>
<event>
 5    1  0.3277540E-002  0.1249994E+03  0.7818608E-02  0.1235070E+00
          4   -1    0    0  501    0  0.00000000000E+00  0.00000000000E+00  0.29538880012E+03  0.29539153024E+03  0.12700000000E+01 0.  1.
         -4   -1    0    0    0  501 -0.00000000000E+00 -0.00000000000E+00 -0.13190677692E+02  0.13251674534E+02  0.12700000000E+01 0.  1.
         25    2    1    2    0    0  0.00000000000E+00  0.00000000000E+00  0.28219812243E+03  0.30864320477E+03  0.12499939020E+03 0.  0.
    9000005    1    3    3    0    0  0.56564547951E+02 -0.15664719068E+02  0.19407273057E+03  0.20275639635E+03  0.10000000000E+01 0.  0.
    9000005    1    3    3    0    0 -0.56564547951E+02  0.15664719068E+02  0.88125391854E+02  0.10588680842E+03  0.10000000000E+01 0.  0.
<mgrwt>
<rscale>  0 0.12499939E+03</rscale>
<asrwt>0</asrwt>
<pdfrwt beam="1">  1        4 0.45449332E-01 0.12499939E+03</pdfrwt>
<pdfrwt beam="2">  1       -4 0.20342371E-02 0.12499939E+03</pdfrwt>
<totfact> 0.74528293E+03</totfact>
</mgrwt>
</event>
<event>
 5    1  0.3277540E-002  0.1249997E+03  0.7818608E-02  0.1235070E+00
          4   -1    0    0  501    0  0.00000000000E+00  0.00000000000E+00  0.68476654866E+02  0.68488430860E+02  0.12700000000E+01 0.  1.
         -4   -1    0    0    0  501 -0.00000000000E+00 -0.00000000000E+00 -0.57020974462E+02  0.57035115750E+02  0.12700000000E+01 0.  1.
         25    2    1    2    0    0  0.00000000000E+00  0.00000000000E+00  0.11455680404E+02  0.12552354661E+03  0.12499971256E+03 0.  0.
    9000005    1    3    3    0    0  0.14883173828E+02 -0.39856756984E+02 -0.40236920275E+02  0.58566882226E+02  0.10000000000E+01 0.  0.
    9000005    1    3    3    0    0 -0.14883173828E+02  0.39856756984E+02  0.51692600679E+02  0.66956664384E+02  0.10000000000E+01 0.  0.
<mgrwt>
<rscale>  0 0.12499971E+03</rscale>
<asrwt>0</asrwt>
<pdfrwt beam="1">  1        4 0.10536864E-01 0.12499971E+03</pdfrwt>
<pdfrwt beam="2">  1       -4 0.87744512E-02 0.12499971E+03</pdfrwt>
<totfact> 0.10441502E+04</totfact>
</mgrwt>
</event>
<event>
 5    1  0.3277540E-002  0.1250050E+03  0.7818608E-02  0.1235061E+00
          4   -1    0    0  501    0  0.00000000000E+00  0.00000000000E+00  0.30516101302E+03  0.30516365571E+03  0.12700000000E+01 0. -1.
         -4   -1    0    0    0  501 -0.00000000000E+00 -0.00000000000E+00 -0.12767450654E+02  0.12830459703E+02  0.12700000000E+01 0. -1.
         25    2    1    2    0    0  0.00000000000E+00  0.00000000000E+00  0.29239356237E+03  0.31799411542E+03  0.12500504840E+03 0.  0.
    9000005    1    3    3    0    0  0.21653787916E+01  0.30538857743E+02  0.76035172974E+01  0.31561434899E+02  0.10000000000E+01 0.  0.
    9000005    1    3    3    0    0 -0.21653787916E+01 -0.30538857743E+02  0.28479004507E+03  0.28643268052E+03  0.10000000000E+01 0.  0.
<mgrwt>
<rscale>  0 0.12500505E+03</rscale>
<asrwt>0</asrwt>
<pdfrwt beam="1">  1        4 0.46952895E-01 0.12500505E+03</pdfrwt>
<pdfrwt beam="2">  1       -4 0.19692734E-02 0.12500505E+03</pdfrwt>
<totfact> 0.73387122E+03</totfact>
</mgrwt>
</event>
<event>
 5    1  0.3277540E-002  0.1250000E+03  0.7818608E-02  0.1235069E+00
          4   -1    0    0  501    0  0.00000000000E+00  0.00000000000E+00  0.33947610567E+02  0.33971357983E+02  0.12700000000E+01 0.  1.
         -4   -1    0    0    0  501 -0.00000000000E+00 -0.00000000000E+00 -0.11499949882E+03  0.11500651125E+03  0.12700000000E+01 0.  1.
         25    2    1    2    0    0  0.00000000000E+00  0.00000000000E+00 -0.81051888258E+02  0.14897786923E+03  0.12499998772E+03 0.  0.
    9000005    1    3    3    0    0 -0.52175043852E+02 -0.33047648748E+02 -0.51886896766E+02  0.80669897389E+02  0.10000000000E+01 0.  0.
    9000005    1    3    3    0    0  0.52175043852E+02  0.33047648748E+02 -0.29164991493E+02  0.68307971844E+02  0.10000000000E+01 0.  0.
<mgrwt>
<rscale>  0 0.12499999E+03</rscale>
<asrwt>0</asrwt>
<pdfrwt beam="1">  1        4 0.52250755E-02 0.12499999E+03</pdfrwt>
<pdfrwt beam="2">  1       -4 0.17694597E-01 0.12499999E+03</pdfrwt>
<totfact> 0.99507863E+03</totfact>
</mgrwt>
</event>
<event>
 5    1  0.3277540E-002  0.1250067E+03  0.7818608E-02  0.1235059E+00
          4   -1    0    0  501    0  0.00000000000E+00  0.00000000000E+00  0.78032560568E+02  0.78042894672E+02  0.12700000000E+01 0. -1.
         -4   -1    0    0    0  501 -0.00000000000E+00 -0.00000000000E+00 -0.50042873688E+02  0.50058986275E+02  0.12700000000E+01 0. -1.
         25    2    1    2    0    0  0.00000000000E+00  0.00000000000E+00  0.27989686881E+02  0.12810188095E+03  0.12500667714E+03 0.  0.
    9000005    1    3    3    0    0  0.14552800295E+01  0.52985907561E+02  0.47921113138E+02  0.71463678358E+02  0.10000000000E+01 0.  0.
    9000005    1    3    3    0    0 -0.14552800295E+01 -0.52985907561E+02 -0.19931426257E+02  0.56638202590E+02  0.10000000000E+01 0.  0.
<mgrwt>
<rscale>  0 0.12500668E+03</rscale>
<asrwt>0</asrwt>
<pdfrwt beam="1">  1        4 0.12007044E-01 0.12500668E+03</pdfrwt>
<pdfrwt beam="2">  1       -4 0.77009381E-02 0.12500668E+03</pdfrwt>
<totfact> 0.10383723E+04</totfact>
</mgrwt>
</event>
<event>
 5    1  0.3277540E-002  0.1249941E+03  0.7818608E-02  0.1235078E+00
          4   -1    0    0  501    0  0.00000000000E+00  0.00000000000E+00  0.10955758094E+03  0.10956494166E+03  0.12700000000E+01 0.  1.
         -4   -1    0    0    0  501 -0.00000000000E+00 -0.00000000000E+00 -0.35631543669E+02  0.35654169521E+02  0.12700000000E+01 0.  1.
         25    2    1    2    0    0  0.00000000000E+00  0.00000000000E+00  0.73926037271E+02  0.14521911118E+03  0.12499412493E+03 0.  0.
    9000005    1    3    3    0    0  0.13510380204E+02 -0.31139211827E+01  0.10775377064E+03  0.10864668410E+03  0.10000000000E+01 0.  0.
    9000005    1    3    3    0    0 -0.13510380204E+02  0.31139211827E+01 -0.33827733366E+02  0.36572427088E+02  0.10000000000E+01 0.  0.
<mgrwt>
<rscale>  0 0.12499412E+03</rscale>
<asrwt>0</asrwt>
<pdfrwt beam="1">  1        4 0.16857319E-01 0.12499412E+03</pdfrwt>
<pdfrwt beam="2">  1       -4 0.54840827E-02 0.12499412E+03</pdfrwt>
<totfact> 0.10027865E+04</totfact>
</mgrwt>
</event>
<event>
 5    1  0.3277540E-002  0.1249973E+03  0.7818608E-02  0.1235074E+00
          4   -1    0    0  501    0  0.00000000000E+00  0.00000000000E+00  0.33478552272E+03  0.33478793156E+03  0.12700000000E+01 0. -1.
         -4   -1    0    0    0  501 -0.00000000000E+00 -0.00000000000E+00 -0.11630395764E+02  0.11699530146E+02  0.12700000000E+01 0. -1.
         25    2    1    2    0    0  0.00000000000E+00  0.00000000000E+00  0.32315512695E+03  0.34648746171E+03  0.12499730016E+03 0.  0.
    9000005    1    3    3    0    0  0.35467804244E+02 -0.31171487657E+02  0.48114839054E+02  0.67421543425E+02  0.10000000000E+01 0.  0.
    9000005    1    3    3    0    0 -0.35467804244E+02  0.31171487657E+02  0.27504028790E+03  0.27906591828E+03  0.10000000000E+01 0.  0.
<mgrwt>
<rscale>  0 0.12499730E+03</rscale>
<asrwt>0</asrwt>
<pdfrwt beam="1">  1        4 0.51510961E-01 0.12499730E+03</pdfrwt>
<pdfrwt beam="2">  1       -4 0.17947952E-02 0.12499730E+03</pdfrwt>
<totfact> 0.70116908E+03</totfact>
</mgrwt>
</event>
<event>
 5    1  0.3277540E-002  0.1250002E+03  0.7818608E-02  0.1235069E+00
         -4   -1    0    0    0  501 -0.00000000000E+00  0.00000000000E+00  0.22559669156E+01  0.25888775028E+01  0.12700000000E+01 0.  1.
          4   -1    0    0  501    0  0.00000000000E+00 -0.00000000000E+00 -0.16122116127E+04  0.16122121129E+04  0.12700000000E+01 0.  1.
         25    2    1    2    0    0  0.00000000000E+00  0.00000000000E+00 -0.16099556458E+04  0.16148009904E+04  0.12500022902E+03 0.  0.
    9000005    1    3    3    0    0  0.50879387405E+02  0.31185116411E+02 -0.56536329207E+03  0.56850494771E+03  0.10000000000E+01 0.  0.
    9000005    1    3    3    0    0 -0.50879387405E+02 -0.31185116411E+02 -0.10445923537E+04  0.10462960427E+04  0.10000000000E+01 0.  0.
<mgrwt>
<rscale>  0 0.12500023E+03</rscale>
<asrwt>0</asrwt>
<pdfrwt beam="2">  1        4 0.24805734E+00 0.12500023E+03</pdfrwt>
<pdfrwt beam="1">  1       -4 0.37272011E-03 0.12500023E+03</pdfrwt>
<totfact> 0.15780121E+03</totfact>
</mgrwt>
</event>
<event>
 5    1  0.3277540E-002  0.1250001E+03  0.7818608E-02  0.1235069E+00
         -4   -1    0    0    0  501 -0.00000000000E+00  0.00000000000E+00  0.53972766434E+02  0.53987706162E+02  0.12700000000E+01 0.  1.
          4   -1    0    0  501    0  0.00000000000E+00 -0.00000000000E+00 -0.72343999723E+02  0.72355146299E+02  0.12700000000E+01 0.  1.
         25    2    1    2    0    0  0.00000000000E+00  0.00000000000E+00 -0.18371233289E+02  0.12634285246E+03  0.12500005662E+03 0.  0.
    9000005    1    3    3    0    0  0.10780898705E+01  0.58060148767E+02 -0.32522832323E+02  0.66564838879E+02  0.10000000000E+01 0.  0.
    9000005    1    3    3    0    0 -0.10780898705E+01 -0.58060148767E+02  0.14151599034E+02  0.59778013582E+02  0.10000000000E+01 0.  0.
<mgrwt>
<rscale>  0 0.12500006E+03</rscale>
<asrwt>0</asrwt>
<pdfrwt beam="2">  1        4 0.11131853E-01 0.12500006E+03</pdfrwt>
<pdfrwt beam="1">  1       -4 0.83055092E-02 0.12500006E+03</pdfrwt>
<totfact> 0.10423444E+04</totfact>
</mgrwt>
</event>
<event>
 5    1  0.3277540E-002  0.1249998E+03  0.7818608E-02  0.1235070E+00
          4   -1    0    0  501    0  0.00000000000E+00  0.00000000000E+00  0.39084726028E+02  0.39105353965E+02  0.12700000000E+01 0.  1.
         -4   -1    0    0    0  501 -0.00000000000E+00 -0.00000000000E+00 -0.99891791779E+02  0.99899864689E+02  0.12700000000E+01 0.  1.
         25    2    1    2    0    0  0.00000000000E+00  0.00000000000E+00 -0.60807065751E+02  0.13900521865E+03  0.12499980627E+03 0.  0.
    9000005    1    3    3    0    0 -0.84530476208E+01  0.60566873055E+02 -0.44706926618E+02  0.75759549981E+02  0.10000000000E+01 0.  0.
    9000005    1    3    3    0    0  0.84530476208E+01 -0.60566873055E+02 -0.16100139133E+02  0.63245668672E+02  0.10000000000E+01 0.  0.
<mgrwt>
<rscale>  0 0.12499981E+03</rscale>
<asrwt>0</asrwt>
<pdfrwt beam="1">  1        4 0.60152426E-02 0.12499981E+03</pdfrwt>
<pdfrwt beam="2">  1       -4 0.15370176E-01 0.12499981E+03</pdfrwt>
<totfact> 0.10154289E+04</totfact>
</mgrwt>
</event>
<event>
 5    1  0.3277540E-002  0.1249982E+03  0.7818608E-02  0.1235072E+00
          4   -1    0    0  501    0  0.00000000000E+00  0.00000000000E+00  0.69556309247E+02  0.69567902484E+02  0.12700000000E+01 0.  1.
         -4   -1    0    0    0  501 -0.00000000000E+00 -0.00000000000E+00 -0.56134437808E+02  0.56148802373E+02  0.12700000000E+01 0.  1.
         25    2    1    2    0    0  0.00000000000E+00  0.00000000000E+00  0.13421871439E+02  0.12571670486E+03  0.12499817298E+03 0.  0.
    9000005    1    3    3    0    0  0.95442380737E+01 -0.56517887228E+02 -0.18327385919E+02  0.60185190302E+02  0.10000000000E+01 0.  0.
    9000005    1    3    3    0    0 -0.95442380737E+01  0.56517887228E+02  0.31749257359E+02  0.65531514555E+02  0.10000000000E+01 0.  0.
<mgrwt>
<rscale>  0 0.12499817E+03</rscale>
<asrwt>0</asrwt>
<pdfrwt beam="1">  1        4 0.10702968E-01 0.12499817E+03</pdfrwt>
<pdfrwt beam="2">  1       -4 0.86380640E-02 0.12499817E+03</pdfrwt>
<totfact> 0.10437607E+04</totfact>
</mgrwt>
</event>
<event>
 5    1  0.3277540E-002  0.1250012E+03  0.7818608E-02  0.1235067E+00
         -4   -1    0    0    0  501 -0.00000000000E+00  0.00000000000E+00  0.32666307871E+03  0.32666554745E+03  0.12700000000E+01 0.  1.
          4   -1    0    0  501    0  0.00000000000E+00 -0.00000000000E+00 -0.11922033578E+02  0.11989486420E+02  0.12700000000E+01 0.  1.
         25    2    1    2    0    0  0.00000000000E+00  0.00000000000E+00  0.31474104513E+03  0.33865503387E+03  0.12500122590E+03 0.  0.
    9000005    1    3    3    0    0 -0.42210511856E+02 -0.16278930802E+02  0.40572435577E+02  0.60777079791E+02  0.10000000000E+01 0.  0.
    9000005    1    3    3    0    0  0.42210511856E+02  0.16278930802E+02  0.27416860955E+03  0.27787795408E+03  0.10000000000E+01 0.  0.
<mgrwt>
<rscale>  0 0.12500123E+03</rscale>
<asrwt>0</asrwt>
<pdfrwt beam="2">  1        4 0.18395377E-02 0.12500123E+03</pdfrwt>
<pdfrwt beam="1">  1       -4 0.50261235E-01 0.12500123E+03</pdfrwt>
<totfact> 0.70989014E+03</totfact>
</mgrwt>
</event>
<event>
 5    1  0.3277540E-002  0.1249589E+03  0.7818608E-02  0.1235134E+00
          4   -1    0    0  501    0  0.00000000000E+00  0.00000000000E+00  0.23666052953E+01  0.26858370434E+01  0.12700000000E+01 0.  1.
         -4   -1    0    0    0  501 -0.00000000000E+00 -0.00000000000E+00 -0.15449453983E+04  0.15449459203E+04  0.12700000000E+01 0.  1.
         25    2    1    2    0    0  0.00000000000E+00  0.00000000000E+00 -0.15425787930E+04  0.15476317574E+04  0.12495888799E+03 0.  0.
    9000005    1    3    3    0    0 -0.66176234157E+01 -0.25782068596E+02 -0.71318967963E+02  0.76130829446E+02  0.10000000000E+01 0.  0.
    9000005    1    3    3    0    0  0.66176234157E+01  0.25782068596E+02 -0.14712598251E+04  0.14715009279E+04  0.10000000000E+01 0.  0.
<mgrwt>
<rscale>  0 0.12495889E+03</rscale>
<asrwt>0</asrwt>
<pdfrwt beam="1">  1        4 0.38869080E-03 0.12495889E+03</pdfrwt>
<pdfrwt beam="2">  1       -4 0.23770775E+00 0.12495889E+03</pdfrwt>
<totfact> 0.17028280E+03</totfact>
</mgrwt>
</event>
<event>
 5    1  0.3277540E-002  0.1249997E+03  0.7818608E-02  0.1235070E+00
         -4   -1    0    0    0  501 -0.00000000000E+00  0.00000000000E+00  0.23541880434E+02  0.23576111520E+02  0.12700000000E+01 0. -1.
          4   -1    0    0  501    0  0.00000000000E+00 -0.00000000000E+00 -0.16576978919E+03  0.16577465400E+03  0.12700000000E+01 0. -1.
         25    2    1    2    0    0  0.00000000000E+00  0.00000000000E+00 -0.14222790876E+03  0.18935076552E+03  0.12499973749E+03 0.  0.
    9000005    1    3    3    0    0  0.13374507172E+02 -0.34347599978E+02  0.53291307219E+01  0.37256337724E+02  0.10000000000E+01 0.  0.
    9000005    1    3    3    0    0 -0.13374507172E+02  0.34347599978E+02 -0.14755703948E+03  0.15209442779E+03  0.10000000000E+01 0.  0.
<mgrwt>
<rscale>  0 0.12499974E+03</rscale>
<asrwt>0</asrwt>
<pdfrwt beam="2">  1        4 0.25506051E-01 0.12499974E+03</pdfrwt>
<pdfrwt beam="1">  1       -4 0.36248352E-02 0.12499974E+03</pdfrwt>
<totfact> 0.91960943E+03</totfact>
</mgrwt>
</event>
<event>
 5    1  0.3277540E-002  0.1249882E+03  0.7818608E-02  0.1235088E+00
         -4   -1    0    0    0  501 -0.00000000000E+00  0.00000000000E+00  0.13628469246E+03  0.13629060973E+03  0.12700000000E+01 0.  1.
          4   -1    0    0  501    0  0.00000000000E+00 -0.00000000000E+00 -0.28636397661E+02  0.28664545539E+02  0.12700000000E+01 0.  1.
         25    2    1    2    0    0  0.00000000000E+00  0.00000000000E+00  0.10764829480E+03  0.16495515527E+03  0.12498819094E+03 0.  0.
    9000005    1    3    3    0    0  0.17597709374E+02  0.38610041704E+02 -0.67140963206E+01  0.42970848083E+02  0.10000000000E+01 0.  0.
    9000005    1    3    3    0    0 -0.17597709374E+02 -0.38610041704E+02  0.11436239112E+03  0.12198430718E+03  0.10000000000E+01 0.  0.
<mgrwt>
<rscale>  0 0.12498819E+03</rscale>
<asrwt>0</asrwt>
<pdfrwt beam="2">  1        4 0.44082201E-02 0.12498819E+03</pdfrwt>
<pdfrwt beam="1">  1       -4 0.20969496E-01 0.12498819E+03</pdfrwt>
<totfact> 0.96421463E+03</totfact>
</mgrwt>
</event>
<event>
 5    1  0.3277540E-002  0.1250003E+03  0.7818608E-02  0.1235069E+00
         -4   -1    0    0    0  501 -0.00000000000E+00  0.00000000000E+00  0.17289777172E+01  0.21452887793E+01  0.12700000000E+01 0. -1.
          4   -1    0    0  501    0  0.00000000000E+00 -0.00000000000E+00 -0.20161025618E+04  0.20161029618E+04  0.12700000000E+01 0. -1.
         25    2    1    2    0    0  0.00000000000E+00  0.00000000000E+00 -0.20143735840E+04  0.20182482505E+04  0.12500025893E+03 0.  0.
    9000005    1    3    3    0    0  0.26485426894E+02  0.80788558763E+00 -0.19209871812E+04  0.19211701853E+04  0.10000000000E+01 0.  0.
    9000005    1    3    3    0    0 -0.26485426894E+02 -0.80788558763E+00 -0.93386402790E+02  0.97078065200E+02  0.10000000000E+01 0.  0.
<mgrwt>
<rscale>  0 0.12500026E+03</rscale>
<asrwt>0</asrwt>
<pdfrwt beam="2">  1        4 0.31020000E+00 0.12500026E+03</pdfrwt>
<pdfrwt beam="1">  1       -4 0.29805288E-03 0.12500026E+03</pdfrwt>
<totfact> 0.96249649E+02</totfact>
</mgrwt>
</event>
<event>
 5    1  0.3277540E-002  0.1249980E+03  0.7818608E-02  0.1235072E+00
          4   -1    0    0  501    0  0.00000000000E+00  0.00000000000E+00  0.13474634408E+03  0.13475232889E+03  0.12700000000E+01 0. -1.
         -4   -1    0    0    0  501 -0.00000000000E+00 -0.00000000000E+00 -0.28968193941E+02  0.28996019730E+02  0.12700000000E+01 0. -1.
         25    2    1    2    0    0  0.00000000000E+00  0.00000000000E+00  0.10577815014E+03  0.16374834862E+03  0.12499801851E+03 0.  0.
    9000005    1    3    3    0    0 -0.41973365757E+02 -0.15891776137E+02  0.10985277961E+03  0.11867158535E+03  0.10000000000E+01 0.  0.
    9000005    1    3    3    0    0  0.41973365757E+02  0.15891776137E+02 -0.40746294735E+01  0.45076763272E+02  0.10000000000E+01 0.  0.
<mgrwt>
<rscale>  0 0.12499802E+03</rscale>
<asrwt>0</asrwt>
<pdfrwt beam="1">  1        4 0.20732808E-01 0.12499802E+03</pdfrwt>
<pdfrwt beam="2">  1       -4 0.44592460E-02 0.12499802E+03</pdfrwt>
<totfact> 0.96629263E+03</totfact>
</mgrwt>
</event>
<event>
 5    1  0.3277540E-002  0.1250061E+03  0.7818608E-02  0.1235060E+00
         -4   -1    0    0    0  501 -0.00000000000E+00  0.00000000000E+00  0.56166253018E+02  0.56180609449E+02  0.12700000000E+01 0. -1.
          4   -1    0    0  501    0  0.00000000000E+00 -0.00000000000E+00 -0.69525749333E+02  0.69537347665E+02  0.12700000000E+01 0. -1.
         25    2    1    2    0    0  0.00000000000E+00  0.00000000000E+00 -0.13359496315E+02  0.12571795711E+03  0.12500611425E+03 0.  0.
    9000005    1    3    3    0    0 -0.43758448570E+01  0.30723551824E+02 -0.61233899022E+02  0.68656209074E+02  0.10000000000E+01 0.  0.
    9000005    1    3    3    0    0  0.43758448570E+01 -0.30723551824E+02  0.47874402707E+02  0.57061748041E+02  0.10000000000E+01 0.  0.
<mgrwt>
<rscale>  0 0.12500611E+03</rscale>
<asrwt>0</asrwt>
<pdfrwt beam="2">  1        4 0.10698266E-01 0.12500611E+03</pdfrwt>
<pdfrwt beam="1">  1       -4 0.86429585E-02 0.12500611E+03</pdfrwt>
<totfact> 0.10435710E+04</totfact>
</mgrwt>
</event>
<event>
 5    1  0.3277540E-002  0.1250023E+03  0.7818608E-02  0.1235066E+00
         -4   -1    0    0    0  501 -0.00000000000E+00  0.00000000000E+00  0.12831703726E+02  0.12894398803E+02  0.12700000000E+01 0.  1.
          4   -1    0    0  501    0  0.00000000000E+00 -0.00000000000E+00 -0.30362705330E+03  0.30362970934E+03  0.12700000000E+01 0.  1.
         25    2    1    2    0    0  0.00000000000E+00  0.00000000000E+00 -0.29079534957E+03  0.31652410814E+03  0.12500230279E+03 0.  0.
    9000005    1    3    3    0    0  0.24162469751E+02 -0.38094245360E+02 -0.25490816705E+03  0.25887095261E+03  0.10000000000E+01 0.  0.
    9000005    1    3    3    0    0 -0.24162469751E+02  0.38094245360E+02 -0.35887182518E+02  0.57653155535E+02  0.10000000000E+01 0.  0.
<mgrwt>
<rscale>  0 0.12500230E+03</rscale>
<asrwt>0</asrwt>
<pdfrwt beam="2">  1        4 0.46716876E-01 0.12500230E+03</pdfrwt>
<pdfrwt beam="1">  1       -4 0.19791355E-02 0.12500230E+03</pdfrwt>
<totfact> 0.73567698E+03</totfact>
</mgrwt>
</event>
<event>
 5    1  0.3277540E-002  0.1249978E+03  0.7818608E-02  0.1235073E+00
          4   -1    0    0  501    0  0.00000000000E+00  0.00000000000E+00  0.95690237081E+03  0.95690321358E+03  0.12700000000E+01 0.  1.
         -4   -1    0    0    0  501 -0.00000000000E+00 -0.00000000000E+00 -0.39823947146E+01  0.41799961320E+01  0.12700000000E+01 0.  1.
         25    2    1    2    0    0  0.00000000000E+00  0.00000000000E+00  0.95291997610E+03  0.96108320972E+03  0.12499782058E+03 0.  0.
    9000005    1    3    3    0    0 -0.12316229305E+02  0.36073992406E+02  0.85719855625E+03  0.85804626173E+03  0.10000000000E+01 0.  0.
    9000005    1    3    3    0    0  0.12316229305E+02 -0.36073992406E+02  0.95721419849E+02  0.10303694799E+03  0.10000000000E+01 0.  0.
<mgrwt>
<rscale>  0 0.12499782E+03</rscale>
<asrwt>0</asrwt>
<pdfrwt beam="1">  1        4 0.14723094E+00 0.12499782E+03</pdfrwt>
<pdfrwt beam="2">  1       -4 0.62794136E-03 0.12499782E+03</pdfrwt>
<totfact> 0.31927246E+03</totfact>
</mgrwt>
</event>
<event>
 5    1  0.3277540E-002  0.1249991E+03  0.7818608E-02  0.1235071E+00
         -4   -1    0    0    0  501 -0.00000000000E+00  0.00000000000E+00  0.51013629738E+02  0.51029435809E+02  0.12700000000E+01 0. -1.
          4   -1    0    0  501    0  0.00000000000E+00 -0.00000000000E+00 -0.76538626215E+02  0.76549162000E+02  0.12700000000E+01 0. -1.
         25    2    1    2    0    0  0.00000000000E+00  0.00000000000E+00 -0.25524996477E+02  0.12757859781E+03  0.12499909269E+03 0.  0.
    9000005    1    3    3    0    0 -0.47719519421E+02 -0.23008604482E+02 -0.46592313941E+02  0.70557721990E+02  0.10000000000E+01 0.  0.
    9000005    1    3    3    0    0  0.47719519421E+02  0.23008604482E+02  0.21067317464E+02  0.57020875819E+02  0.10000000000E+01 0.  0.
<mgrwt>
<rscale>  0 0.12499909E+03</rscale>
<asrwt>0</asrwt>
<pdfrwt beam="2">  1        4 0.11777200E-01 0.12499909E+03</pdfrwt>
<pdfrwt beam="1">  1       -4 0.78502770E-02 0.12499909E+03</pdfrwt>
<totfact> 0.10396812E+04</totfact>
</mgrwt>
</event>
<event>
 5    1  0.3277540E-002  0.1249994E+03  0.7818608E-02  0.1235070E+00
          4   -1    0    0  501    0  0.00000000000E+00  0.00000000000E+00  0.70734109904E+01  0.71865181444E+01  0.12700000000E+01 0. -1.
         -4   -1    0    0    0  501 -0.00000000000E+00 -0.00000000000E+00 -0.54774518691E+03  0.54774665922E+03  0.12700000000E+01 0. -1.
         25    2    1    2    0    0  0.00000000000E+00  0.00000000000E+00 -0.54067177592E+03  0.55493317737E+03  0.12499944824E+03 0.  0.
    9000005    1    3    3    0    0 -0.33239980044E+02 -0.39189963837E+02 -0.42820100227E+03  0.43127467800E+03  0.10000000000E+01 0.  0.
    9000005    1    3    3    0    0  0.33239980044E+02  0.39189963837E+02 -0.11247077365E+03  0.12365849936E+03  0.10000000000E+01 0.  0.
<mgrwt>
<rscale>  0 0.12499945E+03</rscale>
<asrwt>0</asrwt>
<pdfrwt beam="1">  1        4 0.10970313E-02 0.12499945E+03</pdfrwt>
<pdfrwt beam="2">  1       -4 0.84277271E-01 0.12499945E+03</pdfrwt>
<totfact> 0.51842448E+03</totfact>
</mgrwt>
</event>
<event>
 5    1  0.3277540E-002  0.1250132E+03  0.7818608E-02  0.1235049E+00
          4   -1    0    0  501    0  0.00000000000E+00  0.00000000000E+00  0.11461302812E+03  0.11462006419E+03  0.12700000000E+01 0.  1.
         -4   -1    0    0    0  501 -0.00000000000E+00 -0.00000000000E+00 -0.34069387554E+02  0.34093050147E+02  0.12700000000E+01 0.  1.
         25    2    1    2    0    0  0.00000000000E+00  0.00000000000E+00  0.80543640564E+02  0.14871311433E+03  0.12501324866E+03 0.  0.
    9000005    1    3    3    0    0  0.26502017944E+02 -0.36824376472E+02 -0.10861896524E+02  0.46662323707E+02  0.10000000000E+01 0.  0.
    9000005    1    3    3    0    0 -0.26502017944E+02  0.36824376472E+02  0.91405537087E+02  0.10205079063E+03  0.10000000000E+01 0.  0.
<mgrwt>
<rscale>  0 0.12501325E+03</rscale>
<asrwt>0</asrwt>
<pdfrwt beam="1">  1        4 0.17635136E-01 0.12501325E+03</pdfrwt>
<pdfrwt beam="2">  1       -4 0.52438055E-02 0.12501325E+03</pdfrwt>
<totfact> 0.99531155E+03</totfact>
</mgrwt>
</event>
<event>
 5    1  0.3277540E-002  0.1250063E+03  0.7818608E-02  0.1235060E+00
         -4   -1    0    0    0  501 -0.00000000000E+00  0.00000000000E+00  0.28934672922E+02  0.28962530917E+02  0.12700000000E+01 0. -1.
          4   -1    0    0  501    0  0.00000000000E+00 -0.00000000000E+00 -0.13492008981E+03  0.13492606692E+03  0.12700000000E+01 0. -1.
         25    2    1    2    0    0  0.00000000000E+00  0.00000000000E+00 -0.10598541689E+03  0.16388859783E+03  0.12500625547E+03 0.  0.
    9000005    1    3    3    0    0  0.43079951255E+00 -0.38483638926E+02  0.11561557347E+02  0.40197582782E+02  0.10000000000E+01 0.  0.
    9000005    1    3    3    0    0 -0.43079951255E+00  0.38483638926E+02 -0.11754697423E+03  0.12369101505E+03  0.10000000000E+01 0.  0.
<mgrwt>
<rscale>  0 0.12500626E+03</rscale>
<asrwt>0</asrwt>
<pdfrwt beam="2">  1        4 0.20759539E-01 0.12500626E+03</pdfrwt>
<pdfrwt beam="1">  1       -4 0.44540909E-02 0.12500626E+03</pdfrwt>
<totfact> 0.96584714E+03</totfact>
</mgrwt>
</event>
<event>
 5    1  0.3277540E-002  0.1250031E+03  0.7818608E-02  0.1235064E+00
         -4   -1    0    0    0  501 -0.00000000000E+00  0.00000000000E+00  0.53805523986E+02  0.53820510137E+02  0.12700000000E+01 0. -1.
          4   -1    0    0  501    0  0.00000000000E+00 -0.00000000000E+00 -0.72572407886E+02  0.72583519386E+02  0.12700000000E+01 0. -1.
         25    2    1    2    0    0  0.00000000000E+00  0.00000000000E+00 -0.18766883901E+02  0.12640402952E+03  0.12500313095E+03 0.  0.
    9000005    1    3    3    0    0 -0.53266079845E+02 -0.21043504451E+02  0.15903633221E+02  0.59447707199E+02  0.10000000000E+01 0.  0.
    9000005    1    3    3    0    0  0.53266079845E+02  0.21043504451E+02 -0.34670517121E+02  0.66956322323E+02  0.10000000000E+01 0.  0.
<mgrwt>
<rscale>  0 0.12500313E+03</rscale>
<asrwt>0</asrwt>
<pdfrwt beam="2">  1        4 0.11166993E-01 0.12500313E+03</pdfrwt>
<pdfrwt beam="1">  1       -4 0.82797805E-02 0.12500313E+03</pdfrwt>
<totfact> 0.10421385E+04</totfact>
</mgrwt>
</event>
<event>
 5    1  0.3277540E-002  0.1249977E+03  0.7818608E-02  0.1235073E+00
         -4   -1    0    0    0  501 -0.00000000000E+00  0.00000000000E+00  0.15457872183E+02  0.15509955268E+02  0.12700000000E+01 0. -1.
          4   -1    0    0  501    0  0.00000000000E+00 -0.00000000000E+00 -0.25221478744E+03  0.25221798489E+03  0.12700000000E+01 0. -1.
         25    2    1    2    0    0  0.00000000000E+00  0.00000000000E+00 -0.23675691525E+03  0.26772794016E+03  0.12499765206E+03 0.  0.
    9000005    1    3    3    0    0  0.20175051264E+02  0.45871589819E+02 -0.19834395364E+03  0.20457898082E+03  0.10000000000E+01 0.  0.
    9000005    1    3    3    0    0 -0.20175051264E+02 -0.45871589819E+02 -0.38412961613E+02  0.63148959341E+02  0.10000000000E+01 0.  0.
<mgrwt>
<rscale>  0 0.12499765E+03</rscale>
<asrwt>0</asrwt>
<pdfrwt beam="2">  1        4 0.38806524E-01 0.12499765E+03</pdfrwt>
<pdfrwt beam="1">  1       -4 0.23823867E-02 0.12499765E+03</pdfrwt>
<totfact> 0.79837811E+03</totfact>
</mgrwt>
</event>
<event>
 5    1  0.3277540E-002  0.1249984E+03  0.7818608E-02  0.1235072E+00
         -4   -1    0    0    0  501 -0.00000000000E+00  0.00000000000E+00  0.14449040600E+03  0.14449598723E+03  0.12700000000E+01 0. -1.
          4   -1    0    0  501    0  0.00000000000E+00 -0.00000000000E+00 -0.27012952225E+02  0.27042789944E+02  0.12700000000E+01 0. -1.
         25    2    1    2    0    0  0.00000000000E+00  0.00000000000E+00  0.11747745378E+03  0.17153877718E+03  0.12499839971E+03 0.  0.
    9000005    1    3    3    0    0  0.41115060522E+02 -0.36094943024E+02  0.17298588810E+02  0.57389322077E+02  0.10000000000E+01 0.  0.
    9000005    1    3    3    0    0 -0.41115060522E+02  0.36094943024E+02  0.10017886497E+03  0.11414945510E+03  0.10000000000E+01 0.  0.
<mgrwt>
<rscale>  0 0.12499840E+03</rscale>
<asrwt>0</asrwt>
<pdfrwt beam="2">  1        4 0.41585634E-02 0.12499840E+03</pdfrwt>
<pdfrwt beam="1">  1       -4 0.22232018E-01 0.12499840E+03</pdfrwt>
<totfact> 0.95166023E+03</totfact>
</mgrwt>
</event>
<event>
 5    1  0.3277540E-002  0.1249982E+03  0.7818608E-02  0.1235072E+00
         -4   -1    0    0    0  501 -0.00000000000E+00  0.00000000000E+00  0.21331936772E+03  0.21332314817E+03  0.12700000000E+01 0. -1.
          4   -1    0    0  501    0  0.00000000000E+00 -0.00000000000E+00 -0.18285256358E+02  0.18329307136E+02  0.12700000000E+01 0. -1.
         25    2    1    2    0    0  0.00000000000E+00  0.00000000000E+00  0.19503411136E+03  0.23165245530E+03  0.12499822180E+03 0.  0.
    9000005    1    3    3    0    0 -0.55635840473E+01 -0.62234882822E+02  0.99374703538E+02  0.11739022877E+03  0.10000000000E+01 0.  0.
    9000005    1    3    3    0    0  0.55635840473E+01  0.62234882822E+02  0.95659407822E+02  0.11426222653E+03  0.10000000000E+01 0.  0.
<mgrwt>
<rscale>  0 0.12499822E+03</rscale>
<asrwt>0</asrwt>
<pdfrwt beam="2">  1        4 0.28167957E-02 0.12499822E+03</pdfrwt>
<pdfrwt beam="1">  1       -4 0.32822043E-01 0.12499822E+03</pdfrwt>
<totfact> 0.85059879E+03</totfact>
</mgrwt>
</event>
<event>
 5    1  0.3277540E-002  0.1250161E+03  0.7818608E-02  0.1235044E+00
         -4   -1    0    0    0  501 -0.00000000000E+00  0.00000000000E+00  0.51069057765E+03  0.51069215679E+03  0.12700000000E+01 0. -1.
          4   -1    0    0  501    0  0.00000000000E+00 -0.00000000000E+00 -0.75966163907E+01  0.77020439228E+01  0.12700000000E+01 0. -1.
         25    2    1    2    0    0  0.00000000000E+00  0.00000000000E+00  0.50309396126E+03  0.51839420071E+03  0.12501605285E+03 0.  0.
    9000005    1    3    3    0    0 -0.60124698364E+02  0.14625753680E+02  0.21507525151E+03  0.22380182268E+03  0.10000000000E+01 0.  0.
    9000005    1    3    3    0    0  0.60124698364E+02 -0.14625753680E+02  0.28801870975E+03  0.29459237802E+03  0.10000000000E+01 0.  0.
<mgrwt>
<rscale>  0 0.12501605E+03</rscale>
<asrwt>0</asrwt>
<pdfrwt beam="2">  1        4 0.11769411E-02 0.12501605E+03</pdfrwt>
<pdfrwt beam="1">  1       -4 0.78576038E-01 0.12501605E+03</pdfrwt>
<totfact> 0.54445700E+03</totfact>
</mgrwt>
</event>
<event>
 5    1  0.3277540E-002  0.1249990E+03  0.7818608E-02  0.1235071E+00
         -4   -1    0    0    0  501 -0.00000000000E+00  0.00000000000E+00  0.98624991716E+02  0.98633168311E+02  0.12700000000E+01 0.  1.
          4   -1    0    0  501    0  0.00000000000E+00 -0.00000000000E+00 -0.39586436138E+02  0.39606802776E+02  0.12700000000E+01 0.  1.
         25    2    1    2    0    0  0.00000000000E+00  0.00000000000E+00  0.59038555578E+02  0.13823997109E+03  0.12499895424E+03 0.  0.
    9000005    1    3    3    0    0 -0.16556787185E+02 -0.48549054887E+02 -0.99555214229E+01  0.52261365645E+02  0.10000000000E+01 0.  0.
    9000005    1    3    3    0    0  0.16556787185E+02  0.48549054887E+02  0.68994077001E+02  0.85978605441E+02  0.10000000000E+01 0.  0.
<mgrwt>
<rscale>  0 0.12499895E+03</rscale>
<asrwt>0</asrwt>
<pdfrwt beam="2">  1        4 0.60924167E-02 0.12499895E+03</pdfrwt>
<pdfrwt beam="1">  1       -4 0.15175271E-01 0.12499895E+03</pdfrwt>
<totfact> 0.10170434E+04</totfact>
</mgrwt>
</event>
<event>
 5    1  0.3277540E-002  0.1250443E+03  0.7818608E-02  0.1235000E+00
         -4   -1    0    0    0  501 -0.00000000000E+00  0.00000000000E+00  0.51321086319E+02  0.51336797728E+02  0.12700000000E+01 0. -1.
          4   -1    0    0  501    0  0.00000000000E+00 -0.00000000000E+00 -0.76135243223E+02  0.76145834821E+02  0.12700000000E+01 0. -1.
         25    2    1    2    0    0  0.00000000000E+00  0.00000000000E+00 -0.24814156904E+02  0.12748263255E+03  0.12504430902E+03 0.  0.
    9000005    1    3    3    0    0 -0.16139166196E+02  0.36080306698E+02  0.36970381976E+02  0.54130124334E+02  0.10000000000E+01 0.  0.
    9000005    1    3    3    0    0  0.16139166196E+02 -0.36080306698E+02 -0.61784538880E+02  0.73352508216E+02  0.10000000000E+01 0.  0.
<mgrwt>
<rscale>  0 0.12504431E+03</rscale>
<asrwt>0</asrwt>
<pdfrwt beam="2">  1        4 0.11715138E-01 0.12504431E+03</pdfrwt>
<pdfrwt beam="1">  1       -4 0.78975750E-02 0.12504431E+03</pdfrwt>
<totfact> 0.10388282E+04</totfact>
</mgrwt>
</event>
<event>
 5    1  0.3277540E-002  0.1249989E+03  0.7818608E-02  0.1235071E+00
          4   -1    0    0  501    0  0.00000000000E+00  0.00000000000E+00  0.52906767332E+03  0.52906919760E+03  0.12700000000E+01 0. -1.
         -4   -1    0    0    0  501 -0.00000000000E+00 -0.00000000000E+00 -0.73269825179E+01  0.74362337791E+01  0.12700000000E+01 0. -1.
         25    2    1    2    0    0  0.00000000000E+00  0.00000000000E+00  0.52174069080E+03  0.53650543138E+03  0.12499891785E+03 0.  0.
    9000005    1    3    3    0    0 -0.57417645090E+02  0.23940991753E+02  0.23539645390E+03  0.24347987096E+03  0.10000000000E+01 0.  0.
    9000005    1    3    3    0    0  0.57417645090E+02 -0.23940991753E+02  0.28634423690E+03  0.29302556042E+03  0.10000000000E+01 0.  0.
<mgrwt>
<rscale>  0 0.12499892E+03</rscale>
<asrwt>0</asrwt>
<pdfrwt beam="1">  1        4 0.81403543E-01 0.12499892E+03</pdfrwt>
<pdfrwt beam="2">  1       -4 0.11357493E-02 0.12499892E+03</pdfrwt>
<totfact> 0.53140481E+03</totfact>
</mgrwt>
</event>
<event>
 5    1  0.3277540E-002  0.1249996E+03  0.7818608E-02  0.1235070E+00
          4   -1    0    0  501    0  0.00000000000E+00  0.00000000000E+00  0.27888647360E+03  0.27888936526E+03  0.12700000000E+01 0.  1.
         -4   -1    0    0    0  501 -0.00000000000E+00 -0.00000000000E+00 -0.13974748250E+02  0.14032337249E+02  0.12700000000E+01 0.  1.
         25    2    1    2    0    0  0.00000000000E+00  0.00000000000E+00  0.26491172535E+03  0.29292170251E+03  0.12499960630E+03 0.  0.
    9000005    1    3    3    0    0 -0.55075632463E+02 -0.53076277165E+01  0.20052409019E+03  0.20802020804E+03  0.10000000000E+01 0.  0.
    9000005    1    3    3    0    0  0.55075632463E+02  0.53076277165E+01  0.64387635152E+02  0.84901494472E+02  0.10000000000E+01 0.  0.
<mgrwt>
<rscale>  0 0.12499961E+03</rscale>
<asrwt>0</asrwt>
<pdfrwt beam="1">  1        4 0.42910261E-01 0.12499961E+03</pdfrwt>
<pdfrwt beam="2">  1       -4 0.21546138E-02 0.12499961E+03</pdfrwt>
<totfact> 0.76496063E+03</totfact>
</mgrwt>
</event>
<event>
 5    1  0.3277540E-002  0.1250002E+03  0.7818608E-02  0.1235069E+00
         -4   -1    0    0    0  501 -0.00000000000E+00  0.00000000000E+00  0.17189938353E+02  0.17236788581E+02  0.12700000000E+01 0. -1.
          4   -1    0    0  501    0  0.00000000000E+00 -0.00000000000E+00 -0.22688346662E+03  0.22688702106E+03  0.12700000000E+01 0. -1.
         25    2    1    2    0    0  0.00000000000E+00  0.00000000000E+00 -0.20969352827E+03  0.24412380964E+03  0.12500023455E+03 0.  0.
    9000005    1    3    3    0    0  0.49179682678E+02 -0.38491069368E+02 -0.10045317329E+03  0.11828796910E+03  0.10000000000E+01 0.  0.
    9000005    1    3    3    0    0 -0.49179682678E+02  0.38491069368E+02 -0.10924035498E+03  0.12583584055E+03  0.10000000000E+01 0.  0.
<mgrwt>
<rscale>  0 0.12500023E+03</rscale>
<asrwt>0</asrwt>
<pdfrwt beam="2">  1        4 0.34909024E-01 0.12500023E+03</pdfrwt>
<pdfrwt beam="1">  1       -4 0.26484833E-02 0.12500023E+03</pdfrwt>
<totfact> 0.83186573E+03</totfact>
</mgrwt>
</event>
<event>
 5    1  0.3277540E-002  0.1249984E+03  0.7818608E-02  0.1235072E+00
         -4   -1    0    0    0  501 -0.00000000000E+00  0.00000000000E+00  0.95478203472E+02  0.95486649528E+02  0.12700000000E+01 0.  1.
          4   -1    0    0  501    0  0.00000000000E+00 -0.00000000000E+00 -0.40891299782E+02  0.40911016827E+02  0.12700000000E+01 0.  1.
         25    2    1    2    0    0  0.00000000000E+00  0.00000000000E+00  0.54586903690E+02  0.13639766636E+03  0.12499837332E+03 0.  0.
    9000005    1    3    3    0    0 -0.59346171978E+02 -0.16549895786E+02  0.38700550969E+02  0.72764000881E+02  0.10000000000E+01 0.  0.
    9000005    1    3    3    0    0  0.59346171978E+02  0.16549895786E+02  0.15886352721E+02  0.63633665474E+02  0.10000000000E+01 0.  0.
<mgrwt>
<rscale>  0 0.12499837E+03</rscale>
<asrwt>0</asrwt>
<pdfrwt beam="2">  1        4 0.62931356E-02 0.12499837E+03</pdfrwt>
<pdfrwt beam="1">  1       -4 0.14691121E-01 0.12499837E+03</pdfrwt>
<totfact> 0.10209069E+04</totfact>
</mgrwt>
</event>
<event>
 5    1  0.3277540E-002  0.1250021E+03  0.7818608E-02  0.1235066E+00
         -4   -1    0    0    0  501 -0.00000000000E+00  0.00000000000E+00  0.97673715042E+03  0.97673797608E+03  0.12700000000E+01 0. -1.
          4   -1    0    0  501    0  0.00000000000E+00 -0.00000000000E+00 -0.38977505238E+01  0.40994340031E+01  0.12700000000E+01 0. -1.
         25    2    1    2    0    0  0.00000000000E+00  0.00000000000E+00  0.97283939990E+03  0.98083741008E+03  0.12500210807E+03 0.  0.
    9000005    1    3    3    0    0  0.36501381654E+02 -0.28544005387E+02  0.15739951055E+03  0.16408143414E+03  0.10000000000E+01 0.  0.
    9000005    1    3    3    0    0 -0.36501381654E+02  0.28544005387E+02  0.81543988935E+03  0.81675597595E+03  0.10000000000E+01 0.  0.
<mgrwt>
<rscale>  0 0.12500211E+03</rscale>
<asrwt>0</asrwt>
<pdfrwt beam="2">  1        4 0.61523182E-03 0.12500211E+03</pdfrwt>
<pdfrwt beam="1">  1       -4 0.15028277E+00 0.12500211E+03</pdfrwt>
<totfact> 0.31244369E+03</totfact>
</mgrwt>
</event>
<event>
 5    1  0.3277540E-002  0.1249998E+03  0.7818608E-02  0.1235070E+00
         -4   -1    0    0    0  501 -0.00000000000E+00  0.00000000000E+00  0.21878304276E+01  0.25297236963E+01  0.12700000000E+01 0.  1.
          4   -1    0    0  501    0  0.00000000000E+00 -0.00000000000E+00 -0.16557014791E+04  0.16557019662E+04  0.12700000000E+01 0.  1.
         25    2    1    2    0    0  0.00000000000E+00  0.00000000000E+00 -0.16535136487E+04  0.16582316899E+04  0.12499980378E+03 0.  0.
    9000005    1    3    3    0    0 -0.47715092469E+02  0.38712823098E+02 -0.97790923222E+03  0.97983819031E+03  0.10000000000E+01 0.  0.
    9000005    1    3    3    0    0  0.47715092469E+02 -0.38712823098E+02 -0.67560441648E+03  0.67839349959E+03  0.10000000000E+01 0.  0.
<mgrwt>
<rscale>  0 0.12499980E+03</rscale>
<asrwt>0</asrwt>
<pdfrwt beam="2">  1        4 0.25474871E+00 0.12499980E+03</pdfrwt>
<pdfrwt beam="1">  1       -4 0.36292757E-03 0.12499980E+03</pdfrwt>
<totfact> 0.15016983E+03</totfact>
</mgrwt>
</event>
<event>
 5    1  0.3277540E-002  0.1249939E+03  0.7818608E-02  0.1235079E+00
          4   -1    0    0  501    0  0.00000000000E+00  0.00000000000E+00  0.42313676905E+01  0.44178470472E+01  0.12700000000E+01 0.  1.
         -4   -1    0    0    0  501 -0.00000000000E+00 -0.00000000000E+00 -0.90298677457E+03  0.90298766766E+03  0.12700000000E+01 0.  1.
         25    2    1    2    0    0  0.00000000000E+00  0.00000000000E+00 -0.89875540688E+03  0.90740551470E+03  0.12499394677E+03 0.  0.
    9000005    1    3    3    0    0  0.33667078902E+01 -0.61526391609E+02 -0.52483563787E+03  0.52844136701E+03  0.10000000000E+01 0.  0.
    9000005    1    3    3    0    0 -0.33667078902E+01  0.61526391609E+02 -0.37391976901E+03  0.37896414770E+03  0.10000000000E+01 0.  0.
<mgrwt>
<rscale>  0 0.12499395E+03</rscale>
<asrwt>0</asrwt>
<pdfrwt beam="1">  1        4 0.66539363E-03 0.12499395E+03</pdfrwt>
<pdfrwt beam="2">  1       -4 0.13893531E+00 0.12499395E+03</pdfrwt>
<totfact> 0.33882448E+03</totfact>
</mgrwt>
</event>
<event>
 5    1  0.3277540E-002  0.1250009E+03  0.7818608E-02  0.1235068E+00
         -4   -1    0    0    0  501 -0.00000000000E+00  0.00000000000E+00  0.80674813537E+02  0.80684809222E+02  0.12700000000E+01 0.  1.
          4   -1    0    0  501    0  0.00000000000E+00 -0.00000000000E+00 -0.48399078396E+02  0.48415738036E+02  0.12700000000E+01 0.  1.
         25    2    1    2    0    0  0.00000000000E+00  0.00000000000E+00  0.32275735141E+02  0.12910054726E+03  0.12500091289E+03 0.  0.
    9000005    1    3    3    0    0  0.48674573616E+02 -0.32325904606E+02  0.39026118868E+02  0.70272442531E+02  0.10000000000E+01 0.  0.
    9000005    1    3    3    0    0 -0.48674573616E+02  0.32325904606E+02 -0.67503837273E+01  0.58828104727E+02  0.10000000000E+01 0.  0.
<mgrwt>
<rscale>  0 0.12500091E+03</rscale>
<asrwt>0</asrwt>
<pdfrwt beam="2">  1        4 0.74480625E-02 0.12500091E+03</pdfrwt>
<pdfrwt beam="1">  1       -4 0.12413560E-01 0.12500091E+03</pdfrwt>
<totfact> 0.10363573E+04</totfact>
</mgrwt>
</event>
<event>
 5    1  0.3277540E-002  0.1249990E+03  0.7818608E-02  0.1235071E+00
          4   -1    0    0  501    0  0.00000000000E+00  0.00000000000E+00  0.15378374969E+03  0.15378899365E+03  0.12700000000E+01 0.  1.
         -4   -1    0    0    0  501 -0.00000000000E+00 -0.00000000000E+00 -0.25378947930E+02  0.25410704398E+02  0.12700000000E+01 0.  1.
         25    2    1    2    0    0  0.00000000000E+00  0.00000000000E+00  0.12840480176E+03  0.17919969805E+03  0.12499895466E+03 0.  0.
    9000005    1    3    3    0    0  0.23585524530E+02  0.47861412953E+02  0.17567258858E+02  0.56183631076E+02  0.10000000000E+01 0.  0.
    9000005    1    3    3    0    0 -0.23585524530E+02 -0.47861412953E+02  0.11083754290E+03  0.12301606697E+03  0.10000000000E+01 0.  0.
<mgrwt>
<rscale>  0 0.12499895E+03</rscale>
<asrwt>0</asrwt>
<pdfrwt beam="1">  1        4 0.23661885E-01 0.12499895E+03</pdfrwt>
<pdfrwt beam="2">  1       -4 0.39072997E-02 0.12499895E+03</pdfrwt>
<totfact> 0.93763456E+03</totfact>
</mgrwt>
</event>
<event>
 5    1  0.3277540E-002  0.1249992E+03  0.7818608E-02  0.1235070E+00
          4   -1    0    0  501    0  0.00000000000E+00  0.00000000000E+00  0.63995341241E+01  0.65243342193E+01  0.12700000000E+01 0.  1.
         -4   -1    0    0    0  501 -0.00000000000E+00 -0.00000000000E+00 -0.60436868328E+03  0.60437001764E+03  0.12700000000E+01 0.  1.
         25    2    1    2    0    0  0.00000000000E+00  0.00000000000E+00 -0.59796914915E+03  0.61089435186E+03  0.12499922319E+03 0.  0.
    9000005    1    3    3    0    0 -0.35620184762E+02 -0.37347002480E+02 -0.12677766484E+03  0.13688379181E+03  0.10000000000E+01 0.  0.
    9000005    1    3    3    0    0  0.35620184762E+02  0.37347002480E+02 -0.47119148431E+03  0.47401056006E+03  0.10000000000E+01 0.  0.
<mgrwt>
<rscale>  0 0.12499922E+03</rscale>
<asrwt>0</asrwt>
<pdfrwt beam="1">  1        4 0.99424684E-03 0.12499922E+03</pdfrwt>
<pdfrwt beam="2">  1       -4 0.92989455E-01 0.12499922E+03</pdfrwt>
<totfact> 0.48187908E+03</totfact>
</mgrwt>
</event>
<event>
 5    1  0.3277540E-002  0.1249982E+03  0.7818608E-02  0.1235072E+00
         -4   -1    0    0    0  501 -0.00000000000E+00  0.00000000000E+00  0.10051682959E+03  0.10052485230E+03  0.12700000000E+01 0.  1.
          4   -1    0    0  501    0  0.00000000000E+00 -0.00000000000E+00 -0.38840606049E+02  0.38861363566E+02  0.12700000000E+01 0.  1.
         25    2    1    2    0    0  0.00000000000E+00  0.00000000000E+00  0.61676223538E+02  0.13938621587E+03  0.12499824248E+03 0.  0.
    9000005    1    3    3    0    0 -0.56002085161E+02 -0.15452835345E+02  0.56512587215E+02  0.81053662326E+02  0.10000000000E+01 0.  0.
    9000005    1    3    3    0    0  0.56002085161E+02  0.15452835345E+02  0.51636363226E+01  0.58332553541E+02  0.10000000000E+01 0.  0.
<mgrwt>
<rscale>  0 0.12499824E+03</rscale>
<asrwt>0</asrwt>
<pdfrwt beam="2">  1        4 0.59776918E-02 0.12499824E+03</pdfrwt>
<pdfrwt beam="1">  1       -4 0.15466341E-01 0.12499824E+03</pdfrwt>
<totfact> 0.10146724E+04</totfact>
</mgrwt>
</event>
<event>
 5    1  0.3277540E-002  0.1249925E+03  0.7818608E-02  0.1235081E+00
         -4   -1    0    0    0  501 -0.00000000000E+00  0.00000000000E+00  0.44921777926E+02  0.44939726658E+02  0.12700000000E+01 0. -1.
          4   -1    0    0  501    0  0.00000000000E+00 -0.00000000000E+00 -0.86906291304E+02  0.86915570343E+02  0.12700000000E+01 0. -1.
         25    2    1    2    0    0  0.00000000000E+00  0.00000000000E+00 -0.41984513377E+02  0.13185529700E+03  0.12499247971E+03 0.  0.
    9000005    1    3    3    0    0 -0.10693259698E+02  0.91464906989E+01  0.43233889382E+02  0.45477173243E+02  0.10000000000E+01 0.  0.
    9000005    1    3    3    0    0  0.10693259698E+02 -0.91464906989E+01 -0.85218402759E+02  0.86378123758E+02  0.10000000000E+01 0.  0.
<mgrwt>
<rscale>  0 0.12499248E+03</rscale>
<asrwt>0</asrwt>
<pdfrwt beam="2">  1        4 0.13372293E-01 0.12499248E+03</pdfrwt>
<pdfrwt beam="1">  1       -4 0.69131372E-02 0.12499248E+03</pdfrwt>
<totfact> 0.10306536E+04</totfact>
</mgrwt>
</event>
<event>
 5    1  0.3277540E-002  0.1250154E+03  0.7818608E-02  0.1235045E+00
          4   -1    0    0  501    0  0.00000000000E+00  0.00000000000E+00  0.19026803442E+01  0.22875953515E+01  0.12700000000E+01 0.  1.
         -4   -1    0    0    0  501 -0.00000000000E+00 -0.00000000000E+00 -0.18645103998E+04  0.18645108324E+04  0.12700000000E+01 0.  1.
         25    2    1    2    0    0  0.00000000000E+00  0.00000000000E+00 -0.18626077195E+04  0.18667984277E+04  0.12501541107E+03 0.  0.
    9000005    1    3    3    0    0  0.31976203071E+02  0.21983975245E+02 -0.19969434013E+03  0.20343205797E+03  0.10000000000E+01 0.  0.
    9000005    1    3    3    0    0 -0.31976203071E+02 -0.21983975245E+02 -0.16629133794E+04  0.16633663698E+04  0.10000000000E+01 0.  0.
<mgrwt>
<rscale>  0 0.12501541E+03</rscale>
<asrwt>0</asrwt>
<pdfrwt beam="1">  1        4 0.32236366E-03 0.12501541E+03</pdfrwt>
<pdfrwt beam="2">  1       -4 0.28687607E+00 0.12501541E+03</pdfrwt>
<totfact> 0.11697850E+03</totfact>
</mgrwt>
</event>
<event>
 5    1  0.3277540E-002  0.1250028E+03  0.7818608E-02  0.1235065E+00
         -4   -1    0    0    0  501 -0.00000000000E+00  0.00000000000E+00  0.60617729459E+02  0.60631031863E+02  0.12700000000E+01 0. -1.
          4   -1    0    0  501    0  0.00000000000E+00 -0.00000000000E+00 -0.64416935794E+02  0.64429453801E+02  0.12700000000E+01 0. -1.
         25    2    1    2    0    0  0.00000000000E+00  0.00000000000E+00 -0.37992063353E+01  0.12506048566E+03  0.12500276439E+03 0.  0.
    9000005    1    3    3    0    0  0.40145257086E+02  0.46532461222E+02 -0.13241114203E+02  0.62874786037E+02  0.10000000000E+01 0.  0.
    9000005    1    3    3    0    0 -0.40145257086E+02 -0.46532461222E+02  0.94419078677E+01  0.62185699627E+02  0.10000000000E+01 0.  0.
<mgrwt>
<rscale>  0 0.12500276E+03</rscale>
<asrwt>0</asrwt>
<pdfrwt beam="2">  1        4 0.99122840E-02 0.12500276E+03</pdfrwt>
<pdfrwt beam="1">  1       -4 0.93277907E-02 0.12500276E+03</pdfrwt>
<totfact> 0.10450896E+04</totfact>
</mgrwt>
</event>
<event>
 5    1  0.3277540E-002  0.1249990E+03  0.7818608E-02  0.1235071E+00
          4   -1    0    0  501    0  0.00000000000E+00  0.00000000000E+00  0.80123102857E+01  0.81123372781E+01  0.12700000000E+01 0. -1.
         -4   -1    0    0    0  501 -0.00000000000E+00 -0.00000000000E+00 -0.48439808480E+03  0.48439974964E+03  0.12700000000E+01 0. -1.
         25    2    1    2    0    0  0.00000000000E+00  0.00000000000E+00 -0.47638577451E+03  0.49251208692E+03  0.12499899843E+03 0.  0.
    9000005    1    3    3    0    0  0.51571278711E+02 -0.34619147306E+02 -0.26523527489E+03  0.27241298280E+03  0.10000000000E+01 0.  0.
    9000005    1    3    3    0    0 -0.51571278711E+02  0.34619147306E+02 -0.21115049962E+03  0.22009910412E+03  0.10000000000E+01 0.  0.
<mgrwt>
<rscale>  0 0.12499900E+03</rscale>
<asrwt>0</asrwt>
<pdfrwt beam="1">  1        4 0.12404859E-02 0.12499900E+03</pdfrwt>
<pdfrwt beam="2">  1       -4 0.74530582E-01 0.12499900E+03</pdfrwt>
<totfact> 0.56451306E+03</totfact>
</mgrwt>
</event>
<event>
 5    1  0.3277540E-002  0.1249756E+03  0.7818608E-02  0.1235107E+00
         -4   -1    0    0    0  501 -0.00000000000E+00  0.00000000000E+00  0.10105984534E+02  0.10185471192E+02  0.12700000000E+01 0.  1.
          4   -1    0    0  501    0  0.00000000000E+00 -0.00000000000E+00 -0.38478357035E+03  0.38478566620E+03  0.12700000000E+01 0.  1.
         25    2    1    2    0    0  0.00000000000E+00  0.00000000000E+00 -0.37467758582E+03  0.39497113739E+03  0.12497562185E+03 0.  0.
    9000005    1    3    3    0    0  0.60688280568E+02  0.74195567051E+01 -0.14666802170E+03  0.15890445497E+03  0.10000000000E+01 0.  0.
    9000005    1    3    3    0    0 -0.60688280568E+02 -0.74195567051E+01 -0.22800956412E+03  0.23606668242E+03  0.10000000000E+01 0.  0.
<mgrwt>
<rscale>  0 0.12497562E+03</rscale>
<asrwt>0</asrwt>
<pdfrwt beam="2">  1        4 0.59203737E-01 0.12497562E+03</pdfrwt>
<pdfrwt beam="1">  1       -4 0.15610427E-02 0.12497562E+03</pdfrwt>
<totfact> 0.65079879E+03</totfact>
</mgrwt>
</event>
<event>
 5    1  0.3277540E-002  0.1250014E+03  0.7818608E-02  0.1235067E+00
          4   -1    0    0  501    0  0.00000000000E+00  0.00000000000E+00  0.93442477281E+01  0.94301572417E+01  0.12700000000E+01 0.  1.
         -4   -1    0    0    0  501 -0.00000000000E+00 -0.00000000000E+00 -0.41604724205E+03  0.41604918041E+03  0.12700000000E+01 0.  1.
         25    2    1    2    0    0  0.00000000000E+00  0.00000000000E+00 -0.40670299432E+03  0.42547933765E+03  0.12500136470E+03 0.  0.
    9000005    1    3    3    0    0  0.21337194092E+02 -0.54119430418E+02 -0.12564743675E+03  0.13846467767E+03  0.10000000000E+01 0.  0.
    9000005    1    3    3    0    0 -0.21337194092E+02  0.54119430418E+02 -0.28105555757E+03  0.28701465998E+03  0.10000000000E+01 0.  0.
<mgrwt>
<rscale>  0 0.12500136E+03</rscale>
<asrwt>0</asrwt>
<pdfrwt beam="1">  1        4 0.14443344E-02 0.12500136E+03</pdfrwt>
<pdfrwt beam="2">  1       -4 0.64014011E-01 0.12500136E+03</pdfrwt>
<totfact> 0.62146046E+03</totfact>
</mgrwt>
</event>
<event>
 5    1  0.3277540E-002  0.1250046E+03  0.7818608E-02  0.1235062E+00
          4   -1    0    0  501    0  0.00000000000E+00  0.00000000000E+00  0.54712165931E+02  0.54726903812E+02  0.12700000000E+01 0.  1.
         -4   -1    0    0    0  501 -0.00000000000E+00 -0.00000000000E+00 -0.71371596353E+02  0.71382894772E+02  0.12700000000E+01 0.  1.
         25    2    1    2    0    0  0.00000000000E+00  0.00000000000E+00 -0.16659430422E+02  0.12610979858E+03  0.12500457862E+03 0.  0.
    9000005    1    3    3    0    0 -0.25105445106E+02  0.35468588336E+02  0.36980991922E+02  0.57069237739E+02  0.10000000000E+01 0.  0.
    9000005    1    3    3    0    0  0.25105445106E+02 -0.35468588336E+02 -0.53640422344E+02  0.69040560845E+02  0.10000000000E+01 0.  0.
<mgrwt>
<rscale>  0 0.12500458E+03</rscale>
<asrwt>0</asrwt>
<pdfrwt beam="1">  1        4 0.84192591E-02 0.12500458E+03</pdfrwt>
<pdfrwt beam="2">  1       -4 0.10982248E-01 0.12500458E+03</pdfrwt>
<totfact> 0.10427475E+04</totfact>
</mgrwt>
</event>
<event>
 5    1  0.3277540E-002  0.1250073E+03  0.7818608E-02  0.1235058E+00
         -4   -1    0    0    0  501 -0.00000000000E+00  0.00000000000E+00  0.10225839916E+03  0.10226628525E+03  0.12700000000E+01 0.  1.
          4   -1    0    0  501    0  0.00000000000E+00 -0.00000000000E+00 -0.38184319564E+02  0.38205433652E+02  0.12700000000E+01 0.  1.
         25    2    1    2    0    0  0.00000000000E+00  0.00000000000E+00  0.64074079598E+02  0.14047171890E+03  0.12500726433E+03 0.  0.
    9000005    1    3    3    0    0  0.12520234567E+02  0.87756660097E+01  0.10012983533E+03  0.10129537261E+03  0.10000000000E+01 0.  0.
    9000005    1    3    3    0    0 -0.12520234567E+02 -0.87756660097E+01 -0.36055755736E+02  0.39176346297E+02  0.10000000000E+01 0.  0.
<mgrwt>
<rscale>  0 0.12500726E+03</rscale>
<asrwt>0</asrwt>
<pdfrwt beam="2">  1        4 0.58767416E-02 0.12500726E+03</pdfrwt>
<pdfrwt beam="1">  1       -4 0.15734292E-01 0.12500726E+03</pdfrwt>
<totfact> 0.10122162E+04</totfact>
</mgrwt>
</event>
<event>
 5    1  0.3277540E-002  0.1250301E+03  0.7818608E-02  0.1235022E+00
          4   -1    0    0  501    0  0.00000000000E+00  0.00000000000E+00  0.30009579076E+02  0.30036440140E+02  0.12700000000E+01 0.  1.
         -4   -1    0    0    0  501 -0.00000000000E+00 -0.00000000000E+00 -0.13014120600E+03  0.13014740258E+03  0.12700000000E+01 0.  1.
         25    2    1    2    0    0  0.00000000000E+00  0.00000000000E+00 -0.10013162692E+03  0.16018384272E+03  0.12503007942E+03 0.  0.
    9000005    1    3    3    0    0  0.36528583724E+02 -0.21378774975E+02  0.88640487218E+01  0.43254604473E+02  0.10000000000E+01 0.  0.
    9000005    1    3    3    0    0 -0.36528583724E+02  0.21378774975E+02 -0.10899567564E+03  0.11692923825E+03  0.10000000000E+01 0.  0.
<mgrwt>
<rscale>  0 0.12503008E+03</rscale>
<asrwt>0</asrwt>
<pdfrwt beam="1">  1        4 0.46194013E-02 0.12503008E+03</pdfrwt>
<pdfrwt beam="2">  1       -4 0.20024267E-01 0.12503008E+03</pdfrwt>
<totfact> 0.97241594E+03</totfact>
</mgrwt>
</event>
<event>
 5    1  0.3277540E-002  0.1249642E+03  0.7818608E-02  0.1235125E+00
          4   -1    0    0  501    0  0.00000000000E+00  0.00000000000E+00  0.83515095356E+03  0.83515191919E+03  0.12700000000E+01 0.  1.
         -4   -1    0    0    0  501 -0.00000000000E+00 -0.00000000000E+00 -0.45873783962E+01  0.47599307295E+01  0.12700000000E+01 0.  1.
         25    2    1    2    0    0  0.00000000000E+00  0.00000000000E+00  0.83056357516E+03  0.83991184992E+03  0.12496424789E+03 0.  0.
    9000005    1    3    3    0    0  0.47863326063E+02 -0.99734537448E+01  0.67668858414E+03  0.67845324648E+03  0.10000000000E+01 0.  0.
    9000005    1    3    3    0    0 -0.47863326063E+02  0.99734537448E+01  0.15387499103E+03  0.16145860344E+03  0.10000000000E+01 0.  0.
<mgrwt>
<rscale>  0 0.12496425E+03</rscale>
<asrwt>0</asrwt>
<pdfrwt beam="1">  1        4 0.12849813E+00 0.12496425E+03</pdfrwt>
<pdfrwt beam="2">  1       -4 0.71909794E-03 0.12496425E+03</pdfrwt>
<totfact> 0.36572275E+03</totfact>
</mgrwt>
</event>
<event>
 5    1  0.3277540E-002  0.1250003E+03  0.7818608E-02  0.1235069E+00
          4   -1    0    0  501    0  0.00000000000E+00  0.00000000000E+00  0.31729984545E+02  0.31755390396E+02  0.12700000000E+01 0.  1.
         -4   -1    0    0    0  501 -0.00000000000E+00 -0.00000000000E+00 -0.12303177379E+03  0.12303832842E+03  0.12700000000E+01 0.  1.
         25    2    1    2    0    0  0.00000000000E+00  0.00000000000E+00 -0.91301789243E+02  0.15479371882E+03  0.12500031467E+03 0.  0.
    9000005    1    3    3    0    0 -0.51998336918E+02 -0.34206215089E+02 -0.52587567523E+02  0.81488308677E+02  0.10000000000E+01 0.  0.
    9000005    1    3    3    0    0  0.51998336918E+02  0.34206215089E+02 -0.38714221719E+02  0.73305410143E+02  0.10000000000E+01 0.  0.
<mgrwt>
<rscale>  0 0.12500031E+03</rscale>
<asrwt>0</asrwt>
<pdfrwt beam="1">  1        4 0.48839946E-02 0.12500031E+03</pdfrwt>
<pdfrwt beam="2">  1       -4 0.18930423E-01 0.12500031E+03</pdfrwt>
<totfact> 0.98355314E+03</totfact>
</mgrwt>
</event>
<event>
 5    1  0.3277540E-002  0.1249959E+03  0.7818608E-02  0.1235076E+00
         -4   -1    0    0    0  501 -0.00000000000E+00  0.00000000000E+00  0.37135578079E+02  0.37157288105E+02  0.12700000000E+01 0. -1.
          4   -1    0    0  501    0  0.00000000000E+00 -0.00000000000E+00 -0.10512566460E+03  0.10513333562E+03  0.12700000000E+01 0. -1.
         25    2    1    2    0    0  0.00000000000E+00  0.00000000000E+00 -0.67990086522E+02  0.14229062372E+03  0.12499587887E+03 0.  0.
    9000005    1    3    3    0    0 -0.17539297054E+02 -0.44607817112E+02 -0.79636256422E+02  0.92953846750E+02  0.10000000000E+01 0.  0.
    9000005    1    3    3    0    0  0.17539297054E+02  0.44607817112E+02  0.11646169900E+02  0.49336776972E+02  0.10000000000E+01 0.  0.
<mgrwt>
<rscale>  0 0.12499588E+03</rscale>
<asrwt>0</asrwt>
<pdfrwt beam="2">  1        4 0.16175439E-01 0.12499588E+03</pdfrwt>
<pdfrwt beam="1">  1       -4 0.57154260E-02 0.12499588E+03</pdfrwt>
<totfact> 0.10087266E+04</totfact>
</mgrwt>
</event>
<event>
 5    1  0.3277540E-002  0.1250089E+03  0.7818608E-02  0.1235055E+00
         -4   -1    0    0    0  501 -0.00000000000E+00  0.00000000000E+00  0.41772985421E+03  0.41773178476E+03  0.12700000000E+01 0.  1.
          4   -1    0    0  501    0  0.00000000000E+00 -0.00000000000E+00 -0.93073984690E+01  0.93936449934E+01  0.12700000000E+01 0.  1.
         25    2    1    2    0    0  0.00000000000E+00  0.00000000000E+00  0.40842245575E+03  0.42712542976E+03  0.12500892123E+03 0.  0.
    9000005    1    3    3    0    0  0.25106752650E+02  0.50185070404E+02  0.29821356048E+03  0.30344887210E+03  0.10000000000E+01 0.  0.
    9000005    1    3    3    0    0 -0.25106752650E+02 -0.50185070404E+02  0.11020889526E+03  0.12367655766E+03  0.10000000000E+01 0.  0.
<mgrwt>
<rscale>  0 0.12500892E+03</rscale>
<asrwt>0</asrwt>
<pdfrwt beam="2">  1        4 0.14386903E-02 0.12500892E+03</pdfrwt>
<pdfrwt beam="1">  1       -4 0.64272915E-01 0.12500892E+03</pdfrwt>
<totfact> 0.61985224E+03</totfact>
</mgrwt>
</event>
<event>
 5    1  0.3277540E-002  0.1249974E+03  0.7818608E-02  0.1235073E+00
         -4   -1    0    0    0  501 -0.00000000000E+00  0.00000000000E+00  0.25150973839E+03  0.25151294480E+03  0.12700000000E+01 0. -1.
          4   -1    0    0  501    0  0.00000000000E+00 -0.00000000000E+00 -0.15501276394E+02  0.15553214132E+02  0.12700000000E+01 0. -1.
         25    2    1    2    0    0  0.00000000000E+00  0.00000000000E+00  0.23600846199E+03  0.26706615893E+03  0.12499735643E+03 0.  0.
    9000005    1    3    3    0    0  0.12463967896E+02  0.53308229557E+02  0.18238453914E+03  0.19042646337E+03  0.10000000000E+01 0.  0.
    9000005    1    3    3    0    0 -0.12463967896E+02 -0.53308229557E+02  0.53623922856E+02  0.76639695568E+02  0.10000000000E+01 0.  0.
<mgrwt>
<rscale>  0 0.12499736E+03</rscale>
<asrwt>0</asrwt>
<pdfrwt beam="2">  1        4 0.23890537E-02 0.12499736E+03</pdfrwt>
<pdfrwt beam="1">  1       -4 0.38698047E-01 0.12499736E+03</pdfrwt>
<totfact> 0.79929241E+03</totfact>
</mgrwt>
</event>
<event>
 5    1  0.3277540E-002  0.1250082E+03  0.7818608E-02  0.1235057E+00
         -4   -1    0    0    0  501 -0.00000000000E+00  0.00000000000E+00  0.15324705574E+02  0.15377239704E+02  0.12700000000E+01 0. -1.
          4   -1    0    0  501    0  0.00000000000E+00 -0.00000000000E+00 -0.25444179756E+03  0.25444496703E+03  0.12700000000E+01 0. -1.
         25    2    1    2    0    0  0.00000000000E+00  0.00000000000E+00 -0.23911709199E+03  0.26982220674E+03  0.12500815800E+03 0.  0.
    9000005    1    3    3    0    0  0.10116607737E+02 -0.41673713914E+02 -0.21433538231E+02  0.47952484238E+02  0.10000000000E+01 0.  0.
    9000005    1    3    3    0    0 -0.10116607737E+02  0.41673713914E+02 -0.21768355376E+03  0.22186972250E+03  0.10000000000E+01 0.  0.
<mgrwt>
<rscale>  0 0.12500816E+03</rscale>
<asrwt>0</asrwt>
<pdfrwt beam="2">  1        4 0.39149174E-01 0.12500816E+03</pdfrwt>
<pdfrwt beam="1">  1       -4 0.23619321E-02 0.12500816E+03</pdfrwt>
<totfact> 0.79532680E+03</totfact>
</mgrwt>
</event>
<event>
 5    1  0.3277540E-002  0.1249997E+03  0.7818608E-02  0.1235070E+00
         -4   -1    0    0    0  501 -0.00000000000E+00  0.00000000000E+00  0.81043277064E+02  0.81053227309E+02  0.12700000000E+01 0.  1.
          4   -1    0    0  501    0  0.00000000000E+00 -0.00000000000E+00 -0.48178074822E+02  0.48194810857E+02  0.12700000000E+01 0.  1.
         25    2    1    2    0    0  0.00000000000E+00  0.00000000000E+00  0.32865202242E+02  0.12924803817E+03  0.12499973541E+03 0.  0.
    9000005    1    3    3    0    0 -0.39932457569E+02 -0.28024065665E+02 -0.23949622449E+02  0.54355623807E+02  0.10000000000E+01 0.  0.
    9000005    1    3    3    0    0  0.39932457569E+02  0.28024065665E+02  0.56814824691E+02  0.74892414360E+02  0.10000000000E+01 0.  0.
<mgrwt>
<rscale>  0 0.12499974E+03</rscale>
<asrwt>0</asrwt>
<pdfrwt beam="2">  1        4 0.74140643E-02 0.12499974E+03</pdfrwt>
<pdfrwt beam="1">  1       -4 0.12470249E-01 0.12499974E+03</pdfrwt>
<totfact> 0.10360682E+04</totfact>
</mgrwt>
</event>
<event>
 5    1  0.3277540E-002  0.1249643E+03  0.7818608E-02  0.1235125E+00
         -4   -1    0    0    0  501 -0.00000000000E+00  0.00000000000E+00  0.23608861368E+03  0.23609202953E+03  0.12700000000E+01 0. -1.
          4   -1    0    0  501    0  0.00000000000E+00 -0.00000000000E+00 -0.16508323007E+02  0.16557102056E+02  0.12700000000E+01 0. -1.
         25    2    1    2    0    0  0.00000000000E+00  0.00000000000E+00  0.21958029067E+03  0.25264913159E+03  0.12496431347E+03 0.  0.
    9000005    1    3    3    0    0  0.32877299729E+02 -0.53093211622E+02  0.10616561679E+03  0.12317444599E+03  0.10000000000E+01 0.  0.
    9000005    1    3    3    0    0 -0.32877299729E+02  0.53093211622E+02  0.11341467388E+03  0.12947468559E+03  0.10000000000E+01 0.  0.
<mgrwt>
<rscale>  0 0.12496431E+03</rscale>
<asrwt>0</asrwt>
<pdfrwt beam="2">  1        4 0.25437574E-02 0.12496431E+03</pdfrwt>
<pdfrwt beam="1">  1       -4 0.36325335E-01 0.12496431E+03</pdfrwt>
<totfact> 0.82014019E+03</totfact>
</mgrwt>
</event>
<event>
 5    1  0.3277540E-002  0.1250003E+03  0.7818608E-02  0.1235069E+00
         -4   -1    0    0    0  501 -0.00000000000E+00  0.00000000000E+00  0.31879037361E+01  0.34315638170E+01  0.12700000000E+01 0.  1.
          4   -1    0    0  501    0  0.00000000000E+00 -0.00000000000E+00 -0.11799919563E+04  0.11799926398E+04  0.12700000000E+01 0.  1.
         25    2    1    2    0    0  0.00000000000E+00  0.00000000000E+00 -0.11768040526E+04  0.11834242036E+04  0.12500026970E+03 0.  0.
    9000005    1    3    3    0    0 -0.16349088988E+02 -0.44889104682E+02 -0.20700170545E+03  0.21244535883E+03  0.10000000000E+01 0.  0.
    9000005    1    3    3    0    0  0.16349088988E+02  0.44889104682E+02 -0.96980234715E+03  0.97097884476E+03  0.10000000000E+01 0.  0.
<mgrwt>
<rscale>  0 0.12500027E+03</rscale>
<asrwt>0</asrwt>
<pdfrwt beam="2">  1        4 0.18155568E+00 0.12500027E+03</pdfrwt>
<pdfrwt beam="1">  1       -4 0.50924333E-03 0.12500027E+03</pdfrwt>
<totfact> 0.25150698E+03</totfact>
</mgrwt>
</event>
<event>
 5    1  0.3277540E-002  0.1249999E+03  0.7818608E-02  0.1235069E+00
          4   -1    0    0  501    0  0.00000000000E+00  0.00000000000E+00  0.63321291622E+01  0.64582319351E+01  0.12700000000E+01 0. -1.
         -4   -1    0    0    0  501 -0.00000000000E+00 -0.00000000000E+00 -0.61068386645E+03  0.61068518701E+03  0.12700000000E+01 0. -1.
         25    2    1    2    0    0  0.00000000000E+00  0.00000000000E+00 -0.60435173728E+03  0.61714341895E+03  0.12499990877E+03 0.  0.
    9000005    1    3    3    0    0 -0.57065489039E+02  0.24715056836E+02 -0.27176517296E+03  0.27879134368E+03  0.10000000000E+01 0.  0.
    9000005    1    3    3    0    0  0.57065489039E+02 -0.24715056836E+02 -0.33258656432E+03  0.33835207527E+03  0.10000000000E+01 0.  0.
<mgrwt>
<rscale>  0 0.12499991E+03</rscale>
<asrwt>0</asrwt>
<pdfrwt beam="1">  1        4 0.98397599E-03 0.12499991E+03</pdfrwt>
<pdfrwt beam="2">  1       -4 0.93961121E-01 0.12499991E+03</pdfrwt>
<totfact> 0.47803159E+03</totfact>
</mgrwt>
</event>
<event>
 5    1  0.3277540E-002  0.1250017E+03  0.7818608E-02  0.1235067E+00
          4   -1    0    0  501    0  0.00000000000E+00  0.00000000000E+00  0.41955924442E+02  0.41975141403E+02  0.12700000000E+01 0.  1.
         -4   -1    0    0    0  501 -0.00000000000E+00 -0.00000000000E+00 -0.93061258297E+02  0.93069923691E+02  0.12700000000E+01 0.  1.
         25    2    1    2    0    0  0.00000000000E+00  0.00000000000E+00 -0.51105333854E+02  0.13504506509E+03  0.12500165782E+03 0.  0.
    9000005    1    3    3    0    0 -0.48694801122E+02  0.88633780930E+01  0.15665201977E+02  0.51924384257E+02  0.10000000000E+01 0.  0.
    9000005    1    3    3    0    0  0.48694801122E+02 -0.88633780930E+01 -0.66770535831E+02  0.83120680836E+02  0.10000000000E+01 0.  0.
<mgrwt>
<rscale>  0 0.12500166E+03</rscale>
<asrwt>0</asrwt>
<pdfrwt beam="1">  1        4 0.64569024E-02 0.12500166E+03</pdfrwt>
<pdfrwt beam="2">  1       -4 0.14319261E-01 0.12500166E+03</pdfrwt>
<totfact> 0.10236738E+04</totfact>
</mgrwt>
</event>
<event>
 5    1  0.3277540E-002  0.1250030E+03  0.7818608E-02  0.1235065E+00
         -4   -1    0    0    0  501 -0.00000000000E+00  0.00000000000E+00  0.66416322100E+01  0.67619655732E+01  0.12700000000E+01 0.  1.
          4   -1    0    0  501    0  0.00000000000E+00 -0.00000000000E+00 -0.58277323449E+03  0.58277461830E+03  0.12700000000E+01 0.  1.
         25    2    1    2    0    0  0.00000000000E+00  0.00000000000E+00 -0.57613160228E+03  0.58953658387E+03  0.12500304229E+03 0.  0.
    9000005    1    3    3    0    0 -0.49289455741E+02 -0.25070922808E+02 -0.15077410195E+03  0.16059835440E+03  0.10000000000E+01 0.  0.
    9000005    1    3    3    0    0  0.49289455741E+02  0.25070922808E+02 -0.42535750033E+03  0.42893822947E+03  0.10000000000E+01 0.  0.
<mgrwt>
<rscale>  0 0.12500304E+03</rscale>
<asrwt>0</asrwt>
<pdfrwt beam="2">  1        4 0.89666744E-01 0.12500304E+03</pdfrwt>
<pdfrwt beam="1">  1       -4 0.10311529E-02 0.12500304E+03</pdfrwt>
<totfact> 0.49531534E+03</totfact>
</mgrwt>
</event>
<event>
 5    1  0.3277540E-002  0.1249714E+03  0.7818608E-02  0.1235114E+00
          4   -1    0    0  501    0  0.00000000000E+00  0.00000000000E+00  0.38241979108E+03  0.38242189988E+03  0.12700000000E+01 0. -1.
         -4   -1    0    0    0  501 -0.00000000000E+00 -0.00000000000E+00 -0.10168253647E+02  0.10247257303E+02  0.12700000000E+01 0. -1.
         25    2    1    2    0    0  0.00000000000E+00  0.00000000000E+00  0.37225153743E+03  0.39266915718E+03  0.12497143627E+03 0.  0.
    9000005    1    3    3    0    0  0.67831615982E+01 -0.59149453993E+02  0.12660895215E+03  0.13991245818E+03  0.10000000000E+01 0.  0.
    9000005    1    3    3    0    0 -0.67831615982E+01  0.59149453993E+02  0.24564258528E+03  0.25275669900E+03  0.10000000000E+01 0.  0.
<mgrwt>
<rscale>  0 0.12497144E+03</rscale>
<asrwt>0</asrwt>
<pdfrwt beam="1">  1        4 0.58840044E-01 0.12497144E+03</pdfrwt>
<pdfrwt beam="2">  1       -4 0.15705864E-02 0.12497144E+03</pdfrwt>
<totfact> 0.65313273E+03</totfact>
</mgrwt>
</event>
<event>
 5    1  0.3277540E-002  0.1249972E+03  0.7818608E-02  0.1235074E+00
          4   -1    0    0  501    0  0.00000000000E+00  0.00000000000E+00  0.35392732946E+03  0.35392960803E+03  0.12700000000E+01 0. -1.
         -4   -1    0    0    0  501 -0.00000000000E+00 -0.00000000000E+00 -0.10997517387E+02  0.11070604712E+02  0.12700000000E+01 0. -1.
         25    2    1    2    0    0  0.00000000000E+00  0.00000000000E+00  0.34292981208E+03  0.36500021274E+03  0.12499719713E+03 0.  0.
    9000005    1    3    3    0    0  0.52281396051E+02 -0.13125758367E+02  0.26377990618E+03  0.26923311239E+03  0.10000000000E+01 0.  0.
    9000005    1    3    3    0    0 -0.52281396051E+02  0.13125758367E+02  0.79149905902E+02  0.95767100353E+02  0.10000000000E+01 0.  0.
<mgrwt>
<rscale>  0 0.12499720E+03</rscale>
<asrwt>0</asrwt>
<pdfrwt beam="1">  1        4 0.54456151E-01 0.12499720E+03</pdfrwt>
<pdfrwt beam="2">  1       -4 0.16977233E-02 0.12499720E+03</pdfrwt>
<totfact> 0.68109495E+03</totfact>
</mgrwt>
</event>
<event>
 5    1  0.3277540E-002  0.1249986E+03  0.7818608E-02  0.1235071E+00
          4   -1    0    0  501    0  0.00000000000E+00  0.00000000000E+00  0.10279331492E+02  0.10357487916E+02  0.12700000000E+01 0.  1.
         -4   -1    0    0    0  501 -0.00000000000E+00 -0.00000000000E+00 -0.37848330128E+03  0.37848543202E+03  0.12700000000E+01 0.  1.
         25    2    1    2    0    0  0.00000000000E+00  0.00000000000E+00 -0.36820396979E+03  0.38884291993E+03  0.12499861205E+03 0.  0.
    9000005    1    3    3    0    0  0.34395124261E+02 -0.45385744750E+02 -0.10404716552E+03  0.11861577911E+03  0.10000000000E+01 0.  0.
    9000005    1    3    3    0    0 -0.34395124261E+02  0.45385744750E+02 -0.26415680427E+03  0.27022714083E+03  0.10000000000E+01 0.  0.
<mgrwt>
<rscale>  0 0.12499861E+03</rscale>
<asrwt>0</asrwt>
<pdfrwt beam="1">  1        4 0.15876118E-02 0.12499861E+03</pdfrwt>
<pdfrwt beam="2">  1       -4 0.58234366E-01 0.12499861E+03</pdfrwt>
<totfact> 0.65654591E+03</totfact>
</mgrwt>
</event>
<event>
 5    1  0.3277540E-002  0.1249956E+03  0.7818608E-02  0.1235076E+00
          4   -1    0    0  501    0  0.00000000000E+00  0.00000000000E+00  0.66021039521E+01  0.67231448441E+01  0.12700000000E+01 0.  1.
         -4   -1    0    0    0  501 -0.00000000000E+00 -0.00000000000E+00 -0.58612974831E+03  0.58613112420E+03  0.12700000000E+01 0.  1.
         25    2    1    2    0    0  0.00000000000E+00  0.00000000000E+00 -0.57952764436E+03  0.59285426904E+03  0.12499557491E+03 0.  0.
    9000005    1    3    3    0    0  0.12972300452E+02 -0.48591268496E+02 -0.46567623025E+03  0.46838525102E+03  0.10000000000E+01 0.  0.
    9000005    1    3    3    0    0 -0.12972300452E+02  0.48591268496E+02 -0.11385141410E+03  0.12446901802E+03  0.10000000000E+01 0.  0.
<mgrwt>
<rscale>  0 0.12499557E+03</rscale>
<asrwt>0</asrwt>
<pdfrwt beam="1">  1        4 0.10251254E-02 0.12499557E+03</pdfrwt>
<pdfrwt beam="2">  1       -4 0.90183183E-01 0.12499557E+03</pdfrwt>
<totfact> 0.49326602E+03</totfact>
</mgrwt>
</event>
<event>
 5    1  0.3277540E-002  0.1250309E+03  0.7818608E-02  0.1235021E+00
         -4   -1    0    0    0  501 -0.00000000000E+00  0.00000000000E+00  0.69055190444E+02  0.69066867796E+02  0.12700000000E+01 0.  1.
          4   -1    0    0  501    0  0.00000000000E+00 -0.00000000000E+00 -0.56571477876E+02  0.56585731497E+02  0.12700000000E+01 0.  1.
         25    2    1    2    0    0  0.00000000000E+00  0.00000000000E+00  0.12483712568E+02  0.12565259929E+03  0.12503092669E+03 0.  0.
    9000005    1    3    3    0    0  0.56145666223E+02  0.10052038367E+02 -0.19454867873E+02  0.60273304164E+02  0.10000000000E+01 0.  0.
    9000005    1    3    3    0    0 -0.56145666223E+02 -0.10052038367E+02  0.31938580441E+02  0.65379295129E+02  0.10000000000E+01 0.  0.
<mgrwt>
<rscale>  0 0.12503093E+03</rscale>
<asrwt>0</asrwt>
<pdfrwt beam="2">  1        4 0.87052990E-02 0.12503093E+03</pdfrwt>
<pdfrwt beam="1">  1       -4 0.10625870E-01 0.12503093E+03</pdfrwt>
<totfact> 0.10431308E+04</totfact>
</mgrwt>
</event>
<event>
 5    1  0.3277540E-002  0.1250081E+03  0.7818608E-02  0.1235057E+00
          4   -1    0    0  501    0  0.00000000000E+00  0.00000000000E+00  0.60885661521E+02  0.60898905399E+02  0.12700000000E+01 0. -1.
         -4   -1    0    0    0  501 -0.00000000000E+00 -0.00000000000E+00 -0.64138960039E+02  0.64151532288E+02  0.12700000000E+01 0. -1.
         25    2    1    2    0    0  0.00000000000E+00  0.00000000000E+00 -0.32532985182E+01  0.12505043769E+03  0.12500811180E+03 0.  0.
    9000005    1    3    3    0    0 -0.71353618139E+01  0.53289737274E+02  0.30243948368E+02  0.61696076859E+02  0.10000000000E+01 0.  0.
    9000005    1    3    3    0    0  0.71353618139E+01 -0.53289737274E+02 -0.33497246886E+02  0.63354360828E+02  0.10000000000E+01 0.  0.
<mgrwt>
<rscale>  0 0.12500811E+03</rscale>
<asrwt>0</asrwt>
<pdfrwt beam="1">  1        4 0.93690107E-02 0.12500811E+03</pdfrwt>
<pdfrwt beam="2">  1       -4 0.98695182E-02 0.12500811E+03</pdfrwt>
<totfact> 0.10449851E+04</totfact>
</mgrwt>
</event>
<event>
 5    1  0.3277540E-002  0.1249977E+03  0.7818608E-02  0.1235073E+00
         -4   -1    0    0    0  501 -0.00000000000E+00  0.00000000000E+00  0.29428231441E+02  0.29455622651E+02  0.12700000000E+01 0.  1.
          4   -1    0    0  501    0  0.00000000000E+00 -0.00000000000E+00 -0.13264120498E+03  0.13264728478E+03  0.12700000000E+01 0.  1.
         25    2    1    2    0    0  0.00000000000E+00  0.00000000000E+00 -0.10321297354E+03  0.16210290743E+03  0.12499773874E+03 0.  0.
    9000005    1    3    3    0    0 -0.16439426898E+02 -0.45231605329E+02 -0.10330101252E+03  0.11396601276E+03  0.10000000000E+01 0.  0.
    9000005    1    3    3    0    0  0.16439426898E+02  0.45231605329E+02  0.88038978361E-01  0.48136894667E+02  0.10000000000E+01 0.  0.
<mgrwt>
<rscale>  0 0.12499774E+03</rscale>
<asrwt>0</asrwt>
<pdfrwt beam="2">  1        4 0.20408914E-01 0.12499774E+03</pdfrwt>
<pdfrwt beam="1">  1       -4 0.45299950E-02 0.12499774E+03</pdfrwt>
<totfact> 0.96943813E+03</totfact>
</mgrwt>
</event>
<event>
 5    1  0.3277540E-002  0.1249999E+03  0.7818608E-02  0.1235069E+00
         -4   -1    0    0    0  501 -0.00000000000E+00  0.00000000000E+00  0.44425828233E+02  0.44443977255E+02  0.12700000000E+01 0.  1.
          4   -1    0    0  501    0  0.00000000000E+00 -0.00000000000E+00 -0.87886595487E+02  0.87895771038E+02  0.12700000000E+01 0.  1.
         25    2    1    2    0    0  0.00000000000E+00  0.00000000000E+00 -0.43460767254E+02  0.13233974829E+03  0.12499988275E+03 0.  0.
    9000005    1    3    3    0    0 -0.32298179499E+02  0.49618873432E+02 -0.42905760303E+02  0.73123930876E+02  0.10000000000E+01 0.  0.
    9000005    1    3    3    0    0  0.32298179499E+02 -0.49618873432E+02 -0.55500695109E+00  0.59215817417E+02  0.10000000000E+01 0.  0.
<mgrwt>
<rscale>  0 0.12499988E+03</rscale>
<asrwt>0</asrwt>
<pdfrwt beam="2">  1        4 0.13523117E-01 0.12499988E+03</pdfrwt>
<pdfrwt beam="1">  1       -4 0.68368447E-02 0.12499988E+03</pdfrwt>
<totfact> 0.10294479E+04</totfact>
</mgrwt>
</event>
<event>
 5    1  0.3277540E-002  0.1250017E+03  0.7818608E-02  0.1235067E+00
          4   -1    0    0  501    0  0.00000000000E+00  0.00000000000E+00  0.32130004629E+03  0.32130255624E+03  0.12700000000E+01 0. -1.
         -4   -1    0    0    0  501 -0.00000000000E+00 -0.00000000000E+00 -0.12122248832E+02  0.12188593715E+02  0.12700000000E+01 0. -1.
         25    2    1    2    0    0  0.00000000000E+00  0.00000000000E+00  0.30917779746E+03  0.33349114995E+03  0.12500174661E+03 0.  0.
    9000005    1    3    3    0    0 -0.22434009978E+02 -0.57782297335E+02  0.13336607839E+03  0.14707001582E+03  0.10000000000E+01 0.  0.
    9000005    1    3    3    0    0  0.22434009978E+02  0.57782297335E+02  0.17581171906E+03  0.18642113413E+03  0.10000000000E+01 0.  0.
<mgrwt>
<rscale>  0 0.12500175E+03</rscale>
<asrwt>0</asrwt>
<pdfrwt beam="1">  1        4 0.49436076E-01 0.12500175E+03</pdfrwt>
<pdfrwt beam="2">  1       -4 0.18702578E-02 0.12500175E+03</pdfrwt>
<totfact> 0.71576977E+03</totfact>
</mgrwt>
</event>
<event>
 5    1  0.3277540E-002  0.1249949E+03  0.7818608E-02  0.1235077E+00
         -4   -1    0    0    0  501 -0.00000000000E+00  0.00000000000E+00  0.17926396133E+03  0.17926845995E+03  0.12700000000E+01 0.  1.
          4   -1    0    0  501    0  0.00000000000E+00 -0.00000000000E+00 -0.21765432229E+02  0.21802452617E+02  0.12700000000E+01 0.  1.
         25    2    1    2    0    0  0.00000000000E+00  0.00000000000E+00  0.15749852910E+03  0.20107091257E+03  0.12499490074E+03 0.  0.
    9000005    1    3    3    0    0 -0.62314156762E+02  0.26463493664E+01  0.84953252001E+02  0.10539502988E+03  0.10000000000E+01 0.  0.
    9000005    1    3    3    0    0  0.62314156762E+02 -0.26463493664E+01  0.72545277103E+02  0.95675882687E+02  0.10000000000E+01 0.  0.
<mgrwt>
<rscale>  0 0.12499490E+03</rscale>
<asrwt>0</asrwt>
<pdfrwt beam="2">  1        4 0.33517219E-02 0.12499490E+03</pdfrwt>
<pdfrwt beam="1">  1       -4 0.27582264E-01 0.12499490E+03</pdfrwt>
<totfact> 0.89965466E+03</totfact>
</mgrwt>
</event>
<event>
 5    1  0.3277540E-002  0.1249975E+03  0.7818608E-02  0.1235073E+00
          4   -1    0    0  501    0  0.00000000000E+00  0.00000000000E+00  0.12828871692E+04  0.12828877978E+04  0.12700000000E+01 0. -1.
         -4   -1    0    0    0  501 -0.00000000000E+00 -0.00000000000E+00 -0.29116809854E+01  0.31765997798E+01  0.12700000000E+01 0. -1.
         25    2    1    2    0    0  0.00000000000E+00  0.00000000000E+00  0.12799754882E+04  0.12860643976E+04  0.12499753736E+03 0.  0.
    9000005    1    3    3    0    0 -0.45761073792E+02  0.22219149583E+02  0.10134171250E+04  0.10146935674E+04  0.10000000000E+01 0.  0.
    9000005    1    3    3    0    0  0.45761073792E+02 -0.22219149583E+02  0.26655836316E+03  0.27137083014E+03  0.10000000000E+01 0.  0.
<mgrwt>
<rscale>  0 0.12499754E+03</rscale>
<asrwt>0</asrwt>
<pdfrwt beam="1">  1        4 0.19738727E+00 0.12499754E+03</pdfrwt>
<pdfrwt beam="2">  1       -4 0.46837864E-03 0.12499754E+03</pdfrwt>
<totfact> 0.22561105E+03</totfact>
</mgrwt>
</event>
<event>
 5    1  0.3277540E-002  0.1250046E+03  0.7818608E-02  0.1235062E+00
          4   -1    0    0  501    0  0.00000000000E+00  0.00000000000E+00  0.88799332486E+02  0.88808413734E+02  0.12700000000E+01 0. -1.
         -4   -1    0    0    0  501 -0.00000000000E+00 -0.00000000000E+00 -0.43972344441E+02  0.43990680555E+02  0.12700000000E+01 0. -1.
         25    2    1    2    0    0  0.00000000000E+00  0.00000000000E+00  0.44826988045E+02  0.13279909429E+03  0.12500456226E+03 0.  0.
    9000005    1    3    3    0    0 -0.58627365644E+01  0.25432129065E+02 -0.37910724436E+02  0.46036810229E+02  0.10000000000E+01 0.  0.
    9000005    1    3    3    0    0  0.58627365644E+01 -0.25432129065E+02  0.82737712481E+02  0.86762284060E+02  0.10000000000E+01 0.  0.
<mgrwt>
<rscale>  0 0.12500456E+03</rscale>
<asrwt>0</asrwt>
<pdfrwt beam="1">  1        4 0.13663545E-01 0.12500456E+03</pdfrwt>
<pdfrwt beam="2">  1       -4 0.67670852E-02 0.12500456E+03</pdfrwt>
<totfact> 0.10283613E+04</totfact>
</mgrwt>
</event>
<event>
 5    1  0.3277540E-002  0.1249853E+03  0.7818608E-02  0.1235092E+00
         -4   -1    0    0    0  501 -0.00000000000E+00  0.00000000000E+00  0.15577975046E+03  0.15578492723E+03  0.12700000000E+01 0.  1.
          4   -1    0    0  501    0  0.00000000000E+00 -0.00000000000E+00 -0.25047885061E+02  0.25080060726E+02  0.12700000000E+01 0.  1.
         25    2    1    2    0    0  0.00000000000E+00  0.00000000000E+00  0.13073186540E+03  0.18086498796E+03  0.12498529209E+03 0.  0.
    9000005    1    3    3    0    0 -0.40068193583E+02 -0.82349738771E+01 -0.29860029952E+01  0.41026712586E+02  0.10000000000E+01 0.  0.
    9000005    1    3    3    0    0  0.40068193583E+02  0.82349738771E+01  0.13371786839E+03  0.13983827537E+03  0.10000000000E+01 0.  0.
<mgrwt>
<rscale>  0 0.12498529E+03</rscale>
<asrwt>0</asrwt>
<pdfrwt beam="2">  1        4 0.38563940E-02 0.12498529E+03</pdfrwt>
<pdfrwt beam="1">  1       -4 0.23968989E-01 0.12498529E+03</pdfrwt>
<totfact> 0.93492359E+03</totfact>
</mgrwt>
</event>
<event>
 5    1  0.3277540E-002  0.1249989E+03  0.7818608E-02  0.1235071E+00
          4   -1    0    0  501    0  0.00000000000E+00  0.00000000000E+00  0.23181926024E+02  0.23216687838E+02  0.12700000000E+01 0.  1.
         -4   -1    0    0    0  501 -0.00000000000E+00 -0.00000000000E+00 -0.16833761831E+03  0.16834240891E+03  0.12700000000E+01 0.  1.
         25    2    1    2    0    0  0.00000000000E+00  0.00000000000E+00 -0.14515569228E+03  0.19155909675E+03  0.12499885017E+03 0.  0.
    9000005    1    3    3    0    0  0.88024563257E+01  0.34244417685E+02  0.63863524485E+01  0.35943690372E+02  0.10000000000E+01 0.  0.
    9000005    1    3    3    0    0 -0.88024563257E+01 -0.34244417685E+02 -0.15154204473E+03  0.15561540637E+03  0.10000000000E+01 0.  0.
<mgrwt>
<rscale>  0 0.12499885E+03</rscale>
<asrwt>0</asrwt>
<pdfrwt beam="1">  1        4 0.35694928E-02 0.12499885E+03</pdfrwt>
<pdfrwt beam="2">  1       -4 0.25901137E-01 0.12499885E+03</pdfrwt>
<totfact> 0.91579101E+03</totfact>
</mgrwt>
</event>
<event>
 5    1  0.3277540E-002  0.1250007E+03  0.7818608E-02  0.1235068E+00
          4   -1    0    0  501    0  0.00000000000E+00  0.00000000000E+00  0.19611080009E+02  0.19652159147E+02  0.12700000000E+01 0. -1.
         -4   -1    0    0    0  501 -0.00000000000E+00 -0.00000000000E+00 -0.19893663902E+03  0.19894069278E+03  0.12700000000E+01 0. -1.
         25    2    1    2    0    0  0.00000000000E+00  0.00000000000E+00 -0.17932555901E+03  0.21859285193E+03  0.12500071520E+03 0.  0.
    9000005    1    3    3    0    0 -0.19586705123E+02 -0.53324480691E+02 -0.13520226125E+03  0.14665534666E+03  0.10000000000E+01 0.  0.
    9000005    1    3    3    0    0  0.19586705123E+02  0.53324480691E+02 -0.44123297767E+02  0.71937505269E+02  0.10000000000E+01 0.  0.
<mgrwt>
<rscale>  0 0.12500072E+03</rscale>
<asrwt>0</asrwt>
<pdfrwt beam="1">  1        4 0.30205611E-02 0.12500072E+03</pdfrwt>
<pdfrwt beam="2">  1       -4 0.30609107E-01 0.12500072E+03</pdfrwt>
<totfact> 0.87090112E+03</totfact>
</mgrwt>
</event>
<event>
 5    1  0.3277540E-002  0.1249987E+03  0.7818608E-02  0.1235071E+00
          4   -1    0    0  501    0  0.00000000000E+00  0.00000000000E+00  0.51220437837E+03  0.51220595283E+03  0.12700000000E+01 0.  1.
         -4   -1    0    0    0  501 -0.00000000000E+00 -0.00000000000E+00 -0.75717161832E+01  0.76774856535E+01  0.12700000000E+01 0.  1.
         25    2    1    2    0    0  0.00000000000E+00  0.00000000000E+00  0.50463266218E+03  0.51988343849E+03  0.12499866348E+03 0.  0.
    9000005    1    3    3    0    0 -0.61345836389E+02 -0.87477661362E+01  0.28593353891E+03  0.29257276656E+03  0.10000000000E+01 0.  0.
    9000005    1    3    3    0    0  0.61345836389E+02  0.87477661362E+01  0.21869912327E+03  0.22731067193E+03  0.10000000000E+01 0.  0.
<mgrwt>
<rscale>  0 0.12499866E+03</rscale>
<asrwt>0</asrwt>
<pdfrwt beam="1">  1        4 0.78808950E-01 0.12499866E+03</pdfrwt>
<pdfrwt beam="2">  1       -4 0.11731363E-02 0.12499866E+03</pdfrwt>
<totfact> 0.54355583E+03</totfact>
</mgrwt>
</event>
<event>
 5    1  0.3277540E-002  0.1249974E+03  0.7818608E-02  0.1235073E+00
          4   -1    0    0  501    0  0.00000000000E+00  0.00000000000E+00  0.26066674657E+03  0.26066984035E+03  0.12700000000E+01 0.  1.
         -4   -1    0    0    0  501 -0.00000000000E+00 -0.00000000000E+00 -0.14954896980E+02  0.15008725585E+02  0.12700000000E+01 0.  1.
         25    2    1    2    0    0  0.00000000000E+00  0.00000000000E+00  0.24571184959E+03  0.27567856593E+03  0.12499743472E+03 0.  0.
    9000005    1    3    3    0    0 -0.22285749273E+02  0.56739713600E+02  0.92532468622E+02  0.11081203666E+03  0.10000000000E+01 0.  0.
    9000005    1    3    3    0    0  0.22285749273E+02 -0.56739713600E+02  0.15317938097E+03  0.16486652927E+03  0.10000000000E+01 0.  0.
<mgrwt>
<rscale>  0 0.12499743E+03</rscale>
<asrwt>0</asrwt>
<pdfrwt beam="1">  1        4 0.40106955E-01 0.12499743E+03</pdfrwt>
<pdfrwt beam="2">  1       -4 0.23051321E-02 0.12499743E+03</pdfrwt>
<totfact> 0.78759098E+03</totfact>
</mgrwt>
</event>
<event>
 5    1  0.3277540E-002  0.1250020E+03  0.7818608E-02  0.1235066E+00
         -4   -1    0    0    0  501 -0.00000000000E+00  0.00000000000E+00  0.93977608223E+01  0.94831855657E+01  0.12700000000E+01 0.  1.
          4   -1    0    0  501    0  0.00000000000E+00 -0.00000000000E+00 -0.41370390874E+03  0.41370585808E+03  0.12700000000E+01 0.  1.
         25    2    1    2    0    0  0.00000000000E+00  0.00000000000E+00 -0.40430614792E+03  0.42318904365E+03  0.12500202164E+03 0.  0.
    9000005    1    3    3    0    0  0.11944946148E+02 -0.40465586622E+02 -0.35822343707E+03  0.36070095135E+03  0.10000000000E+01 0.  0.
    9000005    1    3    3    0    0 -0.11944946148E+02  0.40465586622E+02 -0.46082710849E+02  0.62488092292E+02  0.10000000000E+01 0.  0.
<mgrwt>
<rscale>  0 0.12500202E+03</rscale>
<asrwt>0</asrwt>
<pdfrwt beam="2">  1        4 0.63653462E-01 0.12500202E+03</pdfrwt>
<pdfrwt beam="1">  1       -4 0.14525308E-02 0.12500202E+03</pdfrwt>
<totfact> 0.62355478E+03</totfact>
</mgrwt>
</event>
<event>
 5    1  0.3277540E-002  0.1250002E+03  0.7818608E-02  0.1235069E+00
          4   -1    0    0  501    0  0.00000000000E+00  0.00000000000E+00  0.12631152491E+03  0.12631790936E+03  0.12700000000E+01 0.  1.
         -4   -1    0    0    0  501 -0.00000000000E+00 -0.00000000000E+00 -0.30905401135E+02  0.30931484273E+02  0.12700000000E+01 0.  1.
         25    2    1    2    0    0  0.00000000000E+00  0.00000000000E+00  0.95406123777E+02  0.15724939363E+03  0.12500017338E+03 0.  0.
    9000005    1    3    3    0    0  0.39823894220E+02  0.48016301829E+02  0.43037781184E+02  0.75794184483E+02  0.10000000000E+01 0.  0.
    9000005    1    3    3    0    0 -0.39823894220E+02 -0.48016301829E+02  0.52368342592E+02  0.81455209152E+02  0.10000000000E+01 0.  0.
<mgrwt>
<rscale>  0 0.12500017E+03</rscale>
<asrwt>0</asrwt>
<pdfrwt beam="1">  1        4 0.19435040E-01 0.12500017E+03</pdfrwt>
<pdfrwt beam="2">  1       -4 0.47571745E-02 0.12500017E+03</pdfrwt>
<totfact> 0.97875334E+03</totfact>
</mgrwt>
</event>
<event>
 5    1  0.3277540E-002  0.1249982E+03  0.7818608E-02  0.1235072E+00
         -4   -1    0    0    0  501 -0.00000000000E+00  0.00000000000E+00  0.10121254023E+03  0.10122050780E+03  0.12700000000E+01 0.  1.
          4   -1    0    0  501    0  0.00000000000E+00 -0.00000000000E+00 -0.38573491179E+02  0.38594392362E+02  0.12700000000E+01 0.  1.
         25    2    1    2    0    0  0.00000000000E+00  0.00000000000E+00  0.62639049051E+02  0.13981490016E+03  0.12499822336E+03 0.  0.
    9000005    1    3    3    0    0 -0.49737431631E+02 -0.22187593694E+02 -0.29565512437E+01  0.54551284260E+02  0.10000000000E+01 0.  0.
    9000005    1    3    3    0    0  0.49737431631E+02  0.22187593694E+02  0.65595600295E+02  0.85263615905E+02  0.10000000000E+01 0.  0.
<mgrwt>
<rscale>  0 0.12499822E+03</rscale>
<asrwt>0</asrwt>
<pdfrwt beam="2">  1        4 0.59366039E-02 0.12499822E+03</pdfrwt>
<pdfrwt beam="1">  1       -4 0.15573381E-01 0.12499822E+03</pdfrwt>
<totfact> 0.10137829E+04</totfact>
</mgrwt>
</event>
<event>
 5    1  0.3277540E-002  0.1250013E+03  0.7818608E-02  0.1235067E+00
          4   -1    0    0  501    0  0.00000000000E+00  0.00000000000E+00  0.12968983459E+03  0.12969605274E+03  0.12700000000E+01 0.  1.
         -4   -1    0    0    0  501 -0.00000000000E+00 -0.00000000000E+00 -0.30100222349E+02  0.30127002597E+02  0.12700000000E+01 0.  1.
         25    2    1    2    0    0  0.00000000000E+00  0.00000000000E+00  0.99589612242E+02  0.15982305534E+03  0.12500127260E+03 0.  0.
    9000005    1    3    3    0    0 -0.26655082732E+02  0.47364460774E+00  0.12206080960E+03  0.12494222270E+03  0.10000000000E+01 0.  0.
    9000005    1    3    3    0    0  0.26655082732E+02 -0.47364460774E+00 -0.22471197354E+02  0.34880832633E+02  0.10000000000E+01 0.  0.
<mgrwt>
<rscale>  0 0.12500127E+03</rscale>
<asrwt>0</asrwt>
<pdfrwt beam="1">  1        4 0.19954820E-01 0.12500127E+03</pdfrwt>
<pdfrwt beam="2">  1       -4 0.46333418E-02 0.12500127E+03</pdfrwt>
<totfact> 0.97374124E+03</totfact>
</mgrwt>
</event>
<event>
 5    1  0.3277540E-002  0.1249974E+03  0.7818608E-02  0.1235073E+00
         -4   -1    0    0    0  501 -0.00000000000E+00  0.00000000000E+00  0.67049509494E+02  0.67061536095E+02  0.12700000000E+01 0. -1.
          4   -1    0    0  501    0  0.00000000000E+00 -0.00000000000E+00 -0.58232605925E+02  0.58246453049E+02  0.12700000000E+01 0. -1.
         25    2    1    2    0    0  0.00000000000E+00  0.00000000000E+00  0.88169035690E+01  0.12530798914E+03  0.12499741739E+03 0.  0.
    9000005    1    3    3    0    0 -0.46477651980E+02 -0.41048619700E+02  0.12168956882E+02  0.63200038169E+02  0.10000000000E+01 0.  0.
    9000005    1    3    3    0    0  0.46477651980E+02  0.41048619700E+02 -0.33520533129E+01  0.62107950975E+02  0.10000000000E+01 0.  0.
<mgrwt>
<rscale>  0 0.12499742E+03</rscale>
<asrwt>0</asrwt>
<pdfrwt beam="2">  1        4 0.89608527E-02 0.12499742E+03</pdfrwt>
<pdfrwt beam="1">  1       -4 0.10317299E-01 0.12499742E+03</pdfrwt>
<totfact> 0.10446786E+04</totfact>
</mgrwt>
</event>
<event>
 5    1  0.3277540E-002  0.1250014E+03  0.7818608E-02  0.1235067E+00
         -4   -1    0    0    0  501 -0.00000000000E+00  0.00000000000E+00  0.41414932588E+03  0.41415127312E+03  0.12700000000E+01 0. -1.
          4   -1    0    0  501    0  0.00000000000E+00 -0.00000000000E+00 -0.93874652404E+01  0.94729828270E+01  0.12700000000E+01 0. -1.
         25    2    1    2    0    0  0.00000000000E+00  0.00000000000E+00  0.40476186064E+03  0.42362425594E+03  0.12500138558E+03 0.  0.
    9000005    1    3    3    0    0 -0.53372074365E+02  0.10266379177E+02  0.97851550050E+02  0.11193704798E+03  0.10000000000E+01 0.  0.
    9000005    1    3    3    0    0  0.53372074365E+02 -0.10266379177E+02  0.30691031059E+03  0.31168720796E+03  0.10000000000E+01 0.  0.
<mgrwt>
<rscale>  0 0.12500139E+03</rscale>
<asrwt>0</asrwt>
<pdfrwt beam="2">  1        4 0.14509535E-02 0.12500139E+03</pdfrwt>
<pdfrwt beam="1">  1       -4 0.63722006E-01 0.12500139E+03</pdfrwt>
<totfact> 0.62316291E+03</totfact>
</mgrwt>
</event>
<event>
 5    1  0.3277540E-002  0.1250026E+03  0.7818608E-02  0.1235065E+00
          4   -1    0    0  501    0  0.00000000000E+00  0.00000000000E+00  0.31671812282E+03  0.31672066908E+03  0.12700000000E+01 0.  1.
         -4   -1    0    0    0  501 -0.00000000000E+00 -0.00000000000E+00 -0.12298746882E+02  0.12364144728E+02  0.12700000000E+01 0.  1.
         25    2    1    2    0    0  0.00000000000E+00  0.00000000000E+00  0.30441937594E+03  0.32908481381E+03  0.12500263290E+03 0.  0.
    9000005    1    3    3    0    0  0.12318120624E+02  0.61256866764E+02  0.15518203093E+03  0.16729196796E+03  0.10000000000E+01 0.  0.
    9000005    1    3    3    0    0 -0.12318120624E+02 -0.61256866764E+02  0.14923734501E+03  0.16179284584E+03  0.10000000000E+01 0.  0.
<mgrwt>
<rscale>  0 0.12500263E+03</rscale>
<asrwt>0</asrwt>
<pdfrwt beam="1">  1        4 0.48731090E-01 0.12500263E+03</pdfrwt>
<pdfrwt beam="2">  1       -4 0.18973414E-02 0.12500263E+03</pdfrwt>
<totfact> 0.72084272E+03</totfact>
</mgrwt>
</event>
<event>
 5    1  0.3277540E-002  0.1249982E+03  0.7818608E-02  0.1235072E+00
          4   -1    0    0  501    0  0.00000000000E+00  0.00000000000E+00  0.68990299441E+02  0.69001987776E+02  0.12700000000E+01 0.  1.
         -4   -1    0    0    0  501 -0.00000000000E+00 -0.00000000000E+00 -0.56595008345E+02  0.56609256041E+02  0.12700000000E+01 0.  1.
         25    2    1    2    0    0  0.00000000000E+00  0.00000000000E+00  0.12395291096E+02  0.12561124382E+03  0.12499816531E+03 0.  0.
    9000005    1    3    3    0    0 -0.34447581735E+02 -0.39904311290E+02  0.39920327638E+02  0.66133369078E+02  0.10000000000E+01 0.  0.
    9000005    1    3    3    0    0  0.34447581735E+02  0.39904311290E+02 -0.27525036541E+02  0.59477874739E+02  0.10000000000E+01 0.  0.
<mgrwt>
<rscale>  0 0.12499817E+03</rscale>
<asrwt>0</asrwt>
<pdfrwt beam="1">  1        4 0.10615887E-01 0.12499817E+03</pdfrwt>
<pdfrwt beam="2">  1       -4 0.87089195E-02 0.12499817E+03</pdfrwt>
<totfact> 0.10439931E+04</totfact>
</mgrwt>
</event>
<event>
 5    1  0.3277540E-002  0.1249966E+03  0.7818608E-02  0.1235075E+00
         -4   -1    0    0    0  501 -0.00000000000E+00  0.00000000000E+00  0.25915791360E+02  0.25946890793E+02  0.12700000000E+01 0. -1.
          4   -1    0    0  501    0  0.00000000000E+00 -0.00000000000E+00 -0.15059615072E+03  0.15060150568E+03  0.12700000000E+01 0. -1.
         25    2    1    2    0    0  0.00000000000E+00  0.00000000000E+00 -0.12468035936E+03  0.17654839647E+03  0.12499657710E+03 0.  0.
    9000005    1    3    3    0    0 -0.49364590485E+02  0.33202454621E+02 -0.89352996100E+02  0.10735093711E+03  0.10000000000E+01 0.  0.
    9000005    1    3    3    0    0  0.49364590485E+02 -0.33202454621E+02 -0.35327363262E+02  0.69197459359E+02  0.10000000000E+01 0.  0.
<mgrwt>
<rscale>  0 0.12499658E+03</rscale>
<asrwt>0</asrwt>
<pdfrwt beam="2">  1        4 0.23171442E-01 0.12499658E+03</pdfrwt>
<pdfrwt beam="1">  1       -4 0.39898491E-02 0.12499658E+03</pdfrwt>
<totfact> 0.94249254E+03</totfact>
</mgrwt>
</event>
<event>
 5    1  0.3277540E-002  0.1250016E+03  0.7818608E-02  0.1235067E+00
         -4   -1    0    0    0  501 -0.00000000000E+00  0.00000000000E+00  0.20060267152E+03  0.20060669161E+03  0.12700000000E+01 0. -1.
          4   -1    0    0  501    0  0.00000000000E+00 -0.00000000000E+00 -0.19448159004E+02  0.19489581541E+02  0.12700000000E+01 0. -1.
         25    2    1    2    0    0  0.00000000000E+00  0.00000000000E+00  0.18115451251E+03  0.22009627315E+03  0.12500164820E+03 0.  0.
    9000005    1    3    3    0    0 -0.45615462989E+02  0.61108440031E+01  0.16501417776E+03  0.17131489060E+03  0.10000000000E+01 0.  0.
    9000005    1    3    3    0    0  0.45615462989E+02 -0.61108440031E+01  0.16140334751E+02  0.48781382555E+02  0.10000000000E+01 0.  0.
<mgrwt>
<rscale>  0 0.12500165E+03</rscale>
<asrwt>0</asrwt>
<pdfrwt beam="2">  1        4 0.29955202E-02 0.12500165E+03</pdfrwt>
<pdfrwt beam="1">  1       -4 0.30865443E-01 0.12500165E+03</pdfrwt>
<totfact> 0.86849922E+03</totfact>
</mgrwt>
</event>
<event>
 4    1  0.3277540E-002  0.1248043E+03  0.7818608E-02  0.1235375E+00
          4   -1    0    0  501    0  0.00000000000E+00  0.00000000000E+00  0.44232656116E+03  0.44232838436E+03  0.12700000000E+01 0.  1.
         -4   -1    0    0    0  501 -0.00000000000E+00 -0.00000000000E+00 -0.87558619527E+01  0.88474865659E+01  0.12700000000E+01 0.  1.
    9000005    1    1    2    0    0  0.84862818604E+01 -0.25253108271E+02  0.12820864837E+02  0.29582275645E+02  0.10000000000E+01 0.  0.
    9000005    1    1    2    0    0 -0.84862818604E+01  0.25253108271E+02  0.42074983437E+03  0.42159359528E+03  0.10000000000E+01 0.  0.
<mgrwt>
<rscale>  0 0.12480431E+03</rscale>
<asrwt>0</asrwt>
<pdfrwt beam="1">  1        4 0.68057420E-01 0.12480431E+03</pdfrwt>
<pdfrwt beam="2">  1       -4 0.13542441E-02 0.12480431E+03</pdfrwt>
<totfact> 0.60120829E+03</totfact>
</mgrwt>
</event>
<event>
 5    1  0.3277540E-002  0.1249995E+03  0.7818608E-02  0.1235070E+00
         -4   -1    0    0    0  501 -0.00000000000E+00  0.00000000000E+00  0.47238851859E+02  0.47255920528E+02  0.12700000000E+01 0. -1.
          4   -1    0    0  501    0  0.00000000000E+00 -0.00000000000E+00 -0.82653987809E+02  0.82663744173E+02  0.12700000000E+01 0. -1.
         25    2    1    2    0    0  0.00000000000E+00  0.00000000000E+00 -0.35415135950E+02  0.12991966470E+03  0.12499954969E+03 0.  0.
    9000005    1    3    3    0    0  0.16734290611E+02  0.32258398043E+02  0.35132276068E+02  0.50556083197E+02  0.10000000000E+01 0.  0.
    9000005    1    3    3    0    0 -0.16734290611E+02 -0.32258398043E+02 -0.70547412018E+02  0.79363581503E+02  0.10000000000E+01 0.  0.
<mgrwt>
<rscale>  0 0.12499955E+03</rscale>
<asrwt>0</asrwt>
<pdfrwt beam="2">  1        4 0.12718062E-01 0.12499955E+03</pdfrwt>
<pdfrwt beam="1">  1       -4 0.72695791E-02 0.12499955E+03</pdfrwt>
<totfact> 0.10346332E+04</totfact>
</mgrwt>
</event>
<event>
 5    1  0.3277540E-002  0.1250017E+03  0.7818608E-02  0.1235067E+00
         -4   -1    0    0    0  501 -0.00000000000E+00  0.00000000000E+00  0.66036223115E+03  0.66036345237E+03  0.12700000000E+01 0.  1.
          4   -1    0    0  501    0  0.00000000000E+00 -0.00000000000E+00 -0.58460683476E+01  0.59824255219E+01  0.12700000000E+01 0.  1.
         25    2    1    2    0    0  0.00000000000E+00  0.00000000000E+00  0.65451616280E+03  0.66634587789E+03  0.12500168646E+03 0.  0.
    9000005    1    3    3    0    0 -0.87438395402E+01 -0.53868981970E+02  0.48956294986E+03  0.49259639039E+03  0.10000000000E+01 0.  0.
    9000005    1    3    3    0    0  0.87438395402E+01  0.53868981970E+02  0.16495321294E+03  0.17374948750E+03  0.10000000000E+01 0.  0.
<mgrwt>
<rscale>  0 0.12500169E+03</rscale>
<asrwt>0</asrwt>
<pdfrwt beam="2">  1        4 0.90997813E-03 0.12500169E+03</pdfrwt>
<pdfrwt beam="1">  1       -4 0.10160477E+00 0.12500169E+03</pdfrwt>
<totfact> 0.44922074E+03</totfact>
</mgrwt>
</event>
<event>
 5    1  0.3277540E-002  0.1250079E+03  0.7818608E-02  0.1235057E+00
          4   -1    0    0  501    0  0.00000000000E+00  0.00000000000E+00  0.15280648185E+03  0.15281175935E+03  0.12700000000E+01 0. -1.
         -4   -1    0    0    0  501 -0.00000000000E+00 -0.00000000000E+00 -0.25545099077E+02  0.25576649250E+02  0.12700000000E+01 0. -1.
         25    2    1    2    0    0  0.00000000000E+00  0.00000000000E+00  0.12726138277E+03  0.17838840860E+03  0.12500785886E+03 0.  0.
    9000005    1    3    3    0    0  0.49036160712E+00  0.58256539368E+02  0.31351177109E+02  0.66166163103E+02  0.10000000000E+01 0.  0.
    9000005    1    3    3    0    0 -0.49036160712E+00 -0.58256539368E+02  0.95910205661E+02  0.11222224549E+03  0.10000000000E+01 0.  0.
<mgrwt>
<rscale>  0 0.12500786E+03</rscale>
<asrwt>0</asrwt>
<pdfrwt beam="1">  1        4 0.23511523E-01 0.12500786E+03</pdfrwt>
<pdfrwt beam="2">  1       -4 0.39328480E-02 0.12500786E+03</pdfrwt>
<totfact> 0.93891352E+03</totfact>
</mgrwt>
</event>
<event>
 5    1  0.3277540E-002  0.1250018E+03  0.7818608E-02  0.1235066E+00
          4   -1    0    0  501    0  0.00000000000E+00  0.00000000000E+00  0.13770237383E+02  0.13828678085E+02  0.12700000000E+01 0. -1.
         -4   -1    0    0    0  501 -0.00000000000E+00 -0.00000000000E+00 -0.28302106393E+03  0.28302391336E+03  0.12700000000E+01 0. -1.
         25    2    1    2    0    0  0.00000000000E+00  0.00000000000E+00 -0.26925082655E+03  0.29685259144E+03  0.12500181377E+03 0.  0.
    9000005    1    3    3    0    0 -0.48886126925E+01 -0.37126790397E+02 -0.15813304765E+02  0.40661501531E+02  0.10000000000E+01 0.  0.
    9000005    1    3    3    0    0  0.48886126925E+01  0.37126790397E+02 -0.25343752179E+03  0.25619108991E+03  0.10000000000E+01 0.  0.
<mgrwt>
<rscale>  0 0.12500181E+03</rscale>
<asrwt>0</asrwt>
<pdfrwt beam="1">  1        4 0.21232129E-02 0.12500181E+03</pdfrwt>
<pdfrwt beam="2">  1       -4 0.43546412E-01 0.12500181E+03</pdfrwt>
<totfact> 0.75992289E+03</totfact>
</mgrwt>
</event>
<event>
 5    1  0.3277540E-002  0.1250006E+03  0.7818608E-02  0.1235068E+00
         -4   -1    0    0    0  501 -0.00000000000E+00  0.00000000000E+00  0.56054466006E+01  0.57475152537E+01  0.12700000000E+01 0. -1.
          4   -1    0    0  501    0  0.00000000000E+00 -0.00000000000E+00 -0.68801067110E+03  0.68801184325E+03  0.12700000000E+01 0. -1.
         25    2    1    2    0    0  0.00000000000E+00  0.00000000000E+00 -0.68240522450E+03  0.69375935850E+03  0.12500062833E+03 0.  0.
    9000005    1    3    3    0    0  0.54114646067E+02  0.53080597406E+01 -0.51215116333E+03  0.51503046951E+03  0.10000000000E+01 0.  0.
    9000005    1    3    3    0    0 -0.54114646067E+02 -0.53080597406E+01 -0.17025406117E+03  0.17872888900E+03  0.10000000000E+01 0.  0.
<mgrwt>
<rscale>  0 0.12500063E+03</rscale>
<asrwt>0</asrwt>
<pdfrwt beam="2">  1        4 0.10585875E+00 0.12500063E+03</pdfrwt>
<pdfrwt beam="1">  1       -4 0.87339547E-03 0.12500063E+03</pdfrwt>
<totfact> 0.43417602E+03</totfact>
</mgrwt>
</event>
<event>
 4    1  0.3277540E-002  0.1248661E+03  0.7818608E-02  0.1235279E+00
         -4   -1    0    0    0  501 -0.00000000000E+00  0.00000000000E+00  0.93640705546E+01  0.94497998578E+01  0.12700000000E+01 0. -1.
          4   -1    0    0  501    0  0.00000000000E+00 -0.00000000000E+00 -0.41427596632E+03  0.41427791297E+03  0.12700000000E+01 0. -1.
    9000005    1    1    2    0    0 -0.52890680237E+02  0.25997894801E+02 -0.27229593859E+03  0.27860257135E+03  0.10000000000E+01 0.  0.
    9000005    1    1    2    0    0  0.52890680237E+02 -0.25997894801E+02 -0.13261595718E+03  0.14512514147E+03  0.10000000000E+01 0.  0.
<mgrwt>
<rscale>  0 0.12486605E+03</rscale>
<asrwt>0</asrwt>
<pdfrwt beam="2">  1        4 0.63741494E-01 0.12486605E+03</pdfrwt>
<pdfrwt beam="1">  1       -4 0.14473709E-02 0.12486605E+03</pdfrwt>
<totfact> 0.62493111E+03</totfact>
</mgrwt>
</event>
<event>
 5    1  0.3277540E-002  0.1249987E+03  0.7818608E-02  0.1235071E+00
         -4   -1    0    0    0  501 -0.00000000000E+00  0.00000000000E+00  0.40735909825E+02  0.40755702047E+02  0.12700000000E+01 0.  1.
          4   -1    0    0  501    0  0.00000000000E+00 -0.00000000000E+00 -0.95842731861E+02  0.95851145797E+02  0.12700000000E+01 0.  1.
         25    2    1    2    0    0  0.00000000000E+00  0.00000000000E+00 -0.55106822036E+02  0.13660684784E+03  0.12499867616E+03 0.  0.
    9000005    1    3    3    0    0 -0.70110077878E+01  0.60666676032E+02 -0.42034094375E+02  0.74144891266E+02  0.10000000000E+01 0.  0.
    9000005    1    3    3    0    0  0.70110077878E+01 -0.60666676032E+02 -0.13072727661E+02  0.62461956577E+02  0.10000000000E+01 0.  0.
<mgrwt>
<rscale>  0 0.12499868E+03</rscale>
<asrwt>0</asrwt>
<pdfrwt beam="2">  1        4 0.14747205E-01 0.12499868E+03</pdfrwt>
<pdfrwt beam="1">  1       -4 0.62692328E-02 0.12499868E+03</pdfrwt>
<totfact> 0.10204617E+04</totfact>
</mgrwt>
</event>
<event>
 4    1  0.3277540E-002  0.1253599E+03  0.7818608E-02  0.1234508E+00
          4   -1    0    0  501    0  0.00000000000E+00  0.00000000000E+00  0.35987853485E+03  0.35988077573E+03  0.12700000000E+01 0. -1.
         -4   -1    0    0    0  501 -0.00000000000E+00 -0.00000000000E+00 -0.10877733259E+02  0.10951620011E+02  0.12700000000E+01 0. -1.
    9000005    1    1    2    0    0  0.25043724408E+02  0.42570736093E+02  0.60378948512E+02  0.78013288144E+02  0.10000000000E+01 0.  0.
    9000005    1    1    2    0    0 -0.25043724408E+02 -0.42570736093E+02  0.28862185307E+03  0.29281910760E+03  0.10000000000E+01 0.  0.
<mgrwt>
<rscale>  0 0.12535991E+03</rscale>
<asrwt>0</asrwt>
<pdfrwt beam="1">  1        4 0.55371779E-01 0.12535991E+03</pdfrwt>
<pdfrwt beam="2">  1       -4 0.16793535E-02 0.12535991E+03</pdfrwt>
<totfact> 0.66957756E+03</totfact>
</mgrwt>
</event>
<event>
 5    1  0.3277540E-002  0.1250005E+03  0.7818608E-02  0.1235068E+00
         -4   -1    0    0    0  501 -0.00000000000E+00  0.00000000000E+00  0.10106778229E+04  0.10106786208E+04  0.12700000000E+01 0. -1.
          4   -1    0    0  501    0  0.00000000000E+00 -0.00000000000E+00 -0.37598640321E+01  0.39685611422E+01  0.12700000000E+01 0. -1.
         25    2    1    2    0    0  0.00000000000E+00  0.00000000000E+00  0.10069179589E+04  0.10146471820E+04  0.12500051197E+03 0.  0.
    9000005    1    3    3    0    0 -0.49510515702E+02 -0.29178746872E+02  0.30420142969E+03  0.30958391473E+03  0.10000000000E+01 0.  0.
    9000005    1    3    3    0    0  0.49510515702E+02  0.29178746872E+02  0.70271652918E+03  0.70506326724E+03  0.10000000000E+01 0.  0.
<mgrwt>
<rscale>  0 0.12500051E+03</rscale>
<asrwt>0</asrwt>
<pdfrwt beam="2">  1        4 0.59455520E-03 0.12500051E+03</pdfrwt>
<pdfrwt beam="1">  1       -4 0.15550512E+00 0.12500051E+03</pdfrwt>
<totfact> 0.30124406E+03</totfact>
</mgrwt>
</event>
<event>
 5    1  0.3277540E-002  0.1249998E+03  0.7818608E-02  0.1235070E+00
          4   -1    0    0  501    0  0.00000000000E+00  0.00000000000E+00  0.76935544140E+01  0.77976714166E+01  0.12700000000E+01 0.  1.
         -4   -1    0    0    0  501 -0.00000000000E+00 -0.00000000000E+00 -0.50421152565E+03  0.50421312508E+03  0.12700000000E+01 0.  1.
         25    2    1    2    0    0  0.00000000000E+00  0.00000000000E+00 -0.49651797124E+03  0.51201079649E+03  0.12499983986E+03 0.  0.
    9000005    1    3    3    0    0  0.47297848776E+02  0.34404814588E+02 -0.33841602093E+03  0.34343439109E+03  0.10000000000E+01 0.  0.
    9000005    1    3    3    0    0 -0.47297848776E+02 -0.34404814588E+02 -0.15810195031E+03  0.16857640540E+03  0.10000000000E+01 0.  0.
<mgrwt>
<rscale>  0 0.12499984E+03</rscale>
<asrwt>0</asrwt>
<pdfrwt beam="1">  1        4 0.11917562E-02 0.12499984E+03</pdfrwt>
<pdfrwt beam="2">  1       -4 0.77579110E-01 0.12499984E+03</pdfrwt>
<totfact> 0.54944576E+03</totfact>
</mgrwt>
</event>
<event>
 5    1  0.3277540E-002  0.1250002E+03  0.7818608E-02  0.1235069E+00
          4   -1    0    0  501    0  0.00000000000E+00  0.00000000000E+00  0.10797091278E+03  0.10797838166E+03  0.12700000000E+01 0.  1.
         -4   -1    0    0    0  501 -0.00000000000E+00 -0.00000000000E+00 -0.36158946917E+02  0.36181242960E+02  0.12700000000E+01 0.  1.
         25    2    1    2    0    0  0.00000000000E+00  0.00000000000E+00  0.71811965862E+02  0.14415962462E+03  0.12500015572E+03 0.  0.
    9000005    1    3    3    0    0 -0.39013385743E+02  0.48813749090E+02  0.36665189816E+02  0.72458005158E+02  0.10000000000E+01 0.  0.
    9000005    1    3    3    0    0  0.39013385743E+02 -0.48813749090E+02  0.35146776047E+02  0.71701619464E+02  0.10000000000E+01 0.  0.
<mgrwt>
<rscale>  0 0.12500016E+03</rscale>
<asrwt>0</asrwt>
<pdfrwt beam="1">  1        4 0.16613199E-01 0.12500016E+03</pdfrwt>
<pdfrwt beam="2">  1       -4 0.55652046E-02 0.12500016E+03</pdfrwt>
<totfact> 0.10048056E+04</totfact>
</mgrwt>
</event>
<event>
 5    1  0.3277540E-002  0.1249920E+03  0.7818608E-02  0.1235082E+00
          4   -1    0    0  501    0  0.00000000000E+00  0.00000000000E+00  0.59364909007E+03  0.59365044853E+03  0.12700000000E+01 0. -1.
         -4   -1    0    0    0  501 -0.00000000000E+00 -0.00000000000E+00 -0.65165575237E+01  0.66391582268E+01  0.12700000000E+01 0. -1.
         25    2    1    2    0    0  0.00000000000E+00  0.00000000000E+00  0.58713253255E+03  0.60028960676E+03  0.12499200457E+03 0.  0.
    9000005    1    3    3    0    0  0.14148779311E+02 -0.45703792285E+02  0.48661297857E+03  0.48896034144E+03  0.10000000000E+01 0.  0.
    9000005    1    3    3    0    0 -0.14148779311E+02  0.45703792285E+02  0.10051955397E+03  0.11132926532E+03  0.10000000000E+01 0.  0.
<mgrwt>
<rscale>  0 0.12499200E+03</rscale>
<asrwt>0</asrwt>
<pdfrwt beam="1">  1        4 0.91340163E-01 0.12499200E+03</pdfrwt>
<pdfrwt beam="2">  1       -4 0.10120826E-02 0.12499200E+03</pdfrwt>
<totfact> 0.48857900E+03</totfact>
</mgrwt>
</event>
<event>
 5    1  0.3277540E-002  0.1249998E+03  0.7818608E-02  0.1235070E+00
         -4   -1    0    0    0  501 -0.00000000000E+00  0.00000000000E+00  0.52028517606E+03  0.52028672607E+03  0.12700000000E+01 0.  1.
          4   -1    0    0  501    0  0.00000000000E+00 -0.00000000000E+00 -0.74525952709E+01  0.75600314994E+01  0.12700000000E+01 0.  1.
         25    2    1    2    0    0  0.00000000000E+00  0.00000000000E+00  0.51283258079E+03  0.52784675757E+03  0.12499977424E+03 0.  0.
    9000005    1    3    3    0    0  0.26930070516E+02 -0.21628344026E+02  0.36498055645E+02  0.50260541473E+02  0.10000000000E+01 0.  0.
    9000005    1    3    3    0    0 -0.26930070516E+02  0.21628344026E+02  0.47633452514E+03  0.47758621610E+03  0.10000000000E+01 0.  0.
<mgrwt>
<rscale>  0 0.12499977E+03</rscale>
<asrwt>0</asrwt>
<pdfrwt beam="2">  1        4 0.11549362E-02 0.12499977E+03</pdfrwt>
<pdfrwt beam="1">  1       -4 0.80052288E-01 0.12499977E+03</pdfrwt>
<totfact> 0.53766981E+03</totfact>
</mgrwt>
</event>
<event>
 5    1  0.3277540E-002  0.1249977E+03  0.7818608E-02  0.1235073E+00
         -4   -1    0    0    0  501 -0.00000000000E+00  0.00000000000E+00  0.15286978556E+03  0.15287506088E+03  0.12700000000E+01 0.  1.
          4   -1    0    0  501    0  0.00000000000E+00 -0.00000000000E+00 -0.25530343580E+02  0.25561911965E+02  0.12700000000E+01 0.  1.
         25    2    1    2    0    0  0.00000000000E+00  0.00000000000E+00  0.12733944198E+03  0.17843697284E+03  0.12499767915E+03 0.  0.
    9000005    1    3    3    0    0 -0.42907009193E+02 -0.18994642824E+02  0.12258502121E+03  0.13126269584E+03  0.10000000000E+01 0.  0.
    9000005    1    3    3    0    0  0.42907009193E+02  0.18994642824E+02  0.47544207739E+01  0.47174277003E+02  0.10000000000E+01 0.  0.
<mgrwt>
<rscale>  0 0.12499768E+03</rscale>
<asrwt>0</asrwt>
<pdfrwt beam="2">  1        4 0.39305792E-02 0.12499768E+03</pdfrwt>
<pdfrwt beam="1">  1       -4 0.23521263E-01 0.12499768E+03</pdfrwt>
<totfact> 0.93903998E+03</totfact>
</mgrwt>
</event>
<event>
 5    1  0.3277540E-002  0.1249950E+03  0.7818608E-02  0.1235077E+00
         -4   -1    0    0    0  501 -0.00000000000E+00  0.00000000000E+00  0.57076547026E+02  0.57090674549E+02  0.12700000000E+01 0. -1.
          4   -1    0    0  501    0  0.00000000000E+00 -0.00000000000E+00 -0.68404837505E+02  0.68416625861E+02  0.12700000000E+01 0. -1.
         25    2    1    2    0    0  0.00000000000E+00  0.00000000000E+00 -0.11328290479E+02  0.12550730041E+03  0.12499500906E+03 0.  0.
    9000005    1    3    3    0    0  0.42081036202E+02 -0.12593626651E+02 -0.50293189296E+02  0.66781868270E+02  0.10000000000E+01 0.  0.
    9000005    1    3    3    0    0 -0.42081036202E+02  0.12593626651E+02  0.38964898817E+02  0.58725432139E+02  0.10000000000E+01 0.  0.
<mgrwt>
<rscale>  0 0.12499501E+03</rscale>
<asrwt>0</asrwt>
<pdfrwt beam="2">  1        4 0.10525815E-01 0.12499501E+03</pdfrwt>
<pdfrwt beam="1">  1       -4 0.87830007E-02 0.12499501E+03</pdfrwt>
<totfact> 0.10442968E+04</totfact>
</mgrwt>
</event>
<event>
 5    1  0.3277540E-002  0.1249940E+03  0.7818608E-02  0.1235079E+00
          4   -1    0    0  501    0  0.00000000000E+00  0.00000000000E+00  0.67085549874E+01  0.68277089875E+01  0.12700000000E+01 0. -1.
         -4   -1    0    0    0  501 -0.00000000000E+00 -0.00000000000E+00 -0.57697783309E+03  0.57697923080E+03  0.12700000000E+01 0. -1.
         25    2    1    2    0    0  0.00000000000E+00  0.00000000000E+00 -0.57026927810E+03  0.58380693979E+03  0.12499397345E+03 0.  0.
    9000005    1    3    3    0    0  0.28315274034E+02 -0.55689271172E+02 -0.27882717482E+03  0.28574226689E+03  0.10000000000E+01 0.  0.
    9000005    1    3    3    0    0 -0.28315274034E+02  0.55689271172E+02 -0.29144210328E+03  0.29806467290E+03  0.10000000000E+01 0.  0.
<mgrwt>
<rscale>  0 0.12499397E+03</rscale>
<asrwt>0</asrwt>
<pdfrwt beam="1">  1        4 0.10413591E-02 0.12499397E+03</pdfrwt>
<pdfrwt beam="2">  1       -4 0.88775055E-01 0.12499397E+03</pdfrwt>
<totfact> 0.49912594E+03</totfact>
</mgrwt>
</event>
<event>
 5    1  0.3277540E-002  0.1249902E+03  0.7818608E-02  0.1235085E+00
         -4   -1    0    0    0  501 -0.00000000000E+00  0.00000000000E+00  0.10696682043E+02  0.10771810745E+02  0.12700000000E+01 0. -1.
          4   -1    0    0  501    0  0.00000000000E+00 -0.00000000000E+00 -0.36377229969E+03  0.36377451659E+03  0.12700000000E+01 0. -1.
         25    2    1    2    0    0  0.00000000000E+00  0.00000000000E+00 -0.35307561765E+03  0.37454632734E+03  0.12499023780E+03 0.  0.
    9000005    1    3    3    0    0  0.40178775075E+02 -0.44000848354E+02 -0.12013861542E+03  0.13410703015E+03  0.10000000000E+01 0.  0.
    9000005    1    3    3    0    0 -0.40178775075E+02  0.44000848354E+02 -0.23293700223E+03  0.24043929719E+03  0.10000000000E+01 0.  0.
<mgrwt>
<rscale>  0 0.12499024E+03</rscale>
<asrwt>0</asrwt>
<pdfrwt beam="2">  1        4 0.55970909E-01 0.12499024E+03</pdfrwt>
<pdfrwt beam="1">  1       -4 0.16515933E-02 0.12499024E+03</pdfrwt>
<totfact> 0.67120459E+03</totfact>
</mgrwt>
</event>
<event>
 5    1  0.3277540E-002  0.1250161E+03  0.7818608E-02  0.1235044E+00
          4   -1    0    0  501    0  0.00000000000E+00  0.00000000000E+00  0.83770464507E+02  0.83780090855E+02  0.12700000000E+01 0. -1.
         -4   -1    0    0    0  501 -0.00000000000E+00 -0.00000000000E+00 -0.46621423836E+02  0.46638718470E+02  0.12700000000E+01 0. -1.
         25    2    1    2    0    0  0.00000000000E+00  0.00000000000E+00  0.37149040671E+02  0.13041880932E+03  0.12501605738E+03 0.  0.
    9000005    1    3    3    0    0 -0.30473320740E+02 -0.40443508433E+02 -0.19641291079E+02  0.54323852648E+02  0.10000000000E+01 0.  0.
    9000005    1    3    3    0    0  0.30473320740E+02  0.40443508433E+02  0.56790331750E+02  0.76094956676E+02  0.10000000000E+01 0.  0.
<mgrwt>
<rscale>  0 0.12501606E+03</rscale>
<asrwt>0</asrwt>
<pdfrwt beam="1">  1        4 0.12889835E-01 0.12501606E+03</pdfrwt>
<pdfrwt beam="2">  1       -4 0.71745975E-02 0.12501606E+03</pdfrwt>
<totfact> 0.10331811E+04</totfact>
</mgrwt>
</event>
<event>
 5    1  0.3277540E-002  0.1249694E+03  0.7818608E-02  0.1235117E+00
          4   -1    0    0  501    0  0.00000000000E+00  0.00000000000E+00  0.63814741943E+02  0.63827378054E+02  0.12700000000E+01 0.  1.
         -4   -1    0    0    0  501 -0.00000000000E+00 -0.00000000000E+00 -0.61157108511E+02  0.61170293619E+02  0.12700000000E+01 0.  1.
         25    2    1    2    0    0  0.00000000000E+00  0.00000000000E+00  0.26576334316E+01  0.12499767167E+03  0.12496941589E+03 0.  0.
    9000005    1    3    3    0    0  0.38563607545E+02 -0.85335697362E+01 -0.47090444789E+02  0.61469371476E+02  0.10000000000E+01 0.  0.
    9000005    1    3    3    0    0 -0.38563607545E+02  0.85335697362E+01  0.49748078220E+02  0.63528300197E+02  0.10000000000E+01 0.  0.
<mgrwt>
<rscale>  0 0.12496942E+03</rscale>
<asrwt>0</asrwt>
<pdfrwt beam="1">  1        4 0.98196388E-02 0.12496942E+03</pdfrwt>
<pdfrwt beam="2">  1       -4 0.94107722E-02 0.12496942E+03</pdfrwt>
<totfact> 0.10460142E+04</totfact>
</mgrwt>
</event>
<event>
 5    1  0.3277540E-002  0.1249945E+03  0.7818608E-02  0.1235078E+00
          4   -1    0    0  501    0  0.00000000000E+00  0.00000000000E+00  0.76528209810E+01  0.77574847062E+01  0.12700000000E+01 0.  1.
         -4   -1    0    0    0  501 -0.00000000000E+00 -0.00000000000E+00 -0.50681550681E+03  0.50681709801E+03  0.12700000000E+01 0.  1.
         25    2    1    2    0    0  0.00000000000E+00  0.00000000000E+00 -0.49916268582E+03  0.51457458272E+03  0.12499445692E+03 0.  0.
    9000005    1    3    3    0    0  0.21724387254E+02  0.24350682247E+02 -0.30191428989E+02  0.44468270844E+02  0.10000000000E+01 0.  0.
    9000005    1    3    3    0    0 -0.21724387254E+02 -0.24350682247E+02 -0.46897125684E+03  0.47010631188E+03  0.10000000000E+01 0.  0.
<mgrwt>
<rscale>  0 0.12499446E+03</rscale>
<asrwt>0</asrwt>
<pdfrwt beam="1">  1        4 0.11855309E-02 0.12499446E+03</pdfrwt>
<pdfrwt beam="2">  1       -4 0.77979764E-01 0.12499446E+03</pdfrwt>
<totfact> 0.54757710E+03</totfact>
</mgrwt>
</event>
<event>
 5    1  0.3277540E-002  0.1250013E+03  0.7818608E-02  0.1235067E+00
          4   -1    0    0  501    0  0.00000000000E+00  0.00000000000E+00  0.73193253978E+02  0.73204271241E+02  0.12700000000E+01 0. -1.
         -4   -1    0    0    0  501 -0.00000000000E+00 -0.00000000000E+00 -0.53347468078E+02  0.53362582868E+02  0.12700000000E+01 0. -1.
         25    2    1    2    0    0  0.00000000000E+00  0.00000000000E+00  0.19845785900E+02  0.12656685411E+03  0.12500125336E+03 0.  0.
    9000005    1    3    3    0    0 -0.17027006201E+01  0.14067532824E+02 -0.51704300626E+02  0.53620232864E+02  0.10000000000E+01 0.  0.
    9000005    1    3    3    0    0  0.17027006201E+01 -0.14067532824E+02  0.71550086526E+02  0.72946621245E+02  0.10000000000E+01 0.  0.
<mgrwt>
<rscale>  0 0.12500125E+03</rscale>
<asrwt>0</asrwt>
<pdfrwt beam="1">  1        4 0.11262511E-01 0.12500125E+03</pdfrwt>
<pdfrwt beam="2">  1       -4 0.82093130E-02 0.12500125E+03</pdfrwt>
<totfact> 0.10418276E+04</totfact>
</mgrwt>
</event>
<event>
 5    1  0.3277540E-002  0.1250174E+03  0.7818608E-02  0.1235042E+00
         -4   -1    0    0    0  501 -0.00000000000E+00  0.00000000000E+00  0.33192513516E+02  0.33216800771E+02  0.12700000000E+01 0.  1.
          4   -1    0    0  501    0  0.00000000000E+00 -0.00000000000E+00 -0.11764673431E+03  0.11765358895E+03  0.12700000000E+01 0.  1.
         25    2    1    2    0    0  0.00000000000E+00  0.00000000000E+00 -0.84454220792E+02  0.15087038972E+03  0.12501743513E+03 0.  0.
    9000005    1    3    3    0    0  0.18852121260E+02 -0.35244361310E+02 -0.10021322084E+03  0.10789465747E+03  0.10000000000E+01 0.  0.
    9000005    1    3    3    0    0 -0.18852121260E+02  0.35244361310E+02  0.15759000046E+02  0.42975732252E+02  0.10000000000E+01 0.  0.
<mgrwt>
<rscale>  0 0.12501744E+03</rscale>
<asrwt>0</asrwt>
<pdfrwt beam="2">  1        4 0.18101893E-01 0.12501744E+03</pdfrwt>
<pdfrwt beam="1">  1       -4 0.51089361E-02 0.12501744E+03</pdfrwt>
<totfact> 0.99091598E+03</totfact>
</mgrwt>
</event>
<event>
 5    1  0.3277540E-002  0.1249994E+03  0.7818608E-02  0.1235070E+00
          4   -1    0    0  501    0  0.00000000000E+00  0.00000000000E+00  0.27781697358E+02  0.27810710313E+02  0.12700000000E+01 0.  1.
         -4   -1    0    0    0  501 -0.00000000000E+00 -0.00000000000E+00 -0.14049847848E+03  0.14050421828E+03  0.12700000000E+01 0.  1.
         25    2    1    2    0    0  0.00000000000E+00  0.00000000000E+00 -0.11271678112E+03  0.16831492859E+03  0.12499936976E+03 0.  0.
    9000005    1    3    3    0    0  0.35542663734E+02  0.11891754927E+02 -0.12369164687E+03  0.12924905526E+03  0.10000000000E+01 0.  0.
    9000005    1    3    3    0    0 -0.35542663734E+02 -0.11891754927E+02  0.10974865753E+02  0.39065873328E+02  0.10000000000E+01 0.  0.
<mgrwt>
<rscale>  0 0.12499937E+03</rscale>
<asrwt>0</asrwt>
<pdfrwt beam="1">  1        4 0.42767807E-02 0.12499937E+03</pdfrwt>
<pdfrwt beam="2">  1       -4 0.21617823E-01 0.12499937E+03</pdfrwt>
<totfact> 0.95764610E+03</totfact>
</mgrwt>
</event>
<event>
 5    1  0.3277540E-002  0.1250007E+03  0.7818608E-02  0.1235068E+00
          4   -1    0    0  501    0  0.00000000000E+00  0.00000000000E+00  0.15109832445E+02  0.15163111043E+02  0.12700000000E+01 0. -1.
         -4   -1    0    0    0  501 -0.00000000000E+00 -0.00000000000E+00 -0.25801671885E+03  0.25801984440E+03  0.12700000000E+01 0. -1.
         25    2    1    2    0    0  0.00000000000E+00  0.00000000000E+00 -0.24290688641E+03  0.27318295545E+03  0.12500068673E+03 0.  0.
    9000005    1    3    3    0    0  0.55735454865E+02  0.69905483685E+00 -0.59702799893E+02  0.81684477851E+02  0.10000000000E+01 0.  0.
    9000005    1    3    3    0    0 -0.55735454865E+02 -0.69905483685E+00 -0.18320408651E+03  0.19149847760E+03  0.10000000000E+01 0.  0.
<mgrwt>
<rscale>  0 0.12500069E+03</rscale>
<asrwt>0</asrwt>
<pdfrwt beam="1">  1        4 0.23289286E-02 0.12500069E+03</pdfrwt>
<pdfrwt beam="2">  1       -4 0.39699216E-01 0.12500069E+03</pdfrwt>
<totfact> 0.79089559E+03</totfact>
</mgrwt>
</event>
<event>
 5    1  0.3277540E-002  0.1250005E+03  0.7818608E-02  0.1235069E+00
          4   -1    0    0  501    0  0.00000000000E+00  0.00000000000E+00  0.20160772554E+03  0.20161172559E+03  0.12700000000E+01 0. -1.
         -4   -1    0    0    0  501 -0.00000000000E+00 -0.00000000000E+00 -0.19350635547E+02  0.19392266398E+02  0.12700000000E+01 0. -1.
         25    2    1    2    0    0  0.00000000000E+00  0.00000000000E+00  0.18225708999E+03  0.22100399199E+03  0.12500047050E+03 0.  0.
    9000005    1    3    3    0    0 -0.21035780840E+02  0.52539208218E+02  0.13798644969E+03  0.14914467061E+03  0.10000000000E+01 0.  0.
    9000005    1    3    3    0    0  0.21035780840E+02 -0.52539208218E+02  0.44270640306E+02  0.71859321377E+02  0.10000000000E+01 0.  0.
<mgrwt>
<rscale>  0 0.12500047E+03</rscale>
<asrwt>0</asrwt>
<pdfrwt beam="1">  1        4 0.31020082E-01 0.12500047E+03</pdfrwt>
<pdfrwt beam="2">  1       -4 0.29805310E-02 0.12500047E+03</pdfrwt>
<totfact> 0.86708819E+03</totfact>
</mgrwt>
</event>
<event>
 5    1  0.3277540E-002  0.1249981E+03  0.7818608E-02  0.1235072E+00
          4   -1    0    0  501    0  0.00000000000E+00  0.00000000000E+00  0.20770574933E+02  0.20809365273E+02  0.12700000000E+01 0. -1.
         -4   -1    0    0    0  501 -0.00000000000E+00 -0.00000000000E+00 -0.18784450192E+03  0.18784879505E+03  0.12700000000E+01 0. -1.
         25    2    1    2    0    0  0.00000000000E+00  0.00000000000E+00 -0.16707392699E+03  0.20865816033E+03  0.12499812315E+03 0.  0.
    9000005    1    3    3    0    0 -0.29910710600E+02  0.17886904757E+01 -0.17507867082E+03  0.17762711223E+03  0.10000000000E+01 0.  0.
    9000005    1    3    3    0    0  0.29910710600E+02 -0.17886904757E+01  0.80047438306E+01  0.31031048098E+02  0.10000000000E+01 0.  0.
<mgrwt>
<rscale>  0 0.12499812E+03</rscale>
<asrwt>0</asrwt>
<pdfrwt beam="1">  1        4 0.31987873E-02 0.12499812E+03</pdfrwt>
<pdfrwt beam="2">  1       -4 0.28902467E-01 0.12499812E+03</pdfrwt>
<totfact> 0.88699214E+03</totfact>
</mgrwt>
</event>
<event>
 5    1  0.3277540E-002  0.1249930E+03  0.7818608E-02  0.1235080E+00
          4   -1    0    0  501    0  0.00000000000E+00  0.00000000000E+00  0.31869649702E+03  0.31869902747E+03  0.12700000000E+01 0.  1.
         -4   -1    0    0    0  501 -0.00000000000E+00 -0.00000000000E+00 -0.12220108157E+02  0.12285924603E+02  0.12700000000E+01 0.  1.
         25    2    1    2    0    0  0.00000000000E+00  0.00000000000E+00  0.30647638886E+03  0.33098495208E+03  0.12499304609E+03 0.  0.
    9000005    1    3    3    0    0  0.72639660201E+01 -0.40847346101E+02  0.29500100539E+02  0.50916861821E+02  0.10000000000E+01 0.  0.
    9000005    1    3    3    0    0 -0.72639660201E+01  0.40847346101E+02  0.27697628832E+03  0.28006809026E+03  0.10000000000E+01 0.  0.
<mgrwt>
<rscale>  0 0.12499305E+03</rscale>
<asrwt>0</asrwt>
<pdfrwt beam="1">  1        4 0.49035488E-01 0.12499305E+03</pdfrwt>
<pdfrwt beam="2">  1       -4 0.18852741E-02 0.12499305E+03</pdfrwt>
<totfact> 0.71879452E+03</totfact>
</mgrwt>
</event>
<event>
 5    1  0.3277540E-002  0.1250060E+03  0.7818608E-02  0.1235060E+00
         -4   -1    0    0    0  501 -0.00000000000E+00  0.00000000000E+00  0.12738318898E+03  0.12738951972E+03  0.12700000000E+01 0. -1.
          4   -1    0    0  501    0  0.00000000000E+00 -0.00000000000E+00 -0.30648066121E+02  0.30674368078E+02  0.12700000000E+01 0. -1.
         25    2    1    2    0    0  0.00000000000E+00  0.00000000000E+00  0.96735122858E+02  0.15806388780E+03  0.12500603438E+03 0.  0.
    9000005    1    3    3    0    0  0.27066066825E+02 -0.16710799371E+02  0.11638750475E+03  0.12066015933E+03  0.10000000000E+01 0.  0.
    9000005    1    3    3    0    0 -0.27066066825E+02  0.16710799371E+02 -0.19652381891E+02  0.37403728464E+02  0.10000000000E+01 0.  0.
<mgrwt>
<rscale>  0 0.12500603E+03</rscale>
<asrwt>0</asrwt>
<pdfrwt beam="2">  1        4 0.47175973E-02 0.12500603E+03</pdfrwt>
<pdfrwt beam="1">  1       -4 0.19599924E-01 0.12500603E+03</pdfrwt>
<totfact> 0.97704100E+03</totfact>
</mgrwt>
</event>
<event>
 5    1  0.3277540E-002  0.1249991E+03  0.7818608E-02  0.1235071E+00
         -4   -1    0    0    0  501 -0.00000000000E+00  0.00000000000E+00  0.32534128648E+03  0.32534376525E+03  0.12700000000E+01 0. -1.
          4   -1    0    0  501    0  0.00000000000E+00 -0.00000000000E+00 -0.11970330994E+02  0.12037513202E+02  0.12700000000E+01 0. -1.
         25    2    1    2    0    0  0.00000000000E+00  0.00000000000E+00  0.31337095548E+03  0.33738127845E+03  0.12499908523E+03 0.  0.
    9000005    1    3    3    0    0 -0.51284745115E+01  0.38690122053E+02  0.24956316431E+02  0.46336211812E+02  0.10000000000E+01 0.  0.
    9000005    1    3    3    0    0  0.51284745115E+01 -0.38690122053E+02  0.28841463905E+03  0.29104506664E+03  0.10000000000E+01 0.  0.
<mgrwt>
<rscale>  0 0.12499909E+03</rscale>
<asrwt>0</asrwt>
<pdfrwt beam="2">  1        4 0.18469481E-02 0.12499909E+03</pdfrwt>
<pdfrwt beam="1">  1       -4 0.50057860E-01 0.12499909E+03</pdfrwt>
<totfact> 0.71136891E+03</totfact>
</mgrwt>
</event>
<event>
 5    1  0.3277540E-002  0.1250025E+03  0.7818608E-02  0.1235065E+00
          4   -1    0    0  501    0  0.00000000000E+00  0.00000000000E+00  0.40463918388E+02  0.40483843584E+02  0.12700000000E+01 0.  1.
         -4   -1    0    0    0  501 -0.00000000000E+00 -0.00000000000E+00 -0.96492647296E+02  0.96501004565E+02  0.12700000000E+01 0.  1.
         25    2    1    2    0    0  0.00000000000E+00  0.00000000000E+00 -0.56028728907E+02  0.13698484815E+03  0.12500252061E+03 0.  0.
    9000005    1    3    3    0    0  0.15325516941E+02 -0.54379895370E+02 -0.57283444167E+02  0.80463889202E+02  0.10000000000E+01 0.  0.
    9000005    1    3    3    0    0 -0.15325516941E+02  0.54379895370E+02  0.12547152602E+01  0.56520958947E+02  0.10000000000E+01 0.  0.
<mgrwt>
<rscale>  0 0.12500252E+03</rscale>
<asrwt>0</asrwt>
<pdfrwt beam="1">  1        4 0.62273938E-02 0.12500252E+03</pdfrwt>
<pdfrwt beam="2">  1       -4 0.14847198E-01 0.12500252E+03</pdfrwt>
<totfact> 0.10195823E+04</totfact>
</mgrwt>
</event>
<event>
 5    1  0.3277540E-002  0.1250019E+03  0.7818608E-02  0.1235066E+00
         -4   -1    0    0    0  501 -0.00000000000E+00  0.00000000000E+00  0.16860956450E+02  0.16908718237E+02  0.12700000000E+01 0.  1.
          4   -1    0    0  501    0  0.00000000000E+00 -0.00000000000E+00 -0.23130421800E+03  0.23130770450E+03  0.12700000000E+01 0.  1.
         25    2    1    2    0    0  0.00000000000E+00  0.00000000000E+00 -0.21444326154E+03  0.24821642274E+03  0.12500192037E+03 0.  0.
    9000005    1    3    3    0    0  0.82923427303E+01 -0.33284697250E+02 -0.34939690353E+01  0.34494084110E+02  0.10000000000E+01 0.  0.
    9000005    1    3    3    0    0 -0.82923427303E+01  0.33284697250E+02 -0.21094929251E+03  0.21372233863E+03  0.10000000000E+01 0.  0.
<mgrwt>
<rscale>  0 0.12500192E+03</rscale>
<asrwt>0</asrwt>
<pdfrwt beam="2">  1        4 0.35589204E-01 0.12500192E+03</pdfrwt>
<pdfrwt beam="1">  1       -4 0.25979356E-02 0.12500192E+03</pdfrwt>
<totfact> 0.82585163E+03</totfact>
</mgrwt>
</event>
<event>
 5    1  0.3277540E-002  0.1250007E+03  0.7818608E-02  0.1235068E+00
         -4   -1    0    0    0  501 -0.00000000000E+00  0.00000000000E+00  0.48200902124E+01  0.49845932287E+01  0.12700000000E+01 0.  1.
          4   -1    0    0  501    0  0.00000000000E+00 -0.00000000000E+00 -0.79665739669E+03  0.79665840898E+03  0.12700000000E+01 0.  1.
         25    2    1    2    0    0  0.00000000000E+00  0.00000000000E+00 -0.79183730648E+03  0.80164300221E+03  0.12500073225E+03 0.  0.
    9000005    1    3    3    0    0  0.50057144154E+02  0.20599245782E+02 -0.19564388366E+03  0.20299649214E+03  0.10000000000E+01 0.  0.
    9000005    1    3    3    0    0 -0.50057144154E+02 -0.20599245782E+02 -0.59619342282E+03  0.59864651008E+03  0.10000000000E+01 0.  0.
<mgrwt>
<rscale>  0 0.12500073E+03</rscale>
<asrwt>0</asrwt>
<pdfrwt beam="2">  1        4 0.12257531E+00 0.12500073E+03</pdfrwt>
<pdfrwt beam="1">  1       -4 0.75428492E-03 0.12500073E+03</pdfrwt>
<totfact> 0.38190899E+03</totfact>
</mgrwt>
</event>
<event>
 5    1  0.3277540E-002  0.1250072E+03  0.7818608E-02  0.1235058E+00
         -4   -1    0    0    0  501 -0.00000000000E+00  0.00000000000E+00  0.36518999833E+02  0.36541076185E+02  0.12700000000E+01 0. -1.
          4   -1    0    0  501    0  0.00000000000E+00 -0.00000000000E+00 -0.10691903551E+03  0.10692657787E+03  0.12700000000E+01 0. -1.
         25    2    1    2    0    0  0.00000000000E+00  0.00000000000E+00 -0.70400035677E+02  0.14346765405E+03  0.12500721074E+03 0.  0.
    9000005    1    3    3    0    0 -0.29893500408E+01 -0.38360803879E+02  0.21318907209E+02  0.43999810142E+02  0.10000000000E+01 0.  0.
    9000005    1    3    3    0    0  0.29893500408E+01  0.38360803879E+02 -0.91718942886E+02  0.99467843910E+02  0.10000000000E+01 0.  0.
<mgrwt>
<rscale>  0 0.12500721E+03</rscale>
<asrwt>0</asrwt>
<pdfrwt beam="2">  1        4 0.16451361E-01 0.12500721E+03</pdfrwt>
<pdfrwt beam="1">  1       -4 0.56205861E-02 0.12500721E+03</pdfrwt>
<totfact> 0.10060582E+04</totfact>
</mgrwt>
</event>
<event>
 5    1  0.3277540E-002  0.1250157E+03  0.7818608E-02  0.1235045E+00
          4   -1    0    0  501    0  0.00000000000E+00  0.00000000000E+00  0.27544933189E+02  0.27574195263E+02  0.12700000000E+01 0. -1.
         -4   -1    0    0    0  501 -0.00000000000E+00 -0.00000000000E+00 -0.14174187387E+03  0.14174756332E+03  0.12700000000E+01 0. -1.
         25    2    1    2    0    0  0.00000000000E+00  0.00000000000E+00 -0.11419694068E+03  0.16932175859E+03  0.12501566570E+03 0.  0.
    9000005    1    3    3    0    0 -0.34487020185E+02  0.54968539324E+01  0.13104360188E+02  0.37313458971E+02  0.10000000000E+01 0.  0.
    9000005    1    3    3    0    0  0.34487020185E+02 -0.54968539324E+01 -0.12730130087E+03  0.13200829962E+03  0.10000000000E+01 0.  0.
<mgrwt>
<rscale>  0 0.12501567E+03</rscale>
<asrwt>0</asrwt>
<pdfrwt beam="1">  1        4 0.42403707E-02 0.12501567E+03</pdfrwt>
<pdfrwt beam="2">  1       -4 0.21809130E-01 0.12501567E+03</pdfrwt>
<totfact> 0.95541511E+03</totfact>
</mgrwt>
</event>
<event>
 5    1  0.3277540E-002  0.1250088E+03  0.7818608E-02  0.1235056E+00
          4   -1    0    0  501    0  0.00000000000E+00  0.00000000000E+00  0.70550673614E+02  0.70562103479E+02  0.12700000000E+01 0.  1.
         -4   -1    0    0    0  501 -0.00000000000E+00 -0.00000000000E+00 -0.55352582387E+02  0.55367149799E+02  0.12700000000E+01 0.  1.
         25    2    1    2    0    0  0.00000000000E+00  0.00000000000E+00  0.15198091227E+02  0.12592925328E+03  0.12500877911E+03 0.  0.
    9000005    1    3    3    0    0 -0.52552812436E+02 -0.33334176609E+02  0.18268198961E+01  0.62267990943E+02  0.10000000000E+01 0.  0.
    9000005    1    3    3    0    0  0.52552812436E+02  0.33334176609E+02  0.13371271331E+02  0.63661262335E+02  0.10000000000E+01 0.  0.
<mgrwt>
<rscale>  0 0.12500878E+03</rscale>
<asrwt>0</asrwt>
<pdfrwt beam="1">  1        4 0.10855950E-01 0.12500878E+03</pdfrwt>
<pdfrwt beam="2">  1       -4 0.85177818E-02 0.12500878E+03</pdfrwt>
<totfact> 0.10430441E+04</totfact>
</mgrwt>
</event>
<event>
 5    1  0.3277540E-002  0.1249985E+03  0.7818608E-02  0.1235072E+00
         -4   -1    0    0    0  501 -0.00000000000E+00  0.00000000000E+00  0.15595953258E+03  0.15596470338E+03  0.12700000000E+01 0.  1.
          4   -1    0    0  501    0  0.00000000000E+00 -0.00000000000E+00 -0.25024261773E+02  0.25056467773E+02  0.12700000000E+01 0.  1.
         25    2    1    2    0    0  0.00000000000E+00  0.00000000000E+00  0.13093527080E+03  0.18102117116E+03  0.12499847706E+03 0.  0.
    9000005    1    3    3    0    0 -0.34114429198E+02  0.49596335421E+02  0.41167245036E+02  0.72933756455E+02  0.10000000000E+01 0.  0.
    9000005    1    3    3    0    0  0.34114429198E+02 -0.49596335421E+02  0.89768025766E+02  0.10808741470E+03  0.10000000000E+01 0.  0.
<mgrwt>
<rscale>  0 0.12499848E+03</rscale>
<asrwt>0</asrwt>
<pdfrwt beam="2">  1        4 0.38527614E-02 0.12499848E+03</pdfrwt>
<pdfrwt beam="1">  1       -4 0.23996650E-01 0.12499848E+03</pdfrwt>
<totfact> 0.93436700E+03</totfact>
</mgrwt>
</event>
<event>
 5    1  0.3277540E-002  0.1250244E+03  0.7818608E-02  0.1235031E+00
          4   -1    0    0  501    0  0.00000000000E+00  0.00000000000E+00  0.16180563327E+02  0.16230327464E+02  0.12700000000E+01 0.  1.
         -4   -1    0    0    0  501 -0.00000000000E+00 -0.00000000000E+00 -0.24108801311E+03  0.24109135813E+03  0.12700000000E+01 0.  1.
         25    2    1    2    0    0  0.00000000000E+00  0.00000000000E+00 -0.22490744978E+03  0.25732168560E+03  0.12502435327E+03 0.  0.
    9000005    1    3    3    0    0 -0.15283683359E+02 -0.21816852958E+02 -0.22883070747E+03  0.23037807780E+03  0.10000000000E+01 0.  0.
    9000005    1    3    3    0    0  0.15283683359E+02  0.21816852958E+02  0.39232576882E+01  0.26943607793E+02  0.10000000000E+01 0.  0.
<mgrwt>
<rscale>  0 0.12502435E+03</rscale>
<asrwt>0</asrwt>
<pdfrwt beam="1">  1        4 0.24934029E-02 0.12502435E+03</pdfrwt>
<pdfrwt beam="2">  1       -4 0.37094546E-01 0.12502435E+03</pdfrwt>
<totfact> 0.81239344E+03</totfact>
</mgrwt>
</event>
<event>
 5    1  0.3277540E-002  0.1250029E+03  0.7818608E-02  0.1235065E+00
          4   -1    0    0  501    0  0.00000000000E+00  0.00000000000E+00  0.34163659754E+03  0.34163895808E+03  0.12700000000E+01 0. -1.
         -4   -1    0    0    0  501 -0.00000000000E+00 -0.00000000000E+00 -0.11396791643E+02  0.11467334466E+02  0.12700000000E+01 0. -1.
         25    2    1    2    0    0  0.00000000000E+00  0.00000000000E+00  0.33023980589E+03  0.35310629254E+03  0.12500289772E+03 0.  0.
    9000005    1    3    3    0    0 -0.27954513265E+01  0.16569765913E+02 -0.49091378153E+01  0.17534860268E+02  0.10000000000E+01 0.  0.
    9000005    1    3    3    0    0  0.27954513265E+01 -0.16569765913E+02  0.33514894371E+03  0.33557143228E+03  0.10000000000E+01 0.  0.
<mgrwt>
<rscale>  0 0.12500290E+03</rscale>
<asrwt>0</asrwt>
<pdfrwt beam="1">  1        4 0.52565085E-01 0.12500290E+03</pdfrwt>
<pdfrwt beam="2">  1       -4 0.17589605E-02 0.12500290E+03</pdfrwt>
<totfact> 0.69379722E+03</totfact>
</mgrwt>
</event>
<event>
 5    1  0.3277540E-002  0.1250017E+03  0.7818608E-02  0.1235067E+00
          4   -1    0    0  501    0  0.00000000000E+00  0.00000000000E+00  0.76171727044E+01  0.77223196003E+01  0.12700000000E+01 0.  1.
         -4   -1    0    0    0  501 -0.00000000000E+00 -0.00000000000E+00 -0.50921413063E+03  0.50921571434E+03  0.12700000000E+01 0.  1.
         25    2    1    2    0    0  0.00000000000E+00  0.00000000000E+00 -0.50159695793E+03  0.51693803395E+03  0.12500169093E+03 0.  0.
    9000005    1    3    3    0    0  0.52232939031E+02 -0.32240777573E+02 -0.20228700381E+03  0.21139720804E+03  0.10000000000E+01 0.  0.
    9000005    1    3    3    0    0 -0.52232939031E+02  0.32240777573E+02 -0.29930995412E+03  0.30554082590E+03  0.10000000000E+01 0.  0.
<mgrwt>
<rscale>  0 0.12500169E+03</rscale>
<asrwt>0</asrwt>
<pdfrwt beam="1">  1        4 0.11800832E-02 0.12500169E+03</pdfrwt>
<pdfrwt beam="2">  1       -4 0.78348819E-01 0.12500169E+03</pdfrwt>
<totfact> 0.54571706E+03</totfact>
</mgrwt>
</event>
<event>
 5    1  0.3277540E-002  0.1249709E+03  0.7818608E-02  0.1235115E+00
         -4   -1    0    0    0  501 -0.00000000000E+00  0.00000000000E+00  0.61432845578E+03  0.61432976852E+03  0.12700000000E+01 0.  1.
          4   -1    0    0  501    0  0.00000000000E+00 -0.00000000000E+00 -0.62908358078E+01  0.64177500077E+01  0.12700000000E+01 0.  1.
         25    2    1    2    0    0  0.00000000000E+00  0.00000000000E+00  0.60803761998E+03  0.62074751852E+03  0.12497093441E+03 0.  0.
    9000005    1    3    3    0    0 -0.13925602166E+02 -0.12227028483E+02  0.60038703863E+03  0.60067380397E+03  0.10000000000E+01 0.  0.
    9000005    1    3    3    0    0  0.13925602166E+02  0.12227028483E+02  0.76505813512E+01  0.20073714559E+02  0.10000000000E+01 0.  0.
<mgrwt>
<rscale>  0 0.12497093E+03</rscale>
<asrwt>0</asrwt>
<pdfrwt beam="2">  1        4 0.97768415E-03 0.12497093E+03</pdfrwt>
<pdfrwt beam="1">  1       -4 0.94521968E-01 0.12497093E+03</pdfrwt>
<totfact> 0.47613931E+03</totfact>
</mgrwt>
</event>
<event>
 5    1  0.3277540E-002  0.1250037E+03  0.7818608E-02  0.1235063E+00
         -4   -1    0    0    0  501 -0.00000000000E+00  0.00000000000E+00  0.23588086952E+02  0.23622251079E+02  0.12700000000E+01 0.  1.
          4   -1    0    0  501    0  0.00000000000E+00 -0.00000000000E+00 -0.16545602636E+03  0.16546090039E+03  0.12700000000E+01 0.  1.
         25    2    1    2    0    0  0.00000000000E+00  0.00000000000E+00 -0.14186793941E+03  0.18908315147E+03  0.12500370370E+03 0.  0.
    9000005    1    3    3    0    0  0.35619252340E+02 -0.42250986462E+02 -0.26792283131E+02  0.61422336569E+02  0.10000000000E+01 0.  0.
    9000005    1    3    3    0    0 -0.35619252340E+02  0.42250986462E+02 -0.11507565628E+03  0.12766081490E+03  0.10000000000E+01 0.  0.
<mgrwt>
<rscale>  0 0.12500370E+03</rscale>
<asrwt>0</asrwt>
<pdfrwt beam="2">  1        4 0.25457776E-01 0.12500370E+03</pdfrwt>
<pdfrwt beam="1">  1       -4 0.36319395E-02 0.12500370E+03</pdfrwt>
<totfact> 0.91999455E+03</totfact>
</mgrwt>
</event>
<event>
 5    1  0.3277540E-002  0.1249769E+03  0.7818608E-02  0.1235105E+00
          4   -1    0    0  501    0  0.00000000000E+00  0.00000000000E+00  0.19464523553E+03  0.19464937867E+03  0.12700000000E+01 0. -1.
         -4   -1    0    0    0  501 -0.00000000000E+00 -0.00000000000E+00 -0.20036698591E+02  0.20076906894E+02  0.12700000000E+01 0. -1.
         25    2    1    2    0    0  0.00000000000E+00  0.00000000000E+00  0.17460853694E+03  0.21472628556E+03  0.12497694402E+03 0.  0.
    9000005    1    3    3    0    0  0.48530424332E+02 -0.39344805818E+02  0.85980860192E+02  0.10628698956E+03  0.10000000000E+01 0.  0.
    9000005    1    3    3    0    0 -0.48530424332E+02  0.39344805818E+02  0.88627676748E+02  0.10843929600E+03  0.10000000000E+01 0.  0.
<mgrwt>
<rscale>  0 0.12497694E+03</rscale>
<asrwt>0</asrwt>
<pdfrwt beam="1">  1        4 0.29948832E-01 0.12497694E+03</pdfrwt>
<pdfrwt beam="2">  1       -4 0.30859807E-02 0.12497694E+03</pdfrwt>
<totfact> 0.87754993E+03</totfact>
</mgrwt>
</event>
<event>
 5    1  0.3277540E-002  0.1250023E+03  0.7818608E-02  0.1235066E+00
         -4   -1    0    0    0  501 -0.00000000000E+00  0.00000000000E+00  0.50989847048E+02  0.51005660490E+02  0.12700000000E+01 0.  1.
          4   -1    0    0  501    0  0.00000000000E+00 -0.00000000000E+00 -0.76578238655E+02  0.76588768991E+02  0.12700000000E+01 0.  1.
         25    2    1    2    0    0  0.00000000000E+00  0.00000000000E+00 -0.25588391607E+02  0.12759442948E+03  0.12500229058E+03 0.  0.
    9000005    1    3    3    0    0  0.44342334594E+02  0.22410111109E+00  0.32154167281E+02  0.54783056980E+02  0.10000000000E+01 0.  0.
    9000005    1    3    3    0    0 -0.44342334594E+02 -0.22410111109E+00 -0.57742558887E+02  0.72811372500E+02  0.10000000000E+01 0.  0.
<mgrwt>
<rscale>  0 0.12500229E+03</rscale>
<asrwt>0</asrwt>
<pdfrwt beam="2">  1        4 0.11783294E-01 0.12500229E+03</pdfrwt>
<pdfrwt beam="1">  1       -4 0.78466183E-02 0.12500229E+03</pdfrwt>
<totfact> 0.10395718E+04</totfact>
</mgrwt>
</event>
<event>
 5    1  0.3277540E-002  0.1249973E+03  0.7818608E-02  0.1235073E+00
         -4   -1    0    0    0  501 -0.00000000000E+00  0.00000000000E+00  0.13320897874E+02  0.13381301139E+02  0.12700000000E+01 0. -1.
          4   -1    0    0  501    0  0.00000000000E+00 -0.00000000000E+00 -0.29250469160E+03  0.29250744864E+03  0.12700000000E+01 0. -1.
         25    2    1    2    0    0  0.00000000000E+00  0.00000000000E+00 -0.27918379373E+03  0.30588874978E+03  0.12499734621E+03 0.  0.
    9000005    1    3    3    0    0  0.30707616702E+01 -0.55428285400E+02 -0.69372430357E+02  0.88855267110E+02  0.10000000000E+01 0.  0.
    9000005    1    3    3    0    0 -0.30707616702E+01  0.55428285400E+02 -0.20981136337E+03  0.21703348267E+03  0.10000000000E+01 0.  0.
<mgrwt>
<rscale>  0 0.12499735E+03</rscale>
<asrwt>0</asrwt>
<pdfrwt beam="2">  1        4 0.45005575E-01 0.12499735E+03</pdfrwt>
<pdfrwt beam="1">  1       -4 0.20542276E-02 0.12499735E+03</pdfrwt>
<totfact> 0.74870464E+03</totfact>
</mgrwt>
</event>
<event>
 5    1  0.3277540E-002  0.1250006E+03  0.7818608E-02  0.1235068E+00
         -4   -1    0    0    0  501 -0.00000000000E+00  0.00000000000E+00  0.62956976853E+02  0.62969785091E+02  0.12700000000E+01 0. -1.
          4   -1    0    0  501    0  0.00000000000E+00 -0.00000000000E+00 -0.62021289980E+02  0.62034291410E+02  0.12700000000E+01 0. -1.
         25    2    1    2    0    0  0.00000000000E+00  0.00000000000E+00  0.93568687326E+00  0.12500407650E+03  0.12500057453E+03 0.  0.
    9000005    1    3    3    0    0  0.50396575409E+02  0.27031415214E+02  0.25663264732E+02  0.62690632300E+02  0.10000000000E+01 0.  0.
    9000005    1    3    3    0    0 -0.50396575409E+02 -0.27031415214E+02 -0.24727577859E+02  0.62313444201E+02  0.10000000000E+01 0.  0.
<mgrwt>
<rscale>  0 0.12500057E+03</rscale>
<asrwt>0</asrwt>
<pdfrwt beam="2">  1        4 0.95437223E-02 0.12500057E+03</pdfrwt>
<pdfrwt beam="1">  1       -4 0.96876741E-02 0.12500057E+03</pdfrwt>
<totfact> 0.10452638E+04</totfact>
</mgrwt>
</event>
<event>
 5    1  0.3277540E-002  0.1250009E+03  0.7818608E-02  0.1235068E+00
         -4   -1    0    0    0  501 -0.00000000000E+00  0.00000000000E+00  0.11148277533E+02  0.11220382879E+02  0.12700000000E+01 0. -1.
          4   -1    0    0  501    0  0.00000000000E+00 -0.00000000000E+00 -0.34919300399E+03  0.34919531345E+03  0.12700000000E+01 0. -1.
         25    2    1    2    0    0  0.00000000000E+00  0.00000000000E+00 -0.33804472646E+03  0.36041569633E+03  0.12500094830E+03 0.  0.
    9000005    1    3    3    0    0  0.36966702312E+02 -0.28428157900E+02 -0.49075126440E+02  0.67705725581E+02  0.10000000000E+01 0.  0.
    9000005    1    3    3    0    0 -0.36966702312E+02  0.28428157900E+02 -0.28896960002E+03  0.29270997075E+03  0.10000000000E+01 0.  0.
<mgrwt>
<rscale>  0 0.12500095E+03</rscale>
<asrwt>0</asrwt>
<pdfrwt beam="2">  1        4 0.53727717E-01 0.12500095E+03</pdfrwt>
<pdfrwt beam="1">  1       -4 0.17208441E-02 0.12500095E+03</pdfrwt>
<totfact> 0.68592264E+03</totfact>
</mgrwt>
</event>
<event>
 5    1  0.3277540E-002  0.1250004E+03  0.7818608E-02  0.1235069E+00
          4   -1    0    0  501    0  0.00000000000E+00  0.00000000000E+00  0.19440903112E+03  0.19441317929E+03  0.12700000000E+01 0. -1.
         -4   -1    0    0    0  501 -0.00000000000E+00 -0.00000000000E+00 -0.20068644597E+02  0.20108789023E+02  0.12700000000E+01 0. -1.
         25    2    1    2    0    0  0.00000000000E+00  0.00000000000E+00  0.17434038652E+03  0.21452196831E+03  0.12500041806E+03 0.  0.
    9000005    1    3    3    0    0 -0.51158288322E+02  0.35198993467E+02  0.99200107226E+02  0.11703760455E+03  0.10000000000E+01 0.  0.
    9000005    1    3    3    0    0  0.51158288322E+02 -0.35198993467E+02  0.75140279297E+02  0.97484363762E+02  0.10000000000E+01 0.  0.
<mgrwt>
<rscale>  0 0.12500042E+03</rscale>
<asrwt>0</asrwt>
<pdfrwt beam="1">  1        4 0.29912490E-01 0.12500042E+03</pdfrwt>
<pdfrwt beam="2">  1       -4 0.30908908E-02 0.12500042E+03</pdfrwt>
<totfact> 0.87741847E+03</totfact>
</mgrwt>
</event>
<event>
 5    1  0.3277540E-002  0.1250026E+03  0.7818608E-02  0.1235065E+00
          4   -1    0    0  501    0  0.00000000000E+00  0.00000000000E+00  0.30813074963E+03  0.30813336686E+03  0.12700000000E+01 0. -1.
         -4   -1    0    0    0  501 -0.00000000000E+00 -0.00000000000E+00 -0.12643295450E+02  0.12706920156E+02  0.12700000000E+01 0. -1.
         25    2    1    2    0    0  0.00000000000E+00  0.00000000000E+00  0.29548745418E+03  0.32084028701E+03  0.12500261673E+03 0.  0.
    9000005    1    3    3    0    0  0.17371183273E+02  0.54733766805E+02  0.84462446689E+02  0.10213935646E+03  0.10000000000E+01 0.  0.
    9000005    1    3    3    0    0 -0.17371183273E+02 -0.54733766805E+02  0.21102500750E+03  0.21870093055E+03  0.10000000000E+01 0.  0.
<mgrwt>
<rscale>  0 0.12500262E+03</rscale>
<asrwt>0</asrwt>
<pdfrwt beam="1">  1        4 0.47409823E-01 0.12500262E+03</pdfrwt>
<pdfrwt beam="2">  1       -4 0.19502180E-02 0.12500262E+03</pdfrwt>
<totfact> 0.73052059E+03</totfact>
</mgrwt>
</event>
<event>
 5    1  0.3277540E-002  0.1249868E+03  0.7818608E-02  0.1235090E+00
          4   -1    0    0  501    0  0.00000000000E+00  0.00000000000E+00  0.10935501213E+03  0.10936238648E+03  0.12700000000E+01 0.  1.
         -4   -1    0    0    0  501 -0.00000000000E+00 -0.00000000000E+00 -0.35693377478E+02  0.35715964159E+02  0.12700000000E+01 0.  1.
         25    2    1    2    0    0  0.00000000000E+00  0.00000000000E+00  0.73661634647E+02  0.14507835064E+03  0.12498676492E+03 0.  0.
    9000005    1    3    3    0    0 -0.27961364644E+02  0.25975684272E+02 -0.20598132360E+02  0.43380377394E+02  0.10000000000E+01 0.  0.
    9000005    1    3    3    0    0  0.27961364644E+02 -0.25975684272E+02  0.94259767007E+02  0.10169797325E+03  0.10000000000E+01 0.  0.
<mgrwt>
<rscale>  0 0.12498676E+03</rscale>
<asrwt>0</asrwt>
<pdfrwt beam="1">  1        4 0.16826152E-01 0.12498676E+03</pdfrwt>
<pdfrwt beam="2">  1       -4 0.54935936E-02 0.12498676E+03</pdfrwt>
<totfact> 0.10032386E+04</totfact>
</mgrwt>
</event>
<event>
 5    1  0.3277540E-002  0.1249989E+03  0.7818608E-02  0.1235071E+00
         -4   -1    0    0    0  501 -0.00000000000E+00  0.00000000000E+00  0.60413909259E+02  0.60427256532E+02  0.12700000000E+01 0.  1.
          4   -1    0    0  501    0  0.00000000000E+00 -0.00000000000E+00 -0.64630223651E+02  0.64642700355E+02  0.12700000000E+01 0.  1.
         25    2    1    2    0    0  0.00000000000E+00  0.00000000000E+00 -0.42163143925E+01  0.12506995689E+03  0.12499886723E+03 0.  0.
    9000005    1    3    3    0    0  0.20333134833E+02 -0.17662331110E+02  0.54313494216E+02  0.60632911578E+02  0.10000000000E+01 0.  0.
    9000005    1    3    3    0    0 -0.20333134833E+02  0.17662331110E+02 -0.58529808609E+02  0.64437045309E+02  0.10000000000E+01 0.  0.
<mgrwt>
<rscale>  0 0.12499887E+03</rscale>
<asrwt>0</asrwt>
<pdfrwt beam="2">  1        4 0.99450977E-02 0.12499887E+03</pdfrwt>
<pdfrwt beam="1">  1       -4 0.92964341E-02 0.12499887E+03</pdfrwt>
<totfact> 0.10451611E+04</totfact>
</mgrwt>
</event>
<event>
 5    1  0.3277540E-002  0.1250000E+03  0.7818608E-02  0.1235069E+00
         -4   -1    0    0    0  501 -0.00000000000E+00  0.00000000000E+00  0.68919794769E+02  0.68931495059E+02  0.12700000000E+01 0. -1.
          4   -1    0    0  501    0  0.00000000000E+00 -0.00000000000E+00 -0.56654603991E+02  0.56668836704E+02  0.12700000000E+01 0. -1.
         25    2    1    2    0    0  0.00000000000E+00  0.00000000000E+00  0.12265190778E+02  0.12560033176E+03  0.12500003374E+03 0.  0.
    9000005    1    3    3    0    0  0.38154887428E+02 -0.49244080787E+02  0.11613939838E+01  0.62314715463E+02  0.10000000000E+01 0.  0.
    9000005    1    3    3    0    0 -0.38154887428E+02  0.49244080787E+02  0.11103796794E+02  0.63285616300E+02  0.10000000000E+01 0.  0.
<mgrwt>
<rscale>  0 0.12500003E+03</rscale>
<asrwt>0</asrwt>
<pdfrwt beam="2">  1        4 0.87180878E-02 0.12500003E+03</pdfrwt>
<pdfrwt beam="1">  1       -4 0.10605040E-01 0.12500003E+03</pdfrwt>
<totfact> 0.10439732E+04</totfact>
</mgrwt>
</event>
<event>
 5    1  0.3277540E-002  0.1249992E+03  0.7818608E-02  0.1235071E+00
         -4   -1    0    0    0  501 -0.00000000000E+00  0.00000000000E+00  0.15177796174E+03  0.15178327500E+03  0.12700000000E+01 0. -1.
          4   -1    0    0  501    0  0.00000000000E+00 -0.00000000000E+00 -0.25714848481E+02  0.25746190638E+02  0.12700000000E+01 0. -1.
         25    2    1    2    0    0  0.00000000000E+00  0.00000000000E+00  0.12606311326E+03  0.17752946564E+03  0.12499921058E+03 0.  0.
    9000005    1    3    3    0    0  0.28694118390E+02 -0.54024297191E+02  0.44886656695E+02  0.75880096642E+02  0.10000000000E+01 0.  0.
    9000005    1    3    3    0    0 -0.28694118390E+02  0.54024297191E+02  0.81176456567E+02  0.10164936900E+03  0.10000000000E+01 0.  0.
<mgrwt>
<rscale>  0 0.12499921E+03</rscale>
<asrwt>0</asrwt>
<pdfrwt beam="2">  1        4 0.39589502E-02 0.12499921E+03</pdfrwt>
<pdfrwt beam="1">  1       -4 0.23353275E-01 0.12499921E+03</pdfrwt>
<totfact> 0.94065272E+03</totfact>
</mgrwt>
</event>
<event>
 5    1  0.3277540E-002  0.1249991E+03  0.7818608E-02  0.1235071E+00
          4   -1    0    0  501    0  0.00000000000E+00  0.00000000000E+00  0.19411929423E+02  0.19453429105E+02  0.12700000000E+01 0.  1.
         -4   -1    0    0    0  501 -0.00000000000E+00 -0.00000000000E+00 -0.20096804888E+03  0.20097206166E+03  0.12700000000E+01 0.  1.
         25    2    1    2    0    0  0.00000000000E+00  0.00000000000E+00 -0.18155611945E+03  0.22042549077E+03  0.12499908987E+03 0.  0.
    9000005    1    3    3    0    0  0.18100214133E+02  0.56844506754E+02 -0.57963464575E+02  0.83184607502E+02  0.10000000000E+01 0.  0.
    9000005    1    3    3    0    0 -0.18100214133E+02 -0.56844506754E+02 -0.12359265488E+03  0.13724088326E+03  0.10000000000E+01 0.  0.
<mgrwt>
<rscale>  0 0.12499909E+03</rscale>
<asrwt>0</asrwt>
<pdfrwt beam="1">  1        4 0.29899518E-02 0.12499909E+03</pdfrwt>
<pdfrwt beam="2">  1       -4 0.30921661E-01 0.12499909E+03</pdfrwt>
<totfact> 0.86802831E+03</totfact>
</mgrwt>
</event>
<event>
 5    1  0.3277540E-002  0.1249998E+03  0.7818608E-02  0.1235070E+00
          4   -1    0    0  501    0  0.00000000000E+00  0.00000000000E+00  0.84132817832E+02  0.84142402725E+02  0.12700000000E+01 0.  1.
         -4   -1    0    0    0  501 -0.00000000000E+00 -0.00000000000E+00 -0.46408530832E+02  0.46425904773E+02  0.12700000000E+01 0.  1.
         25    2    1    2    0    0  0.00000000000E+00  0.00000000000E+00  0.37724287000E+02  0.13056830750E+03  0.12499984437E+03 0.  0.
    9000005    1    3    3    0    0  0.42395677756E+02 -0.21876677682E+02  0.61024337344E+02  0.77465813538E+02  0.10000000000E+01 0.  0.
    9000005    1    3    3    0    0 -0.42395677756E+02  0.21876677682E+02 -0.23300050344E+02  0.53102493961E+02  0.10000000000E+01 0.  0.
<mgrwt>
<rscale>  0 0.12499984E+03</rscale>
<asrwt>0</asrwt>
<pdfrwt beam="1">  1        4 0.12945584E-01 0.12499984E+03</pdfrwt>
<pdfrwt beam="2">  1       -4 0.71418477E-02 0.12499984E+03</pdfrwt>
<totfact> 0.10332389E+04</totfact>
</mgrwt>
</event>
<event>
 5    1  0.3277540E-002  0.1249990E+03  0.7818608E-02  0.1235071E+00
         -4   -1    0    0    0  501 -0.00000000000E+00  0.00000000000E+00  0.26946212529E+03  0.26946511809E+03  0.12700000000E+01 0.  1.
          4   -1    0    0  501    0  0.00000000000E+00 -0.00000000000E+00 -0.14465338009E+02  0.14520981499E+02  0.12700000000E+01 0.  1.
         25    2    1    2    0    0  0.00000000000E+00  0.00000000000E+00  0.25499678728E+03  0.28398609959E+03  0.12499897293E+03 0.  0.
    9000005    1    3    3    0    0  0.45567345793E+02 -0.13180404198E+02  0.35071128865E+02  0.59000763870E+02  0.10000000000E+01 0.  0.
    9000005    1    3    3    0    0 -0.45567345793E+02  0.13180404198E+02  0.21992565842E+03  0.22498533572E+03  0.10000000000E+01 0.  0.
<mgrwt>
<rscale>  0 0.12499897E+03</rscale>
<asrwt>0</asrwt>
<pdfrwt beam="2">  1        4 0.22299473E-02 0.12499897E+03</pdfrwt>
<pdfrwt beam="1">  1       -4 0.41460219E-01 0.12499897E+03</pdfrwt>
<totfact> 0.77654303E+03</totfact>
</mgrwt>
</event>
<event>
 5    1  0.3277540E-002  0.1249984E+03  0.7818608E-02  0.1235072E+00
          4   -1    0    0  501    0  0.00000000000E+00  0.00000000000E+00  0.11059227091E+02  0.11131909263E+02  0.12700000000E+01 0. -1.
         -4   -1    0    0    0  501 -0.00000000000E+00 -0.00000000000E+00 -0.35197238545E+03  0.35197467668E+03  0.12700000000E+01 0. -1.
         25    2    1    2    0    0  0.00000000000E+00  0.00000000000E+00 -0.34091315836E+03  0.36310658594E+03  0.12499844482E+03 0.  0.
    9000005    1    3    3    0    0 -0.13163994146E+02 -0.56156636170E+02 -0.10060053920E+03  0.11596692208E+03  0.10000000000E+01 0.  0.
    9000005    1    3    3    0    0  0.13163994146E+02  0.56156636170E+02 -0.24031261916E+03  0.24713966387E+03  0.10000000000E+01 0.  0.
<mgrwt>
<rscale>  0 0.12499844E+03</rscale>
<asrwt>0</asrwt>
<pdfrwt beam="1">  1        4 0.17071870E-02 0.12499844E+03</pdfrwt>
<pdfrwt beam="2">  1       -4 0.54155357E-01 0.12499844E+03</pdfrwt>
<totfact> 0.68308690E+03</totfact>
</mgrwt>
</event>
<event>
 5    1  0.3277540E-002  0.1249921E+03  0.7818608E-02  0.1235082E+00
          4   -1    0    0  501    0  0.00000000000E+00  0.00000000000E+00  0.32397494511E+03  0.32397743433E+03  0.12700000000E+01 0.  1.
         -4   -1    0    0    0  501 -0.00000000000E+00 -0.00000000000E+00 -0.12019749262E+02  0.12086656788E+02  0.12700000000E+01 0.  1.
         25    2    1    2    0    0  0.00000000000E+00  0.00000000000E+00  0.31195519585E+03  0.33606409112E+03  0.12499211626E+03 0.  0.
    9000005    1    3    3    0    0 -0.27708046122E+02  0.39657910901E+02  0.26231733059E+03  0.26674307422E+03  0.10000000000E+01 0.  0.
    9000005    1    3    3    0    0  0.27708046122E+02 -0.39657910901E+02  0.49637865252E+02  0.69321016898E+02  0.10000000000E+01 0.  0.
<mgrwt>
<rscale>  0 0.12499212E+03</rscale>
<asrwt>0</asrwt>
<pdfrwt beam="1">  1        4 0.49847628E-01 0.12499212E+03</pdfrwt>
<pdfrwt beam="2">  1       -4 0.18545307E-02 0.12499212E+03</pdfrwt>
<totfact> 0.71297838E+03</totfact>
</mgrwt>
</event>
<event>
 5    1  0.3277540E-002  0.1250006E+03  0.7818608E-02  0.1235068E+00
          4   -1    0    0  501    0  0.00000000000E+00  0.00000000000E+00  0.22069542092E+03  0.22069907502E+03  0.12700000000E+01 0.  1.
         -4   -1    0    0    0  501 -0.00000000000E+00 -0.00000000000E+00 -0.17673312005E+02  0.17718884198E+02  0.12700000000E+01 0.  1.
         25    2    1    2    0    0  0.00000000000E+00  0.00000000000E+00  0.20302210891E+03  0.23841795922E+03  0.12500058628E+03 0.  0.
    9000005    1    3    3    0    0  0.51165503227E+02 -0.35780514262E+02  0.96417106113E+02  0.11487128567E+03  0.10000000000E+01 0.  0.
    9000005    1    3    3    0    0 -0.51165503227E+02  0.35780514262E+02  0.10660500280E+03  0.12354667354E+03  0.10000000000E+01 0.  0.
<mgrwt>
<rscale>  0 0.12500059E+03</rscale>
<asrwt>0</asrwt>
<pdfrwt beam="1">  1        4 0.33956929E-01 0.12500059E+03</pdfrwt>
<pdfrwt beam="2">  1       -4 0.27227576E-02 0.12500059E+03</pdfrwt>
<totfact> 0.84032450E+03</totfact>
</mgrwt>
</event>
<event>
 5    1  0.3277540E-002  0.1250035E+03  0.7818608E-02  0.1235064E+00
         -4   -1    0    0    0  501 -0.00000000000E+00  0.00000000000E+00  0.16842500340E+02  0.16890314317E+02  0.12700000000E+01 0.  1.
          4   -1    0    0  501    0  0.00000000000E+00 -0.00000000000E+00 -0.23156295704E+03  0.23156643965E+03  0.12700000000E+01 0.  1.
         25    2    1    2    0    0  0.00000000000E+00  0.00000000000E+00 -0.21472045670E+03  0.24845675397E+03  0.12500353622E+03 0.  0.
    9000005    1    3    3    0    0  0.47061310433E+02 -0.28049770128E+02 -0.47602761656E+02  0.72584980962E+02  0.10000000000E+01 0.  0.
    9000005    1    3    3    0    0 -0.47061310433E+02  0.28049770128E+02 -0.16711769504E+03  0.17587177301E+03  0.10000000000E+01 0.  0.
<mgrwt>
<rscale>  0 0.12500354E+03</rscale>
<asrwt>0</asrwt>
<pdfrwt beam="2">  1        4 0.35629014E-01 0.12500354E+03</pdfrwt>
<pdfrwt beam="1">  1       -4 0.25951000E-02 0.12500354E+03</pdfrwt>
<totfact> 0.82547285E+03</totfact>
</mgrwt>
</event>
<event>
 5    1  0.3277540E-002  0.1250081E+03  0.7818608E-02  0.1235057E+00
          4   -1    0    0  501    0  0.00000000000E+00  0.00000000000E+00  0.51530540922E+03  0.51530697421E+03  0.12700000000E+01 0.  1.
         -4   -1    0    0    0  501 -0.00000000000E+00 -0.00000000000E+00 -0.75266658219E+01  0.76330595697E+01  0.12700000000E+01 0.  1.
         25    2    1    2    0    0  0.00000000000E+00  0.00000000000E+00  0.50777874340E+03  0.52294003378E+03  0.12500810648E+03 0.  0.
    9000005    1    3    3    0    0 -0.46821532217E+02  0.38230185370E+02  0.32029029220E+03  0.32594581487E+03  0.10000000000E+01 0.  0.
    9000005    1    3    3    0    0  0.46821532217E+02 -0.38230185370E+02  0.18748845120E+03  0.19699421891E+03  0.10000000000E+01 0.  0.
<mgrwt>
<rscale>  0 0.12500811E+03</rscale>
<asrwt>0</asrwt>
<pdfrwt beam="1">  1        4 0.79286071E-01 0.12500811E+03</pdfrwt>
<pdfrwt beam="2">  1       -4 0.11662529E-02 0.12500811E+03</pdfrwt>
<totfact> 0.54117772E+03</totfact>
</mgrwt>
</event>
<event>
 5    1  0.3277540E-002  0.1249992E+03  0.7818608E-02  0.1235071E+00
         -4   -1    0    0    0  501 -0.00000000000E+00  0.00000000000E+00  0.56804143788E+01  0.58206535299E+01  0.12700000000E+01 0.  1.
          4   -1    0    0  501    0  0.00000000000E+00 -0.00000000000E+00 -0.67913501565E+03  0.67913620311E+03  0.12700000000E+01 0.  1.
         25    2    1    2    0    0  0.00000000000E+00  0.00000000000E+00 -0.67345460127E+03  0.68495685664E+03  0.12499918196E+03 0.  0.
    9000005    1    3    3    0    0  0.53518048622E+02 -0.13153887882E+02 -0.17528622128E+03  0.18374837595E+03  0.10000000000E+01 0.  0.
    9000005    1    3    3    0    0 -0.53518048622E+02  0.13153887882E+02 -0.49816837999E+03  0.50120848069E+03  0.10000000000E+01 0.  0.
<mgrwt>
<rscale>  0 0.12499918E+03</rscale>
<asrwt>0</asrwt>
<pdfrwt beam="2">  1        4 0.10449313E+00 0.12499918E+03</pdfrwt>
<pdfrwt beam="1">  1       -4 0.88478941E-03 0.12499918E+03</pdfrwt>
<totfact> 0.43893595E+03</totfact>
</mgrwt>
</event>
<event>
 5    1  0.3277540E-002  0.1250008E+03  0.7818608E-02  0.1235068E+00
         -4   -1    0    0    0  501 -0.00000000000E+00  0.00000000000E+00  0.14128081824E+02  0.14185048327E+02  0.12700000000E+01 0.  1.
          4   -1    0    0  501    0  0.00000000000E+00 -0.00000000000E+00 -0.27587701875E+03  0.27587994196E+03  0.12700000000E+01 0.  1.
         25    2    1    2    0    0  0.00000000000E+00  0.00000000000E+00 -0.26174893692E+03  0.29006499028E+03  0.12500077043E+03 0.  0.
    9000005    1    3    3    0    0  0.38874293989E+02 -0.17751170171E+02 -0.25068995491E+02  0.49555719251E+02  0.10000000000E+01 0.  0.
    9000005    1    3    3    0    0 -0.38874293989E+02  0.17751170171E+02 -0.23667994143E+03  0.24050927103E+03  0.10000000000E+01 0.  0.
<mgrwt>
<rscale>  0 0.12500077E+03</rscale>
<asrwt>0</asrwt>
<pdfrwt beam="2">  1        4 0.42447221E-01 0.12500077E+03</pdfrwt>
<pdfrwt beam="1">  1       -4 0.21781582E-02 0.12500077E+03</pdfrwt>
<totfact> 0.76860897E+03</totfact>
</mgrwt>
</event>
<event>
 5    1  0.3277540E-002  0.1249916E+03  0.7818608E-02  0.1235082E+00
         -4   -1    0    0    0  501 -0.00000000000E+00  0.00000000000E+00  0.63511576451E+03  0.63511703428E+03  0.12700000000E+01 0.  1.
          4   -1    0    0  501    0  0.00000000000E+00 -0.00000000000E+00 -0.60827640244E+01  0.62139293669E+01  0.12700000000E+01 0.  1.
         25    2    1    2    0    0  0.00000000000E+00  0.00000000000E+00  0.62903300049E+03  0.64133096364E+03  0.12499155663E+03 0.  0.
    9000005    1    3    3    0    0  0.59018314764E+02  0.18040793558E+02  0.36481348822E+03  0.36999799039E+03  0.10000000000E+01 0.  0.
    9000005    1    3    3    0    0 -0.59018314764E+02 -0.18040793558E+02  0.26421951227E+03  0.27133297325E+03  0.10000000000E+01 0.  0.
<mgrwt>
<rscale>  0 0.12499156E+03</rscale>
<asrwt>0</asrwt>
<pdfrwt beam="2">  1        4 0.94599700E-03 0.12499156E+03</pdfrwt>
<pdfrwt beam="1">  1       -4 0.97720322E-01 0.12499156E+03</pdfrwt>
<totfact> 0.46366956E+03</totfact>
</mgrwt>
</event>
<event>
 5    1  0.3277540E-002  0.1249942E+03  0.7818608E-02  0.1235078E+00
         -4   -1    0    0    0  501 -0.00000000000E+00  0.00000000000E+00  0.18011864009E+04  0.18011868487E+04  0.12700000000E+01 0. -1.
          4   -1    0    0  501    0  0.00000000000E+00 -0.00000000000E+00 -0.19820753929E+01  0.23540439383E+01  0.12700000000E+01 0. -1.
         25    2    1    2    0    0  0.00000000000E+00  0.00000000000E+00  0.17992043256E+04  0.18035408926E+04  0.12499418487E+03 0.  0.
    9000005    1    3    3    0    0  0.37475456457E+02 -0.22183525540E+02  0.15462351011E+04  0.15468485725E+04  0.10000000000E+01 0.  0.
    9000005    1    3    3    0    0 -0.37475456457E+02  0.22183525540E+02  0.25296922449E+03  0.25669232007E+03  0.10000000000E+01 0.  0.
<mgrwt>
<rscale>  0 0.12499418E+03</rscale>
<asrwt>0</asrwt>
<pdfrwt beam="2">  1        4 0.33358202E-03 0.12499418E+03</pdfrwt>
<pdfrwt beam="1">  1       -4 0.27713430E+00 0.12499418E+03</pdfrwt>
<totfact> 0.12650625E+03</totfact>
</mgrwt>
</event>
<event>
 5    1  0.3277540E-002  0.1250033E+03  0.7818608E-02  0.1235064E+00
          4   -1    0    0  501    0  0.00000000000E+00  0.00000000000E+00  0.86263328333E+01  0.87193186746E+01  0.12700000000E+01 0. -1.
         -4   -1    0    0    0  501 -0.00000000000E+00 -0.00000000000E+00 -0.45033088603E+03  0.45033267682E+03  0.12700000000E+01 0. -1.
         25    2    1    2    0    0  0.00000000000E+00  0.00000000000E+00 -0.44170455319E+03  0.45905199549E+03  0.12500328897E+03 0.  0.
    9000005    1    3    3    0    0 -0.38626724552E+02 -0.13837321874E+02 -0.39395686556E+03  0.39608901430E+03  0.10000000000E+01 0.  0.
    9000005    1    3    3    0    0  0.38626724552E+02  0.13837321874E+02 -0.47747687629E+02  0.62962981189E+02  0.10000000000E+01 0.  0.
<mgrwt>
<rscale>  0 0.12500329E+03</rscale>
<asrwt>0</asrwt>
<pdfrwt beam="1">  1        4 0.13344190E-02 0.12500329E+03</pdfrwt>
<pdfrwt beam="2">  1       -4 0.69288947E-01 0.12500329E+03</pdfrwt>
<totfact> 0.59183287E+03</totfact>
</mgrwt>
</event>
<event>
 5    1  0.3277540E-002  0.1250005E+03  0.7818608E-02  0.1235069E+00
          4   -1    0    0  501    0  0.00000000000E+00  0.00000000000E+00  0.32110779410E+02  0.32135884215E+02  0.12700000000E+01 0.  1.
         -4   -1    0    0    0  501 -0.00000000000E+00 -0.00000000000E+00 -0.12157415507E+03  0.12158078829E+03  0.12700000000E+01 0.  1.
         25    2    1    2    0    0  0.00000000000E+00  0.00000000000E+00 -0.89463375664E+02  0.15371667251E+03  0.12500047929E+03 0.  0.
    9000005    1    3    3    0    0 -0.24962198910E+02 -0.55044120776E+02 -0.64265158314E+02  0.88226850672E+02  0.10000000000E+01 0.  0.
    9000005    1    3    3    0    0  0.24962198910E+02  0.55044120776E+02 -0.25198217350E+02  0.65489821836E+02  0.10000000000E+01 0.  0.
<mgrwt>
<rscale>  0 0.12500048E+03</rscale>
<asrwt>0</asrwt>
<pdfrwt beam="1">  1        4 0.49425614E-02 0.12500048E+03</pdfrwt>
<pdfrwt beam="2">  1       -4 0.18706157E-01 0.12500048E+03</pdfrwt>
<totfact> 0.98566865E+03</totfact>
</mgrwt>
</event>
<event>
 5    1  0.3277540E-002  0.1250001E+03  0.7818608E-02  0.1235069E+00
          4   -1    0    0  501    0  0.00000000000E+00  0.00000000000E+00  0.11644825998E+03  0.11645518517E+03  0.12700000000E+01 0. -1.
         -4   -1    0    0    0  501 -0.00000000000E+00 -0.00000000000E+00 -0.33525062648E+02  0.33549109162E+02  0.12700000000E+01 0. -1.
         25    2    1    2    0    0  0.00000000000E+00  0.00000000000E+00  0.82923197333E+02  0.15000429433E+03  0.12500012665E+03 0.  0.
    9000005    1    3    3    0    0 -0.20076103371E+02 -0.28232213120E+02 -0.20953394251E+02  0.40498796462E+02  0.10000000000E+01 0.  0.
    9000005    1    3    3    0    0  0.20076103371E+02  0.28232213120E+02  0.10387659158E+03  0.10950549787E+03  0.10000000000E+01 0.  0.
<mgrwt>
<rscale>  0 0.12500013E+03</rscale>
<asrwt>0</asrwt>
<pdfrwt beam="1">  1        4 0.17917499E-01 0.12500013E+03</pdfrwt>
<pdfrwt beam="2">  1       -4 0.51600844E-02 0.12500013E+03</pdfrwt>
<totfact> 0.99302559E+03</totfact>
</mgrwt>
</event>
<event>
 5    1  0.3277540E-002  0.1250007E+03  0.7818608E-02  0.1235068E+00
         -4   -1    0    0    0  501 -0.00000000000E+00  0.00000000000E+00  0.14803113100E+03  0.14803657874E+03  0.12700000000E+01 0. -1.
          4   -1    0    0  501    0  0.00000000000E+00 -0.00000000000E+00 -0.26367111876E+02  0.26397679608E+02  0.12700000000E+01 0. -1.
         25    2    1    2    0    0  0.00000000000E+00  0.00000000000E+00  0.12166401912E+03  0.17443425835E+03  0.12500070774E+03 0.  0.
    9000005    1    3    3    0    0  0.43619683493E+02  0.60142752439E+01 -0.10494169786E+01  0.44056209219E+02  0.10000000000E+01 0.  0.
    9000005    1    3    3    0    0 -0.43619683493E+02 -0.60142752439E+01  0.12271343610E+03  0.13037804913E+03  0.10000000000E+01 0.  0.
<mgrwt>
<rscale>  0 0.12500071E+03</rscale>
<asrwt>0</asrwt>
<pdfrwt beam="2">  1        4 0.40592494E-02 0.12500071E+03</pdfrwt>
<pdfrwt beam="1">  1       -4 0.22776790E-01 0.12500071E+03</pdfrwt>
<totfact> 0.94627055E+03</totfact>
</mgrwt>
</event>
<event>
 5    1  0.3277540E-002  0.1249949E+03  0.7818608E-02  0.1235077E+00
          4   -1    0    0  501    0  0.00000000000E+00  0.00000000000E+00  0.48806750957E+02  0.48823271490E+02  0.12700000000E+01 0.  1.
         -4   -1    0    0    0  501 -0.00000000000E+00 -0.00000000000E+00 -0.79993377784E+02  0.80003458608E+02  0.12700000000E+01 0.  1.
         25    2    1    2    0    0  0.00000000000E+00  0.00000000000E+00 -0.31186626827E+02  0.12882673010E+03  0.12499488268E+03 0.  0.
    9000005    1    3    3    0    0 -0.11565590221E+01  0.55051343267E+02 -0.46044658589E+02  0.71785086256E+02  0.10000000000E+01 0.  0.
    9000005    1    3    3    0    0  0.11565590221E+01 -0.55051343267E+02  0.14858031762E+02  0.57041643842E+02  0.10000000000E+01 0.  0.
<mgrwt>
<rscale>  0 0.12499488E+03</rscale>
<asrwt>0</asrwt>
<pdfrwt beam="1">  1        4 0.75107772E-02 0.12499488E+03</pdfrwt>
<pdfrwt beam="2">  1       -4 0.12308720E-01 0.12499488E+03</pdfrwt>
<totfact> 0.10370870E+04</totfact>
</mgrwt>
</event>
<event>
 5    1  0.3277540E-002  0.1249938E+03  0.7818608E-02  0.1235079E+00
          4   -1    0    0  501    0  0.00000000000E+00  0.00000000000E+00  0.59666621914E+02  0.59680136316E+02  0.12700000000E+01 0.  1.
         -4   -1    0    0    0  501 -0.00000000000E+00 -0.00000000000E+00 -0.65434315004E+02  0.65446638417E+02  0.12700000000E+01 0.  1.
         25    2    1    2    0    0  0.00000000000E+00  0.00000000000E+00 -0.57676930897E+01  0.12512677473E+03  0.12499377373E+03 0.  0.
    9000005    1    3    3    0    0 -0.37521466405E+02  0.49787641134E+02  0.13858080841E+01  0.62366578509E+02  0.10000000000E+01 0.  0.
    9000005    1    3    3    0    0  0.37521466405E+02 -0.49787641134E+02 -0.71535011738E+01  0.62760196223E+02  0.10000000000E+01 0.  0.
<mgrwt>
<rscale>  0 0.12499377E+03</rscale>
<asrwt>0</asrwt>
<pdfrwt beam="1">  1        4 0.91814678E-02 0.12499377E+03</pdfrwt>
<pdfrwt beam="2">  1       -4 0.10068805E-01 0.12499377E+03</pdfrwt>
<totfact> 0.10451580E+04</totfact>
</mgrwt>
</event>
<event>
 5    1  0.3277540E-002  0.1249974E+03  0.7818608E-02  0.1235073E+00
         -4   -1    0    0    0  501 -0.00000000000E+00  0.00000000000E+00  0.16522864233E+02  0.16571600480E+02  0.12700000000E+01 0.  1.
          4   -1    0    0  501    0  0.00000000000E+00 -0.00000000000E+00 -0.23600640338E+03  0.23600982042E+03  0.12700000000E+01 0.  1.
         25    2    1    2    0    0  0.00000000000E+00  0.00000000000E+00 -0.21948353914E+03  0.25258142090E+03  0.12499740089E+03 0.  0.
    9000005    1    3    3    0    0 -0.52406001967E+02 -0.29363634848E+02 -0.74948535584E+02  0.96056728446E+02  0.10000000000E+01 0.  0.
    9000005    1    3    3    0    0  0.52406001967E+02  0.29363634848E+02 -0.14453500356E+03  0.15652469245E+03  0.10000000000E+01 0.  0.
<mgrwt>
<rscale>  0 0.12499740E+03</rscale>
<asrwt>0</asrwt>
<pdfrwt beam="2">  1        4 0.36312687E-01 0.12499740E+03</pdfrwt>
<pdfrwt beam="1">  1       -4 0.25459911E-02 0.12499740E+03</pdfrwt>
<totfact> 0.81963304E+03</totfact>
</mgrwt>
</event>
<event>
 5    1  0.3277540E-002  0.1250005E+03  0.7818608E-02  0.1235068E+00
         -4   -1    0    0    0  501 -0.00000000000E+00  0.00000000000E+00  0.17874309191E+02  0.17919370219E+02  0.12700000000E+01 0. -1.
          4   -1    0    0  501    0  0.00000000000E+00 -0.00000000000E+00 -0.21821963916E+03  0.21822333472E+03  0.12700000000E+01 0. -1.
         25    2    1    2    0    0  0.00000000000E+00  0.00000000000E+00 -0.20034532997E+03  0.23614270493E+03  0.12500050342E+03 0.  0.
    9000005    1    3    3    0    0  0.18745040756E+02 -0.55371971498E+02 -0.58446758039E+02  0.82670764516E+02  0.10000000000E+01 0.  0.
    9000005    1    3    3    0    0 -0.18745040756E+02  0.55371971498E+02 -0.14189857193E+03  0.15347194042E+03  0.10000000000E+01 0.  0.
<mgrwt>
<rscale>  0 0.12500050E+03</rscale>
<asrwt>0</asrwt>
<pdfrwt beam="2">  1        4 0.33576001E-01 0.12500050E+03</pdfrwt>
<pdfrwt beam="1">  1       -4 0.27536444E-02 0.12500050E+03</pdfrwt>
<totfact> 0.84374271E+03</totfact>
</mgrwt>
</event>
<event>
 5    1  0.3277540E-002  0.1250016E+03  0.7818608E-02  0.1235067E+00
          4   -1    0    0  501    0  0.00000000000E+00  0.00000000000E+00  0.14656832102E+02  0.14711751333E+02  0.12700000000E+01 0. -1.
         -4   -1    0    0    0  501 -0.00000000000E+00 -0.00000000000E+00 -0.26596600978E+03  0.26596904192E+03  0.12700000000E+01 0. -1.
         25    2    1    2    0    0  0.00000000000E+00  0.00000000000E+00 -0.25130917768E+03  0.28068079325E+03  0.12500161965E+03 0.  0.
    9000005    1    3    3    0    0 -0.18978739499E+02  0.21845192360E+02 -0.25002610483E+03  0.25169715548E+03  0.10000000000E+01 0.  0.
    9000005    1    3    3    0    0  0.18978739499E+02 -0.21845192360E+02 -0.12830728472E+01  0.28983637766E+02  0.10000000000E+01 0.  0.
<mgrwt>
<rscale>  0 0.12500162E+03</rscale>
<asrwt>0</asrwt>
<pdfrwt beam="1">  1        4 0.22593552E-02 0.12500162E+03</pdfrwt>
<pdfrwt beam="2">  1       -4 0.40922302E-01 0.12500162E+03</pdfrwt>
<totfact> 0.78085114E+03</totfact>
</mgrwt>
</event>
<event>
 5    1  0.3277540E-002  0.1249742E+03  0.7818608E-02  0.1235110E+00
          4   -1    0    0  501    0  0.00000000000E+00  0.00000000000E+00  0.91082076352E+02  0.91090930024E+02  0.12700000000E+01 0.  1.
         -4   -1    0    0    0  501 -0.00000000000E+00 -0.00000000000E+00 -0.42849109666E+02  0.42867926229E+02  0.12700000000E+01 0.  1.
         25    2    1    2    0    0  0.00000000000E+00  0.00000000000E+00  0.48232966686E+02  0.13395885625E+03  0.12497422172E+03 0.  0.
    9000005    1    3    3    0    0  0.29590343050E+02  0.52402160219E+02  0.42118658963E+02  0.73461256662E+02  0.10000000000E+01 0.  0.
    9000005    1    3    3    0    0 -0.29590343050E+02 -0.52402160219E+02  0.61143077231E+01  0.60497599592E+02  0.10000000000E+01 0.  0.
<mgrwt>
<rscale>  0 0.12497422E+03</rscale>
<asrwt>0</asrwt>
<pdfrwt beam="1">  1        4 0.14014755E-01 0.12497422E+03</pdfrwt>
<pdfrwt beam="2">  1       -4 0.65942993E-02 0.12497422E+03</pdfrwt>
<totfact> 0.10266030E+04</totfact>
</mgrwt>
</event>
<event>
 5    1  0.3277540E-002  0.1250009E+03  0.7818608E-02  0.1235068E+00
          4   -1    0    0  501    0  0.00000000000E+00  0.00000000000E+00  0.17360891383E+03  0.17361355898E+03  0.12700000000E+01 0.  1.
         -4   -1    0    0    0  501 -0.00000000000E+00 -0.00000000000E+00 -0.22477751761E+02  0.22513600873E+02  0.12700000000E+01 0.  1.
         25    2    1    2    0    0  0.00000000000E+00  0.00000000000E+00  0.15113116207E+03  0.19612715985E+03  0.12500093873E+03 0.  0.
    9000005    1    3    3    0    0  0.17651398548E+02  0.16032975516E+02 -0.15066463295E+02  0.28224572465E+02  0.10000000000E+01 0.  0.
    9000005    1    3    3    0    0 -0.17651398548E+02 -0.16032975516E+02  0.16619762536E+03  0.16790258738E+03  0.10000000000E+01 0.  0.
<mgrwt>
<rscale>  0 0.12500094E+03</rscale>
<asrwt>0</asrwt>
<pdfrwt beam="1">  1        4 0.26712179E-01 0.12500094E+03</pdfrwt>
<pdfrwt beam="2">  1       -4 0.34612305E-02 0.12500094E+03</pdfrwt>
<totfact> 0.90790094E+03</totfact>
</mgrwt>
</event>
<event>
 5    1  0.3277540E-002  0.1250008E+03  0.7818608E-02  0.1235068E+00
          4   -1    0    0  501    0  0.00000000000E+00  0.00000000000E+00  0.12175114637E+03  0.12175776995E+03  0.12700000000E+01 0.  1.
         -4   -1    0    0    0  501 -0.00000000000E+00 -0.00000000000E+00 -0.32064237899E+02  0.32089379116E+02  0.12700000000E+01 0.  1.
         25    2    1    2    0    0  0.00000000000E+00  0.00000000000E+00  0.89686908472E+02  0.15384714906E+03  0.12500081489E+03 0.  0.
    9000005    1    3    3    0    0 -0.29122902906E+02  0.53310408448E+02  0.62896694601E+02  0.87447912006E+02  0.10000000000E+01 0.  0.
    9000005    1    3    3    0    0  0.29122902906E+02 -0.53310408448E+02  0.26790213872E+02  0.66399237058E+02  0.10000000000E+01 0.  0.
<mgrwt>
<rscale>  0 0.12500081E+03</rscale>
<asrwt>0</asrwt>
<pdfrwt beam="1">  1        4 0.18733389E-01 0.12500081E+03</pdfrwt>
<pdfrwt beam="2">  1       -4 0.49354031E-02 0.12500081E+03</pdfrwt>
<totfact> 0.98540474E+03</totfact>
</mgrwt>
</event>
<event>
 4    1  0.3277540E-002  0.1236640E+03  0.7818608E-02  0.1237172E+00
         -4   -1    0    0    0  501 -0.00000000000E+00  0.00000000000E+00  0.60777037182E+01  0.62089759612E+01  0.12700000000E+01 0. -1.
          4   -1    0    0  501    0  0.00000000000E+00 -0.00000000000E+00 -0.62219978142E+03  0.62220107754E+03  0.12700000000E+01 0. -1.
    9000005    1    1    2    0    0 -0.10380106475E+02 -0.41517039261E+02 -0.81329483742E+02  0.91906996933E+02  0.10000000000E+01 0.  0.
    9000005    1    1    2    0    0  0.10380106475E+02  0.41517039261E+02 -0.53479259396E+03  0.53650305657E+03  0.10000000000E+01 0.  0.
<mgrwt>
<rscale>  0 0.12366398E+03</rscale>
<asrwt>0</asrwt>
<pdfrwt beam="2">  1        4 0.95733191E-01 0.12366398E+03</pdfrwt>
<pdfrwt beam="1">  1       -4 0.94522940E-03 0.12366398E+03</pdfrwt>
<totfact> 0.48528676E+03</totfact>
</mgrwt>
</event>
<event>
 5    1  0.3277540E-002  0.1250024E+03  0.7818608E-02  0.1235065E+00
         -4   -1    0    0    0  501 -0.00000000000E+00  0.00000000000E+00  0.53079470687E+02  0.53094661770E+02  0.12700000000E+01 0.  1.
          4   -1    0    0  501    0  0.00000000000E+00 -0.00000000000E+00 -0.73564157926E+02  0.73575119649E+02  0.12700000000E+01 0.  1.
         25    2    1    2    0    0  0.00000000000E+00  0.00000000000E+00 -0.20484687239E+02  0.12666978142E+03  0.12500244443E+03 0.  0.
    9000005    1    3    3    0    0  0.38228037588E+02  0.43930462142E+02 -0.33219318730E+02  0.67050663671E+02  0.10000000000E+01 0.  0.
    9000005    1    3    3    0    0 -0.38228037588E+02 -0.43930462142E+02  0.12734631491E+02  0.59619117748E+02  0.10000000000E+01 0.  0.
<mgrwt>
<rscale>  0 0.12500244E+03</rscale>
<asrwt>0</asrwt>
<pdfrwt beam="2">  1        4 0.11319575E-01 0.12500244E+03</pdfrwt>
<pdfrwt beam="1">  1       -4 0.81680842E-02 0.12500244E+03</pdfrwt>
<totfact> 0.10415753E+04</totfact>
</mgrwt>
</event>
<event>
 5    1  0.3277540E-002  0.1249935E+03  0.7818608E-02  0.1235079E+00
          4   -1    0    0  501    0  0.00000000000E+00  0.00000000000E+00  0.25371681903E+02  0.25403447455E+02  0.12700000000E+01 0.  1.
         -4   -1    0    0    0  501 -0.00000000000E+00 -0.00000000000E+00 -0.15381439103E+03  0.15381963395E+03  0.12700000000E+01 0.  1.
         25    2    1    2    0    0  0.00000000000E+00  0.00000000000E+00 -0.12844270913E+03  0.17922308140E+03  0.12499353335E+03 0.  0.
    9000005    1    3    3    0    0  0.26407699829E+02  0.52643112759E+02 -0.34275257929E+02  0.68150254859E+02  0.10000000000E+01 0.  0.
    9000005    1    3    3    0    0 -0.26407699829E+02 -0.52643112759E+02 -0.94167451200E+02  0.11107282654E+03  0.10000000000E+01 0.  0.
<mgrwt>
<rscale>  0 0.12499353E+03</rscale>
<asrwt>0</asrwt>
<pdfrwt beam="1">  1        4 0.39061826E-02 0.12499353E+03</pdfrwt>
<pdfrwt beam="2">  1       -4 0.23666599E-01 0.12499353E+03</pdfrwt>
<totfact> 0.93770635E+03</totfact>
</mgrwt>
</event>
<event>
 5    1  0.3277540E-002  0.1249965E+03  0.7818608E-02  0.1235075E+00
         -4   -1    0    0    0  501 -0.00000000000E+00  0.00000000000E+00  0.11039598750E+02  0.11112409305E+02  0.12700000000E+01 0.  1.
          4   -1    0    0  501    0  0.00000000000E+00 -0.00000000000E+00 -0.35258307760E+03  0.35258536485E+03  0.12700000000E+01 0.  1.
         25    2    1    2    0    0  0.00000000000E+00  0.00000000000E+00 -0.34154347885E+03  0.36369777416E+03  0.12499649189E+03 0.  0.
    9000005    1    3    3    0    0 -0.30660765656E+02  0.47103237632E+02 -0.25025581035E+03  0.25649126332E+03  0.10000000000E+01 0.  0.
    9000005    1    3    3    0    0  0.30660765656E+02 -0.47103237632E+02 -0.91287668496E+02  0.10720651084E+03  0.10000000000E+01 0.  0.
<mgrwt>
<rscale>  0 0.12499649E+03</rscale>
<asrwt>0</asrwt>
<pdfrwt beam="2">  1        4 0.54249319E-01 0.12499649E+03</pdfrwt>
<pdfrwt beam="1">  1       -4 0.17041768E-02 0.12499649E+03</pdfrwt>
<totfact> 0.68248761E+03</totfact>
</mgrwt>
</event>
<event>
 5    1  0.3277540E-002  0.1249989E+03  0.7818608E-02  0.1235071E+00
         -4   -1    0    0    0  501 -0.00000000000E+00  0.00000000000E+00  0.82772010364E+03  0.82772107795E+03  0.12700000000E+01 0.  1.
          4   -1    0    0  501    0  0.00000000000E+00 -0.00000000000E+00 -0.46327710401E+01  0.48036931116E+01  0.12700000000E+01 0.  1.
         25    2    1    2    0    0  0.00000000000E+00  0.00000000000E+00  0.82308733260E+03  0.83252477106E+03  0.12499894932E+03 0.  0.
    9000005    1    3    3    0    0 -0.31744563505E+01  0.98802535814E+01  0.82197356705E+03  0.82203968366E+03  0.10000000000E+01 0.  0.
    9000005    1    3    3    0    0  0.31744563505E+01 -0.98802535814E+01  0.11137655505E+01  0.10485087394E+02  0.10000000000E+01 0.  0.
<mgrwt>
<rscale>  0 0.12499895E+03</rscale>
<asrwt>0</asrwt>
<pdfrwt beam="2">  1        4 0.72595728E-03 0.12499895E+03</pdfrwt>
<pdfrwt beam="1">  1       -4 0.12735469E+00 0.12499895E+03</pdfrwt>
<totfact> 0.36854156E+03</totfact>
</mgrwt>
</event>
<event>
 5    1  0.3277540E-002  0.1249999E+03  0.7818608E-02  0.1235070E+00
         -4   -1    0    0    0  501 -0.00000000000E+00  0.00000000000E+00  0.41922640200E+03  0.41922832565E+03  0.12700000000E+01 0.  1.
          4   -1    0    0  501    0  0.00000000000E+00 -0.00000000000E+00 -0.92725074304E+01  0.93590754911E+01  0.12700000000E+01 0.  1.
         25    2    1    2    0    0  0.00000000000E+00  0.00000000000E+00  0.40995389457E+03  0.42858740115E+03  0.12499985900E+03 0.  0.
    9000005    1    3    3    0    0 -0.23395855861E+00 -0.47960850407E+02  0.67617124641E+02  0.82905810731E+02  0.10000000000E+01 0.  0.
    9000005    1    3    3    0    0  0.23395855861E+00  0.47960850407E+02  0.34233676992E+03  0.34568159041E+03  0.10000000000E+01 0.  0.
<mgrwt>
<rscale>  0 0.12499986E+03</rscale>
<asrwt>0</asrwt>
<pdfrwt beam="2">  1        4 0.14333464E-02 0.12499986E+03</pdfrwt>
<pdfrwt beam="1">  1       -4 0.64503187E-01 0.12499986E+03</pdfrwt>
<totfact> 0.61864428E+03</totfact>
</mgrwt>
</event>
<event>
 5    1  0.3277540E-002  0.1250002E+03  0.7818608E-02  0.1235069E+00
          4   -1    0    0  501    0  0.00000000000E+00  0.00000000000E+00  0.38744800663E+02  0.38765609481E+02  0.12700000000E+01 0.  1.
         -4   -1    0    0    0  501 -0.00000000000E+00 -0.00000000000E+00 -0.10076844200E+03  0.10077644468E+03  0.12700000000E+01 0.  1.
         25    2    1    2    0    0  0.00000000000E+00  0.00000000000E+00 -0.62023641334E+02  0.13954205416E+03  0.12500021118E+03 0.  0.
    9000005    1    3    3    0    0 -0.52689915122E+02  0.14678200875E+01 -0.68486118045E+02  0.86427599852E+02  0.10000000000E+01 0.  0.
    9000005    1    3    3    0    0  0.52689915122E+02 -0.14678200875E+01  0.64624767109E+01  0.53114454310E+02  0.10000000000E+01 0.  0.
<mgrwt>
<rscale>  0 0.12500021E+03</rscale>
<asrwt>0</asrwt>
<pdfrwt beam="1">  1        4 0.59629549E-02 0.12500021E+03</pdfrwt>
<pdfrwt beam="2">  1       -4 0.15505053E-01 0.12500021E+03</pdfrwt>
<totfact> 0.10143037E+04</totfact>
</mgrwt>
</event>
<event>
 5    1  0.3277540E-002  0.1249501E+03  0.7818608E-02  0.1235147E+00
          4   -1    0    0  501    0  0.00000000000E+00  0.00000000000E+00  0.35805841300E+02  0.35828357082E+02  0.12700000000E+01 0.  1.
         -4   -1    0    0    0  501 -0.00000000000E+00 -0.00000000000E+00 -0.10894776605E+03  0.10895516797E+03  0.12700000000E+01 0.  1.
         25    2    1    2    0    0  0.00000000000E+00  0.00000000000E+00 -0.73141924749E+02  0.14478352505E+03  0.12495010192E+03 0.  0.
    9000005    1    3    3    0    0  0.39411458013E+02 -0.42676044564E+02 -0.63187090641E+02  0.85837731948E+02  0.10000000000E+01 0.  0.
    9000005    1    3    3    0    0 -0.39411458013E+02  0.42676044564E+02 -0.99548341082E+01  0.58945793102E+02  0.10000000000E+01 0.  0.
<mgrwt>
<rscale>  0 0.12495010E+03</rscale>
<asrwt>0</asrwt>
<pdfrwt beam="1">  1        4 0.55108924E-02 0.12495010E+03</pdfrwt>
<pdfrwt beam="2">  1       -4 0.16763496E-01 0.12495010E+03</pdfrwt>
<totfact> 0.10046673E+04</totfact>
</mgrwt>
</event>
<event>
 5    1  0.3277540E-002  0.1250018E+03  0.7818608E-02  0.1235066E+00
          4   -1    0    0  501    0  0.00000000000E+00  0.00000000000E+00  0.31046912070E+03  0.31047171821E+03  0.12700000000E+01 0. -1.
         -4   -1    0    0    0  501 -0.00000000000E+00 -0.00000000000E+00 -0.12547422138E+02  0.12611530530E+02  0.12700000000E+01 0. -1.
         25    2    1    2    0    0  0.00000000000E+00  0.00000000000E+00  0.29792169856E+03  0.32308324874E+03  0.12500178856E+03 0.  0.
    9000005    1    3    3    0    0  0.67808639368E+01 -0.38209733244E+02  0.27556541167E+03  0.27828629132E+03  0.10000000000E+01 0.  0.
    9000005    1    3    3    0    0 -0.67808639368E+01  0.38209733244E+02  0.22356286896E+02  0.44796957420E+02  0.10000000000E+01 0.  0.
<mgrwt>
<rscale>  0 0.12500179E+03</rscale>
<asrwt>0</asrwt>
<pdfrwt beam="1">  1        4 0.47769609E-01 0.12500179E+03</pdfrwt>
<pdfrwt beam="2">  1       -4 0.19355039E-02 0.12500179E+03</pdfrwt>
<totfact> 0.72788023E+03</totfact>
</mgrwt>
</event>
<event>
 5    1  0.3277540E-002  0.1250088E+03  0.7818608E-02  0.1235055E+00
         -4   -1    0    0    0  501 -0.00000000000E+00  0.00000000000E+00  0.19125697953E+03  0.19126119606E+03  0.12700000000E+01 0.  1.
          4   -1    0    0  501    0  0.00000000000E+00 -0.00000000000E+00 -0.20402795644E+02  0.20442283876E+02  0.12700000000E+01 0.  1.
         25    2    1    2    0    0  0.00000000000E+00  0.00000000000E+00  0.17085418389E+03  0.21170347994E+03  0.12500884475E+03 0.  0.
    9000005    1    3    3    0    0  0.93062960625E+01 -0.52452369827E+02  0.14076995351E+03  0.15051590633E+03  0.10000000000E+01 0.  0.
    9000005    1    3    3    0    0 -0.93062960625E+01  0.52452369827E+02  0.30084230377E+02  0.61187573610E+02  0.10000000000E+01 0.  0.
<mgrwt>
<rscale>  0 0.12500884E+03</rscale>
<asrwt>0</asrwt>
<pdfrwt beam="2">  1        4 0.31422535E-02 0.12500884E+03</pdfrwt>
<pdfrwt beam="1">  1       -4 0.29427513E-01 0.12500884E+03</pdfrwt>
<totfact> 0.88180998E+03</totfact>
</mgrwt>
</event>
<event>
 5    1  0.3277540E-002  0.1250597E+03  0.7818608E-02  0.1234976E+00
         -4   -1    0    0    0  501 -0.00000000000E+00  0.00000000000E+00  0.25756132333E+03  0.25756445441E+03  0.12700000000E+01 0.  1.
          4   -1    0    0  501    0  0.00000000000E+00 -0.00000000000E+00 -0.15150990000E+02  0.15204124374E+02  0.12700000000E+01 0.  1.
         25    2    1    2    0    0  0.00000000000E+00  0.00000000000E+00  0.24241033333E+03  0.27276857878E+03  0.12505969721E+03 0.  0.
    9000005    1    3    3    0    0 -0.50062277665E+02 -0.18144027938E+02  0.19266911520E+03  0.19989453556E+03  0.10000000000E+01 0.  0.
    9000005    1    3    3    0    0  0.50062277665E+02  0.18144027938E+02  0.49741218131E+02  0.72874043225E+02  0.10000000000E+01 0.  0.
<mgrwt>
<rscale>  0 0.12505970E+03</rscale>
<asrwt>0</asrwt>
<pdfrwt beam="2">  1        4 0.23352497E-02 0.12505970E+03</pdfrwt>
<pdfrwt beam="1">  1       -4 0.39629146E-01 0.12505970E+03</pdfrwt>
<totfact> 0.79041827E+03</totfact>
</mgrwt>
</event>
<event>
 5    1  0.3277540E-002  0.1249974E+03  0.7818608E-02  0.1235073E+00
          4   -1    0    0  501    0  0.00000000000E+00  0.00000000000E+00  0.67473782066E+02  0.67485733057E+02  0.12700000000E+01 0.  1.
         -4   -1    0    0    0  501 -0.00000000000E+00 -0.00000000000E+00 -0.57866357005E+02  0.57880291749E+02  0.12700000000E+01 0.  1.
         25    2    1    2    0    0  0.00000000000E+00  0.00000000000E+00  0.96074250612E+01  0.12536602481E+03  0.12499735021E+03 0.  0.
    9000005    1    3    3    0    0  0.61639669906E+02  0.37794968806E+01 -0.47822435130E+01  0.61948392681E+02  0.10000000000E+01 0.  0.
    9000005    1    3    3    0    0 -0.61639669906E+02 -0.37794968806E+01  0.14389668574E+02  0.63417632126E+02  0.10000000000E+01 0.  0.
<mgrwt>
<rscale>  0 0.12499735E+03</rscale>
<asrwt>0</asrwt>
<pdfrwt beam="1">  1        4 0.10382573E-01 0.12499735E+03</pdfrwt>
<pdfrwt beam="2">  1       -4 0.89045077E-02 0.12499735E+03</pdfrwt>
<totfact> 0.10445543E+04</totfact>
</mgrwt>
</event>
<event>
 5    1  0.3277540E-002  0.1250072E+03  0.7818608E-02  0.1235058E+00
         -4   -1    0    0    0  501 -0.00000000000E+00  0.00000000000E+00  0.75065013586E+03  0.75065121019E+03  0.12700000000E+01 0. -1.
          4   -1    0    0  501    0  0.00000000000E+00 -0.00000000000E+00 -0.51258524836E+01  0.52808392973E+01  0.12700000000E+01 0. -1.
         25    2    1    2    0    0  0.00000000000E+00  0.00000000000E+00  0.74552428337E+03  0.75593204949E+03  0.12500722517E+03 0.  0.
    9000005    1    3    3    0    0 -0.45270427510E+02  0.38119414871E+02  0.25133717103E+03  0.25821284813E+03  0.10000000000E+01 0.  0.
    9000005    1    3    3    0    0  0.45270427510E+02 -0.38119414871E+02  0.49418711234E+03  0.49771920136E+03  0.10000000000E+01 0.  0.
<mgrwt>
<rscale>  0 0.12500723E+03</rscale>
<asrwt>0</asrwt>
<pdfrwt beam="2">  1        4 0.80059738E-03 0.12500723E+03</pdfrwt>
<pdfrwt beam="1">  1       -4 0.11549664E+00 0.12500723E+03</pdfrwt>
<totfact> 0.40285637E+03</totfact>
</mgrwt>
</event>
<event>
 5    1  0.3277540E-002  0.1249989E+03  0.7818608E-02  0.1235071E+00
          4   -1    0    0  501    0  0.00000000000E+00  0.00000000000E+00  0.10899208852E+03  0.10899948743E+03  0.12700000000E+01 0.  1.
         -4   -1    0    0    0  501 -0.00000000000E+00 -0.00000000000E+00 -0.35819268173E+02  0.35841775520E+02  0.12700000000E+01 0.  1.
         25    2    1    2    0    0  0.00000000000E+00  0.00000000000E+00  0.73172820350E+02  0.14484126295E+03  0.12499891926E+03 0.  0.
    9000005    1    3    3    0    0 -0.26726059241E+02  0.15175651121E+02 -0.26462255439E+02  0.40568874675E+02  0.10000000000E+01 0.  0.
    9000005    1    3    3    0    0  0.26726059241E+02 -0.15175651121E+02  0.99635075790E+02  0.10427238828E+03  0.10000000000E+01 0.  0.
<mgrwt>
<rscale>  0 0.12499892E+03</rscale>
<asrwt>0</asrwt>
<pdfrwt beam="1">  1        4 0.16770314E-01 0.12499892E+03</pdfrwt>
<pdfrwt beam="2">  1       -4 0.55129571E-02 0.12499892E+03</pdfrwt>
<totfact> 0.10034459E+04</totfact>
</mgrwt>
</event>
<event>
 5    1  0.3277540E-002  0.1249965E+03  0.7818608E-02  0.1235075E+00
          4   -1    0    0  501    0  0.00000000000E+00  0.00000000000E+00  0.71904179054E+01  0.73017127890E+01  0.12700000000E+01 0. -1.
         -4   -1    0    0    0  501 -0.00000000000E+00 -0.00000000000E+00 -0.53894373273E+03  0.53894522908E+03  0.12700000000E+01 0. -1.
         25    2    1    2    0    0  0.00000000000E+00  0.00000000000E+00 -0.53175331483E+03  0.54624694187E+03  0.12499653465E+03 0.  0.
    9000005    1    3    3    0    0 -0.12608751205E+02 -0.47689480309E+02 -0.98223989145E+02  0.10991914839E+03  0.10000000000E+01 0.  0.
    9000005    1    3    3    0    0  0.12608751205E+02  0.47689480309E+02 -0.43352932568E+03  0.43632779348E+03  0.10000000000E+01 0.  0.
<mgrwt>
<rscale>  0 0.12499653E+03</rscale>
<asrwt>0</asrwt>
<pdfrwt beam="1">  1        4 0.11148948E-02 0.12499653E+03</pdfrwt>
<pdfrwt beam="2">  1       -4 0.82923065E-01 0.12499653E+03</pdfrwt>
<totfact> 0.52450621E+03</totfact>
</mgrwt>
</event>
<event>
 5    1  0.3277540E-002  0.1249986E+03  0.7818608E-02  0.1235071E+00
         -4   -1    0    0    0  501 -0.00000000000E+00  0.00000000000E+00  0.29393499156E+03  0.29393773518E+03  0.12700000000E+01 0. -1.
          4   -1    0    0  501    0  0.00000000000E+00 -0.00000000000E+00 -0.13256056049E+02  0.13316753432E+02  0.12700000000E+01 0. -1.
         25    2    1    2    0    0  0.00000000000E+00  0.00000000000E+00  0.28067893551E+03  0.30725448861E+03  0.12499862372E+03 0.  0.
    9000005    1    3    3    0    0  0.37171248074E+02  0.99032747537E+01  0.19284234820E+02  0.43042516735E+02  0.10000000000E+01 0.  0.
    9000005    1    3    3    0    0 -0.37171248074E+02 -0.99032747537E+01  0.26139470069E+03  0.26421197187E+03  0.10000000000E+01 0.  0.
<mgrwt>
<rscale>  0 0.12499862E+03</rscale>
<asrwt>0</asrwt>
<pdfrwt beam="2">  1        4 0.20442735E-02 0.12499862E+03</pdfrwt>
<pdfrwt beam="1">  1       -4 0.45225644E-01 0.12499862E+03</pdfrwt>
<totfact> 0.74700050E+03</totfact>
</mgrwt>
</event>
<event>
 5    1  0.3277540E-002  0.1249667E+03  0.7818608E-02  0.1235121E+00
          4   -1    0    0  501    0  0.00000000000E+00  0.00000000000E+00  0.24880123416E+03  0.24880447548E+03  0.12700000000E+01 0. -1.
         -4   -1    0    0    0  501 -0.00000000000E+00 -0.00000000000E+00 -0.15662878523E+02  0.15714282154E+02  0.12700000000E+01 0. -1.
         25    2    1    2    0    0  0.00000000000E+00  0.00000000000E+00  0.23313835563E+03  0.26451875763E+03  0.12496671666E+03 0.  0.
    9000005    1    3    3    0    0 -0.59810946402E+02 -0.62994795175E+01  0.80763708997E+02  0.10070158610E+03  0.10000000000E+01 0.  0.
    9000005    1    3    3    0    0  0.59810946402E+02  0.62994795175E+01  0.15237464664E+03  0.16381717153E+03  0.10000000000E+01 0.  0.
<mgrwt>
<rscale>  0 0.12496672E+03</rscale>
<asrwt>0</asrwt>
<pdfrwt beam="1">  1        4 0.38281317E-01 0.12496672E+03</pdfrwt>
<pdfrwt beam="2">  1       -4 0.24138771E-02 0.12496672E+03</pdfrwt>
<totfact> 0.80335554E+03</totfact>
</mgrwt>
</event>
<event>
 5    1  0.3277540E-002  0.1250029E+03  0.7818608E-02  0.1235065E+00
         -4   -1    0    0    0  501 -0.00000000000E+00  0.00000000000E+00  0.63341598822E+01  0.64602230158E+01  0.12700000000E+01 0.  1.
          4   -1    0    0  501    0  0.00000000000E+00 -0.00000000000E+00 -0.61052083126E+03  0.61052215218E+03  0.12700000000E+01 0.  1.
         25    2    1    2    0    0  0.00000000000E+00  0.00000000000E+00 -0.60418667138E+03  0.61698237520E+03  0.12500286969E+03 0.  0.
    9000005    1    3    3    0    0  0.21106797127E+02 -0.39466588641E+01 -0.59176553301E+03  0.59215582329E+03  0.10000000000E+01 0.  0.
    9000005    1    3    3    0    0 -0.21106797127E+02  0.39466588641E+01 -0.12421138372E+02  0.24826551907E+02  0.10000000000E+01 0.  0.
<mgrwt>
<rscale>  0 0.12500287E+03</rscale>
<asrwt>0</asrwt>
<pdfrwt beam="2">  1        4 0.93936034E-01 0.12500287E+03</pdfrwt>
<pdfrwt beam="1">  1       -4 0.98428539E-03 0.12500287E+03</pdfrwt>
<totfact> 0.47809896E+03</totfact>
</mgrwt>
</event>
<event>
 5    1  0.3277540E-002  0.1250333E+03  0.7818608E-02  0.1235017E+00
          4   -1    0    0  501    0  0.00000000000E+00  0.00000000000E+00  0.60854066409E+02  0.60867317162E+02  0.12700000000E+01 0.  1.
         -4   -1    0    0    0  501 -0.00000000000E+00 -0.00000000000E+00 -0.64198163510E+02  0.64210724167E+02  0.12700000000E+01 0.  1.
         25    2    1    2    0    0  0.00000000000E+00  0.00000000000E+00 -0.33440971003E+01  0.12507804133E+03  0.12503332931E+03 0.  0.
    9000005    1    3    3    0    0  0.31233221217E+02  0.53419863389E+02 -0.10514748435E+02  0.62775439837E+02  0.10000000000E+01 0.  0.
    9000005    1    3    3    0    0 -0.31233221217E+02 -0.53419863389E+02  0.71706513344E+01  0.62302601492E+02  0.10000000000E+01 0.  0.
<mgrwt>
<rscale>  0 0.12503333E+03</rscale>
<asrwt>0</asrwt>
<pdfrwt beam="1">  1        4 0.93641496E-02 0.12503333E+03</pdfrwt>
<pdfrwt beam="2">  1       -4 0.98786260E-02 0.12503333E+03</pdfrwt>
<totfact> 0.10443299E+04</totfact>
</mgrwt>
</event>
<event>
 5    1  0.3277540E-002  0.1249769E+03  0.7818608E-02  0.1235105E+00
         -4   -1    0    0    0  501 -0.00000000000E+00  0.00000000000E+00  0.50022478360E+03  0.50022639578E+03  0.12700000000E+01 0.  1.
          4   -1    0    0  501    0  0.00000000000E+00 -0.00000000000E+00 -0.77528131284E+01  0.78561448182E+01  0.12700000000E+01 0.  1.
         25    2    1    2    0    0  0.00000000000E+00  0.00000000000E+00  0.49247197048E+03  0.50808254059E+03  0.12497690328E+03 0.  0.
    9000005    1    3    3    0    0  0.35633896477E+02  0.22491995645E+02  0.43378069922E+03  0.43582377111E+03  0.10000000000E+01 0.  0.
    9000005    1    3    3    0    0 -0.35633896477E+02 -0.22491995645E+02  0.58691271255E+02  0.72258769487E+02  0.10000000000E+01 0.  0.
<mgrwt>
<rscale>  0 0.12497690E+03</rscale>
<asrwt>0</asrwt>
<pdfrwt beam="2">  1        4 0.12008133E-02 0.12497690E+03</pdfrwt>
<pdfrwt beam="1">  1       -4 0.76965720E-01 0.12497690E+03</pdfrwt>
<totfact> 0.55270731E+03</totfact>
</mgrwt>
</event>
<event>
 5    1  0.3277540E-002  0.1250073E+03  0.7818608E-02  0.1235058E+00
          4   -1    0    0  501    0  0.00000000000E+00  0.00000000000E+00  0.81433861708E+02  0.81443764235E+02  0.12700000000E+01 0. -1.
         -4   -1    0    0    0  501 -0.00000000000E+00 -0.00000000000E+00 -0.47952726805E+02  0.47969541462E+02  0.12700000000E+01 0. -1.
         25    2    1    2    0    0  0.00000000000E+00  0.00000000000E+00  0.33481134903E+02  0.12941330570E+03  0.12500726898E+03 0.  0.
    9000005    1    3    3    0    0 -0.33199889231E+02  0.49343511746E+02  0.36618630542E+02  0.69849401566E+02  0.10000000000E+01 0.  0.
    9000005    1    3    3    0    0  0.33199889231E+02 -0.49343511746E+02 -0.31374956389E+01  0.59563904130E+02  0.10000000000E+01 0.  0.
<mgrwt>
<rscale>  0 0.12500727E+03</rscale>
<asrwt>0</asrwt>
<pdfrwt beam="1">  1        4 0.12530341E-01 0.12500727E+03</pdfrwt>
<pdfrwt beam="2">  1       -4 0.73793978E-02 0.12500727E+03</pdfrwt>
<totfact> 0.10355375E+04</totfact>
</mgrwt>
</event>
<event>
 5    1  0.3277540E-002  0.1249967E+03  0.7818608E-02  0.1235074E+00
         -4   -1    0    0    0  501 -0.00000000000E+00  0.00000000000E+00  0.28309220889E+02  0.28337693754E+02  0.12700000000E+01 0.  1.
          4   -1    0    0  501    0  0.00000000000E+00 -0.00000000000E+00 -0.13787708915E+03  0.13788293807E+03  0.12700000000E+01 0.  1.
         25    2    1    2    0    0  0.00000000000E+00  0.00000000000E+00 -0.10956786826E+03  0.16622063183E+03  0.12499672272E+03 0.  0.
    9000005    1    3    3    0    0 -0.72921984180E+01 -0.56191711964E+02 -0.89825121405E+02  0.10620846052E+03  0.10000000000E+01 0.  0.
    9000005    1    3    3    0    0  0.72921984180E+01  0.56191711964E+02 -0.19742746852E+02  0.60012171303E+02  0.10000000000E+01 0.  0.
<mgrwt>
<rscale>  0 0.12499672E+03</rscale>
<asrwt>0</asrwt>
<pdfrwt beam="2">  1        4 0.21214500E-01 0.12499672E+03</pdfrwt>
<pdfrwt beam="1">  1       -4 0.43579050E-02 0.12499672E+03</pdfrwt>
<totfact> 0.96163801E+03</totfact>
</mgrwt>
</event>
<event>
 5    1  0.3277540E-002  0.1249968E+03  0.7818608E-02  0.1235074E+00
         -4   -1    0    0    0  501 -0.00000000000E+00  0.00000000000E+00  0.15202174878E+02  0.15255130973E+02  0.12700000000E+01 0. -1.
          4   -1    0    0  501    0  0.00000000000E+00 -0.00000000000E+00 -0.25643888104E+03  0.25644202583E+03  0.12700000000E+01 0. -1.
         25    2    1    2    0    0  0.00000000000E+00  0.00000000000E+00 -0.24123670617E+03  0.27169715680E+03  0.12499678641E+03 0.  0.
    9000005    1    3    3    0    0 -0.19433343471E+02  0.72031291180E+01  0.75248189113E+01  0.22071764932E+02  0.10000000000E+01 0.  0.
    9000005    1    3    3    0    0  0.19433343471E+02 -0.72031291180E+01 -0.24876152508E+03  0.24962539187E+03  0.10000000000E+01 0.  0.
<mgrwt>
<rscale>  0 0.12499679E+03</rscale>
<asrwt>0</asrwt>
<pdfrwt beam="2">  1        4 0.39456448E-01 0.12499679E+03</pdfrwt>
<pdfrwt beam="1">  1       -4 0.23431118E-02 0.12499679E+03</pdfrwt>
<totfact> 0.79297710E+03</totfact>
</mgrwt>
</event>
<event>
 5    1  0.3277540E-002  0.1249935E+03  0.7818608E-02  0.1235079E+00
          4   -1    0    0  501    0  0.00000000000E+00  0.00000000000E+00  0.42003614918E+02  0.42022810070E+02  0.12700000000E+01 0. -1.
         -4   -1    0    0    0  501 -0.00000000000E+00 -0.00000000000E+00 -0.92943550414E+02  0.92952226781E+02  0.12700000000E+01 0. -1.
         25    2    1    2    0    0  0.00000000000E+00  0.00000000000E+00 -0.50939935496E+02  0.13497503685E+03  0.12499353401E+03 0.  0.
    9000005    1    3    3    0    0  0.60572602967E+02  0.14937519242E+02 -0.21625289333E+02  0.66036526635E+02  0.10000000000E+01 0.  0.
    9000005    1    3    3    0    0 -0.60572602967E+02 -0.14937519242E+02 -0.29314646163E+02  0.68938510217E+02  0.10000000000E+01 0.  0.
<mgrwt>
<rscale>  0 0.12499353E+03</rscale>
<asrwt>0</asrwt>
<pdfrwt beam="1">  1        4 0.64642386E-02 0.12499353E+03</pdfrwt>
<pdfrwt beam="2">  1       -4 0.14301152E-01 0.12499353E+03</pdfrwt>
<totfact> 0.10240090E+04</totfact>
</mgrwt>
</event>
<event>
 5    1  0.3277540E-002  0.1249919E+03  0.7818608E-02  0.1235082E+00
          4   -1    0    0  501    0  0.00000000000E+00  0.00000000000E+00  0.27870434444E+02  0.27899355120E+02  0.12700000000E+01 0.  1.
         -4   -1    0    0    0  501 -0.00000000000E+00 -0.00000000000E+00 -0.14003480137E+03  0.14004056018E+03  0.12700000000E+01 0.  1.
         25    2    1    2    0    0  0.00000000000E+00  0.00000000000E+00 -0.11216436693E+03  0.16793991530E+03  0.12499187951E+03 0.  0.
    9000005    1    3    3    0    0  0.56039773626E+02 -0.25177015664E+02 -0.40738917242E+02  0.73722437045E+02  0.10000000000E+01 0.  0.
    9000005    1    3    3    0    0 -0.56039773626E+02  0.25177015664E+02 -0.71425449686E+02  0.94217478255E+02  0.10000000000E+01 0.  0.
<mgrwt>
<rscale>  0 0.12499188E+03</rscale>
<asrwt>0</asrwt>
<pdfrwt beam="1">  1        4 0.42904269E-02 0.12499188E+03</pdfrwt>
<pdfrwt beam="2">  1       -4 0.21546483E-01 0.12499188E+03</pdfrwt>
<totfact> 0.95850977E+03</totfact>
</mgrwt>
</event>
<event>
 5    1  0.3277540E-002  0.1250027E+03  0.7818608E-02  0.1235065E+00
          4   -1    0    0  501    0  0.00000000000E+00  0.00000000000E+00  0.57989870395E+01  0.59364257500E+01  0.12700000000E+01 0.  1.
         -4   -1    0    0    0  501 -0.00000000000E+00 -0.00000000000E+00 -0.66561097787E+03  0.66561218946E+03  0.12700000000E+01 0.  1.
         25    2    1    2    0    0  0.00000000000E+00  0.00000000000E+00 -0.65981199083E+03  0.67154861521E+03  0.12500271737E+03 0.  0.
    9000005    1    3    3    0    0 -0.55723636005E+02 -0.25546576291E+02 -0.26462268298E+03  0.27163194864E+03  0.10000000000E+01 0.  0.
    9000005    1    3    3    0    0  0.55723636005E+02  0.25546576291E+02 -0.39518930784E+03  0.39991666657E+03  0.10000000000E+01 0.  0.
<mgrwt>
<rscale>  0 0.12500272E+03</rscale>
<asrwt>0</asrwt>
<pdfrwt beam="1">  1        4 0.90281779E-03 0.12500272E+03</pdfrwt>
<pdfrwt beam="2">  1       -4 0.10241229E+00 0.12500272E+03</pdfrwt>
<totfact> 0.44629115E+03</totfact>
</mgrwt>
</event>
<event>
 5    1  0.3277540E-002  0.1249664E+03  0.7818608E-02  0.1235122E+00
         -4   -1    0    0    0  501 -0.00000000000E+00  0.00000000000E+00  0.61967522277E+02  0.61980534986E+02  0.12700000000E+01 0. -1.
          4   -1    0    0  501    0  0.00000000000E+00 -0.00000000000E+00 -0.62977146553E+02  0.62989950690E+02  0.12700000000E+01 0. -1.
         25    2    1    2    0    0  0.00000000000E+00  0.00000000000E+00 -0.10096242754E+01  0.12497048568E+03  0.12496640728E+03 0.  0.
    9000005    1    3    3    0    0 -0.38769893119E+02 -0.46044383749E+02 -0.17237388863E+02  0.62620423681E+02  0.10000000000E+01 0.  0.
    9000005    1    3    3    0    0  0.38769893119E+02  0.46044383749E+02  0.16227764587E+02  0.62350061995E+02  0.10000000000E+01 0.  0.
<mgrwt>
<rscale>  0 0.12496641E+03</rscale>
<asrwt>0</asrwt>
<pdfrwt beam="2">  1        4 0.96907777E-02 0.12496641E+03</pdfrwt>
<pdfrwt beam="1">  1       -4 0.95354509E-02 0.12496641E+03</pdfrwt>
<totfact> 0.10461444E+04</totfact>
</mgrwt>
</event>
<event>
 5    1  0.3277540E-002  0.1249966E+03  0.7818608E-02  0.1235075E+00
          4   -1    0    0  501    0  0.00000000000E+00  0.00000000000E+00  0.84366728110E+01  0.85317259754E+01  0.12700000000E+01 0.  1.
         -4   -1    0    0    0  501 -0.00000000000E+00 -0.00000000000E+00 -0.46029382721E+03  0.46029557924E+03  0.12700000000E+01 0.  1.
         25    2    1    2    0    0  0.00000000000E+00  0.00000000000E+00 -0.45185715440E+03  0.46882730521E+03  0.12499661649E+03 0.  0.
    9000005    1    3    3    0    0  0.56338209443E+02  0.27481120831E+01 -0.32681475723E+03  0.33164805368E+03  0.10000000000E+01 0.  0.
    9000005    1    3    3    0    0 -0.56338209443E+02 -0.27481120831E+01 -0.12504239717E+03  0.13717925154E+03  0.10000000000E+01 0.  0.
<mgrwt>
<rscale>  0 0.12499662E+03</rscale>
<asrwt>0</asrwt>
<pdfrwt beam="1">  1        4 0.13053966E-02 0.12499662E+03</pdfrwt>
<pdfrwt beam="2">  1       -4 0.70821862E-01 0.12499662E+03</pdfrwt>
<totfact> 0.58371147E+03</totfact>
</mgrwt>
</event>
<event>
 5    1  0.3277540E-002  0.1250013E+03  0.7818608E-02  0.1235067E+00
         -4   -1    0    0    0  501 -0.00000000000E+00  0.00000000000E+00  0.59209071719E+02  0.59222690532E+02  0.12700000000E+01 0. -1.
          4   -1    0    0  501    0  0.00000000000E+00 -0.00000000000E+00 -0.65947866357E+02  0.65960093823E+02  0.12700000000E+01 0. -1.
         25    2    1    2    0    0  0.00000000000E+00  0.00000000000E+00 -0.67387946386E+01  0.12518278435E+03  0.12500127258E+03 0.  0.
    9000005    1    3    3    0    0 -0.45014048029E+02  0.42014242354E+02 -0.14055808692E+02  0.63166659232E+02  0.10000000000E+01 0.  0.
    9000005    1    3    3    0    0  0.45014048029E+02 -0.42014242354E+02  0.73170140533E+01  0.62016125122E+02  0.10000000000E+01 0.  0.
<mgrwt>
<rscale>  0 0.12500127E+03</rscale>
<asrwt>0</asrwt>
<pdfrwt beam="2">  1        4 0.10147814E-01 0.12500127E+03</pdfrwt>
<pdfrwt beam="1">  1       -4 0.91110761E-02 0.12500127E+03</pdfrwt>
<totfact> 0.10448593E+04</totfact>
</mgrwt>
</event>
<event>
 5    1  0.3277540E-002  0.1249993E+03  0.7818608E-02  0.1235070E+00
         -4   -1    0    0    0  501 -0.00000000000E+00  0.00000000000E+00  0.28846133445E+03  0.28846413013E+03  0.12700000000E+01 0. -1.
          4   -1    0    0  501    0  0.00000000000E+00 -0.00000000000E+00 -0.13508876038E+02  0.13568442498E+02  0.12700000000E+01 0. -1.
         25    2    1    2    0    0  0.00000000000E+00  0.00000000000E+00  0.27495245841E+03  0.30203257263E+03  0.12499928217E+03 0.  0.
    9000005    1    3    3    0    0 -0.61106059680E+01  0.41070139421E+02  0.25032191897E+03  0.25374427870E+03  0.10000000000E+01 0.  0.
    9000005    1    3    3    0    0  0.61106059680E+01 -0.41070139421E+02  0.24630539443E+02  0.48288293929E+02  0.10000000000E+01 0.  0.
<mgrwt>
<rscale>  0 0.12499928E+03</rscale>
<asrwt>0</asrwt>
<pdfrwt beam="2">  1        4 0.20830857E-02 0.12499928E+03</pdfrwt>
<pdfrwt beam="1">  1       -4 0.44383463E-01 0.12499928E+03</pdfrwt>
<totfact> 0.75345781E+03</totfact>
</mgrwt>
</event>
<event>
 5    1  0.3277540E-002  0.1249974E+03  0.7818608E-02  0.1235073E+00
          4   -1    0    0  501    0  0.00000000000E+00  0.00000000000E+00  0.88293141235E+03  0.88293232573E+03  0.12700000000E+01 0.  1.
         -4   -1    0    0    0  501 -0.00000000000E+00 -0.00000000000E+00 -0.43319185867E+01  0.45142461876E+01  0.12700000000E+01 0.  1.
         25    2    1    2    0    0  0.00000000000E+00  0.00000000000E+00  0.87859949376E+03  0.88744657191E+03  0.12499739022E+03 0.  0.
    9000005    1    3    3    0    0 -0.74806134225E+01 -0.51592848573E+02  0.68393693249E+03  0.68592164948E+03  0.10000000000E+01 0.  0.
    9000005    1    3    3    0    0  0.74806134225E+01  0.51592848573E+02  0.19466256127E+03  0.20152492243E+03  0.10000000000E+01 0.  0.
<mgrwt>
<rscale>  0 0.12499739E+03</rscale>
<asrwt>0</asrwt>
<pdfrwt beam="1">  1        4 0.13584955E+00 0.12499739E+03</pdfrwt>
<pdfrwt beam="2">  1       -4 0.68054522E-03 0.12499739E+03</pdfrwt>
<totfact> 0.34643994E+03</totfact>
</mgrwt>
</event>
<event>
 5    1  0.3277540E-002  0.1250089E+03  0.7818608E-02  0.1235055E+00
          4   -1    0    0  501    0  0.00000000000E+00  0.00000000000E+00  0.15907772021E+03  0.15908278967E+03  0.12700000000E+01 0.  1.
         -4   -1    0    0    0  501 -0.00000000000E+00 -0.00000000000E+00 -0.24537211739E+02  0.24570056164E+02  0.12700000000E+01 0.  1.
         25    2    1    2    0    0  0.00000000000E+00  0.00000000000E+00  0.13454050847E+03  0.18365284583E+03  0.12500887713E+03 0.  0.
    9000005    1    3    3    0    0  0.29619536790E+02  0.36042552964E+02  0.12836548789E+03  0.13658360467E+03  0.10000000000E+01 0.  0.
    9000005    1    3    3    0    0 -0.29619536790E+02 -0.36042552964E+02  0.61750205812E+01  0.47069241156E+02  0.10000000000E+01 0.  0.
<mgrwt>
<rscale>  0 0.12500888E+03</rscale>
<asrwt>0</asrwt>
<pdfrwt beam="1">  1        4 0.24476411E-01 0.12500888E+03</pdfrwt>
<pdfrwt beam="2">  1       -4 0.37778722E-02 0.12500888E+03</pdfrwt>
<totfact> 0.92945087E+03</totfact>
</mgrwt>
</event>
<event>
 5    1  0.3277540E-002  0.1250005E+03  0.7818608E-02  0.1235068E+00
          4   -1    0    0  501    0  0.00000000000E+00  0.00000000000E+00  0.34034251392E+01  0.36326577981E+01  0.12700000000E+01 0.  1.
         -4   -1    0    0    0  501 -0.00000000000E+00 -0.00000000000E+00 -0.11101277469E+04  0.11101284734E+04  0.12700000000E+01 0.  1.
         25    2    1    2    0    0  0.00000000000E+00  0.00000000000E+00 -0.11067243218E+04  0.11137611311E+04  0.12500053150E+03 0.  0.
    9000005    1    3    3    0    0 -0.29633801704E+02  0.20171489129E+02 -0.97272660554E+02  0.10367266597E+03  0.10000000000E+01 0.  0.
    9000005    1    3    3    0    0  0.29633801704E+02 -0.20171489129E+02 -0.10094516612E+04  0.10100884652E+04  0.10000000000E+01 0.  0.
<mgrwt>
<rscale>  0 0.12500053E+03</rscale>
<asrwt>0</asrwt>
<pdfrwt beam="1">  1        4 0.54129391E-03 0.12500053E+03</pdfrwt>
<pdfrwt beam="2">  1       -4 0.17080629E+00 0.12500053E+03</pdfrwt>
<totfact> 0.27083837E+03</totfact>
</mgrwt>
</event>
<event>
 5    1  0.3277540E-002  0.1249988E+03  0.7818608E-02  0.1235071E+00
         -4   -1    0    0    0  501 -0.00000000000E+00  0.00000000000E+00  0.42293224467E+02  0.42312288237E+02  0.12700000000E+01 0.  1.
          4   -1    0    0  501    0  0.00000000000E+00 -0.00000000000E+00 -0.92315159482E+02  0.92323894904E+02  0.12700000000E+01 0.  1.
         25    2    1    2    0    0  0.00000000000E+00  0.00000000000E+00 -0.50021935015E+02  0.13463618314E+03  0.12499883131E+03 0.  0.
    9000005    1    3    3    0    0 -0.31798406023E+02 -0.53776048175E+02 -0.23422483386E+02  0.66727915530E+02  0.10000000000E+01 0.  0.
    9000005    1    3    3    0    0  0.31798406023E+02  0.53776048175E+02 -0.26599451628E+02  0.67908267611E+02  0.10000000000E+01 0.  0.
<mgrwt>
<rscale>  0 0.12499883E+03</rscale>
<asrwt>0</asrwt>
<pdfrwt beam="2">  1        4 0.14204471E-01 0.12499883E+03</pdfrwt>
<pdfrwt beam="1">  1       -4 0.65087884E-02 0.12499883E+03</pdfrwt>
<totfact> 0.10246015E+04</totfact>
</mgrwt>
</event>
<event>
 5    1  0.3277540E-002  0.1250014E+03  0.7818608E-02  0.1235067E+00
         -4   -1    0    0    0  501 -0.00000000000E+00  0.00000000000E+00  0.23444681920E+03  0.23445025897E+03  0.12700000000E+01 0.  1.
          4   -1    0    0  501    0  0.00000000000E+00 -0.00000000000E+00 -0.16634164085E+02  0.16682575185E+02  0.12700000000E+01 0.  1.
         25    2    1    2    0    0  0.00000000000E+00  0.00000000000E+00  0.21781265512E+03  0.25113283416E+03  0.12500139065E+03 0.  0.
    9000005    1    3    3    0    0  0.27714575041E+02  0.20230447251E+02  0.21383841417E+03  0.21657616683E+03  0.10000000000E+01 0.  0.
    9000005    1    3    3    0    0 -0.27714575041E+02 -0.20230447251E+02  0.39742409479E+01  0.34556667328E+02  0.10000000000E+01 0.  0.
<mgrwt>
<rscale>  0 0.12500139E+03</rscale>
<asrwt>0</asrwt>
<pdfrwt beam="2">  1        4 0.25630909E-02 0.12500139E+03</pdfrwt>
<pdfrwt beam="1">  1       -4 0.36072727E-01 0.12500139E+03</pdfrwt>
<totfact> 0.82164229E+03</totfact>
</mgrwt>
</event>
<event>
 5    1  0.3277540E-002  0.1250020E+03  0.7818608E-02  0.1235066E+00
         -4   -1    0    0    0  501 -0.00000000000E+00  0.00000000000E+00  0.67584509983E+03  0.67584629308E+03  0.12700000000E+01 0.  1.
          4   -1    0    0  501    0  0.00000000000E+00 -0.00000000000E+00 -0.57090123231E+01  0.58485657819E+01  0.12700000000E+01 0.  1.
         25    2    1    2    0    0  0.00000000000E+00  0.00000000000E+00  0.67013608751E+03  0.68169485886E+03  0.12500201924E+03 0.  0.
    9000005    1    3    3    0    0 -0.49632755968E+02 -0.36004923089E+02  0.40087479604E+03  0.40553836693E+03  0.10000000000E+01 0.  0.
    9000005    1    3    3    0    0  0.49632755968E+02  0.36004923089E+02  0.26926129146E+03  0.27615649192E+03  0.10000000000E+01 0.  0.
<mgrwt>
<rscale>  0 0.12500202E+03</rscale>
<asrwt>0</asrwt>
<pdfrwt beam="2">  1        4 0.88913621E-03 0.12500202E+03</pdfrwt>
<pdfrwt beam="1">  1       -4 0.10398700E+00 0.12500202E+03</pdfrwt>
<totfact> 0.44068827E+03</totfact>
</mgrwt>
</event>
<event>
 5    1  0.3277540E-002  0.1249994E+03  0.7818608E-02  0.1235070E+00
          4   -1    0    0  501    0  0.00000000000E+00  0.00000000000E+00  0.57303846995E+02  0.57317918494E+02  0.12700000000E+01 0.  1.
         -4   -1    0    0    0  501 -0.00000000000E+00 -0.00000000000E+00 -0.68138267716E+02  0.68150102182E+02  0.12700000000E+01 0.  1.
         25    2    1    2    0    0  0.00000000000E+00  0.00000000000E+00 -0.10834420721E+02  0.12546802068E+03  0.12499935816E+03 0.  0.
    9000005    1    3    3    0    0 -0.43831074930E+02 -0.27507811231E+02  0.29747941603E+02  0.59697427398E+02  0.10000000000E+01 0.  0.
    9000005    1    3    3    0    0  0.43831074930E+02  0.27507811231E+02 -0.40582362324E+02  0.65770593278E+02  0.10000000000E+01 0.  0.
<mgrwt>
<rscale>  0 0.12499936E+03</rscale>
<asrwt>0</asrwt>
<pdfrwt beam="1">  1        4 0.88179693E-02 0.12499936E+03</pdfrwt>
<pdfrwt beam="2">  1       -4 0.10484803E-01 0.12499936E+03</pdfrwt>
<totfact> 0.10442812E+04</totfact>
</mgrwt>
</event>
<event>
 5    1  0.3277540E-002  0.1249998E+03  0.7818608E-02  0.1235070E+00
          4   -1    0    0  501    0  0.00000000000E+00  0.00000000000E+00  0.61150471394E+01  0.62455345262E+01  0.12700000000E+01 0. -1.
         -4   -1    0    0    0  501 -0.00000000000E+00 -0.00000000000E+00 -0.63191606001E+03  0.63191733621E+03  0.12700000000E+01 0. -1.
         25    2    1    2    0    0  0.00000000000E+00  0.00000000000E+00 -0.62580101287E+03  0.63816287074E+03  0.12499976749E+03 0.  0.
    9000005    1    3    3    0    0  0.10782517442E+01  0.58581907293E+02 -0.42384365430E+03  0.42787550266E+03  0.10000000000E+01 0.  0.
    9000005    1    3    3    0    0 -0.10782517442E+01 -0.58581907293E+02 -0.20195735857E+03  0.21028736807E+03  0.10000000000E+01 0.  0.
<mgrwt>
<rscale>  0 0.12499977E+03</rscale>
<asrwt>0</asrwt>
<pdfrwt beam="1">  1        4 0.95091264E-03 0.12499977E+03</pdfrwt>
<pdfrwt beam="2">  1       -4 0.97227940E-01 0.12499977E+03</pdfrwt>
<totfact> 0.46544216E+03</totfact>
</mgrwt>
</event>
<event>
 5    1  0.3277540E-002  0.1250029E+03  0.7818608E-02  0.1235065E+00
          4   -1    0    0  501    0  0.00000000000E+00  0.00000000000E+00  0.36492248030E+03  0.36492469021E+03  0.12700000000E+01 0. -1.
         -4   -1    0    0    0  501 -0.00000000000E+00 -0.00000000000E+00 -0.10664909262E+02  0.10740260218E+02  0.12700000000E+01 0. -1.
         25    2    1    2    0    0  0.00000000000E+00  0.00000000000E+00  0.35425757104E+03  0.37566495043E+03  0.12500291335E+03 0.  0.
    9000005    1    3    3    0    0  0.49410771611E+02  0.26239988624E+02  0.93440774160E+02  0.10891345018E+03  0.10000000000E+01 0.  0.
    9000005    1    3    3    0    0 -0.49410771611E+02 -0.26239988624E+02  0.26081679688E+03  0.26675150025E+03  0.10000000000E+01 0.  0.
<mgrwt>
<rscale>  0 0.12500291E+03</rscale>
<asrwt>0</asrwt>
<pdfrwt beam="1">  1        4 0.56147881E-01 0.12500291E+03</pdfrwt>
<pdfrwt beam="2">  1       -4 0.16467216E-02 0.12500291E+03</pdfrwt>
<totfact> 0.66986100E+03</totfact>
</mgrwt>
</event>
<event>
 5    1  0.3277540E-002  0.1249968E+03  0.7818608E-02  0.1235074E+00
          4   -1    0    0  501    0  0.00000000000E+00  0.00000000000E+00  0.50948278021E+01  0.52507304571E+01  0.12700000000E+01 0. -1.
         -4   -1    0    0    0  501 -0.00000000000E+00 -0.00000000000E+00 -0.75496014085E+03  0.75496120905E+03  0.12700000000E+01 0. -1.
         25    2    1    2    0    0  0.00000000000E+00  0.00000000000E+00 -0.74986531305E+03  0.76021193951E+03  0.12499682099E+03 0.  0.
    9000005    1    3    3    0    0  0.16103713056E+02  0.32909281905E+02 -0.68281492614E+03  0.68379790419E+03  0.10000000000E+01 0.  0.
    9000005    1    3    3    0    0 -0.16103713056E+02 -0.32909281905E+02 -0.67050386906E+02  0.76414035321E+02  0.10000000000E+01 0.  0.
<mgrwt>
<rscale>  0 0.12499682E+03</rscale>
<asrwt>0</asrwt>
<pdfrwt beam="1">  1        4 0.79589494E-03 0.12499682E+03</pdfrwt>
<pdfrwt beam="2">  1       -4 0.11615970E+00 0.12499682E+03</pdfrwt>
<totfact> 0.40093212E+03</totfact>
</mgrwt>
</event>
<event>
 4    1  0.3277540E-002  0.1249256E+03  0.7818608E-02  0.1235186E+00
          4   -1    0    0  501    0  0.00000000000E+00  0.00000000000E+00  0.17007266771E+03  0.17007740944E+03  0.12700000000E+01 0.  1.
         -4   -1    0    0    0  501 -0.00000000000E+00 -0.00000000000E+00 -0.22918139461E+02  0.22953300772E+02  0.12700000000E+01 0.  1.
    9000005    1    1    2    0    0 -0.41712277051E+02  0.45432592668E+02  0.58393274114E+02  0.84940031758E+02  0.10000000000E+01 0.  0.
    9000005    1    1    2    0    0  0.41712277051E+02 -0.45432592668E+02  0.88761254139E+02  0.10809067846E+03  0.10000000000E+01 0.  0.
<mgrwt>
<rscale>  0 0.12492558E+03</rscale>
<asrwt>0</asrwt>
<pdfrwt beam="1">  1        4 0.26168095E-01 0.12492558E+03</pdfrwt>
<pdfrwt beam="2">  1       -4 0.35289370E-02 0.12492558E+03</pdfrwt>
<totfact> 0.91475000E+03</totfact>
</mgrwt>
</event>
<event>
 5    1  0.3277540E-002  0.1249748E+03  0.7818608E-02  0.1235109E+00
          4   -1    0    0  501    0  0.00000000000E+00  0.00000000000E+00  0.45864924323E+02  0.45882504108E+02  0.12700000000E+01 0.  1.
         -4   -1    0    0    0  501 -0.00000000000E+00 -0.00000000000E+00 -0.85095626295E+02  0.85105102753E+02  0.12700000000E+01 0.  1.
         25    2    1    2    0    0  0.00000000000E+00  0.00000000000E+00 -0.39230701972E+02  0.13098760686E+03  0.12497481816E+03 0.  0.
    9000005    1    3    3    0    0 -0.40273416523E+02  0.20290088692E+02 -0.64939869801E+02  0.79068466960E+02  0.10000000000E+01 0.  0.
    9000005    1    3    3    0    0  0.40273416523E+02 -0.20290088692E+02  0.25709167829E+02  0.51919139901E+02  0.10000000000E+01 0.  0.
<mgrwt>
<rscale>  0 0.12497482E+03</rscale>
<asrwt>0</asrwt>
<pdfrwt beam="1">  1        4 0.70582234E-02 0.12497482E+03</pdfrwt>
<pdfrwt beam="2">  1       -4 0.13093716E-01 0.12497482E+03</pdfrwt>
<totfact> 0.10329222E+04</totfact>
</mgrwt>
</event>
<event>
 5    1  0.3277540E-002  0.1249971E+03  0.7818608E-02  0.1235074E+00
         -4   -1    0    0    0  501 -0.00000000000E+00  0.00000000000E+00  0.47586237476E+03  0.47586406947E+03  0.12700000000E+01 0.  1.
          4   -1    0    0  501    0  0.00000000000E+00 -0.00000000000E+00 -0.81575557419E+01  0.82558231378E+01  0.12700000000E+01 0.  1.
         25    2    1    2    0    0  0.00000000000E+00  0.00000000000E+00  0.46770481902E+03  0.48411989261E+03  0.12499709071E+03 0.  0.
    9000005    1    3    3    0    0 -0.51256005600E+02  0.19511647230E+02  0.34986207934E+03  0.35413607138E+03  0.10000000000E+01 0.  0.
    9000005    1    3    3    0    0  0.51256005600E+02 -0.19511647230E+02  0.11784273967E+03  0.12998382123E+03  0.10000000000E+01 0.  0.
<mgrwt>
<rscale>  0 0.12499709E+03</rscale>
<asrwt>0</asrwt>
<pdfrwt beam="2">  1        4 0.12626974E-02 0.12499709E+03</pdfrwt>
<pdfrwt beam="1">  1       -4 0.73217321E-01 0.12499709E+03</pdfrwt>
<totfact> 0.57121503E+03</totfact>
</mgrwt>
</event>
<event>
 5    1  0.3277540E-002  0.1249967E+03  0.7818608E-02  0.1235074E+00
          4   -1    0    0  501    0  0.00000000000E+00  0.00000000000E+00  0.56219888780E+02  0.56234231518E+02  0.12700000000E+01 0. -1.
         -4   -1    0    0    0  501 -0.00000000000E+00 -0.00000000000E+00 -0.69448978305E+02  0.69460589456E+02  0.12700000000E+01 0. -1.
         25    2    1    2    0    0  0.00000000000E+00  0.00000000000E+00 -0.13229089524E+02  0.12569482097E+03  0.12499671680E+03 0.  0.
    9000005    1    3    3    0    0 -0.39099418497E+02 -0.30791738653E+02  0.31387376532E+02  0.58847796064E+02  0.10000000000E+01 0.  0.
    9000005    1    3    3    0    0  0.39099418497E+02  0.30791738653E+02 -0.44616466056E+02  0.66847024910E+02  0.10000000000E+01 0.  0.
<mgrwt>
<rscale>  0 0.12499672E+03</rscale>
<asrwt>0</asrwt>
<pdfrwt beam="1">  1        4 0.86512101E-02 0.12499672E+03</pdfrwt>
<pdfrwt beam="2">  1       -4 0.10686455E-01 0.12499672E+03</pdfrwt>
<totfact> 0.10438431E+04</totfact>
</mgrwt>
</event>
<event>
 5    1  0.3277540E-002  0.1250092E+03  0.7818608E-02  0.1235055E+00
         -4   -1    0    0    0  501 -0.00000000000E+00  0.00000000000E+00  0.14828654074E+03  0.14829197910E+03  0.12700000000E+01 0. -1.
          4   -1    0    0  501    0  0.00000000000E+00 -0.00000000000E+00 -0.26325233077E+02  0.26355849380E+02  0.12700000000E+01 0. -1.
         25    2    1    2    0    0  0.00000000000E+00  0.00000000000E+00  0.12196130766E+03  0.17464782848E+03  0.12500921336E+03 0.  0.
    9000005    1    3    3    0    0  0.46427169121E+02 -0.85422941053E+01  0.11819909163E+03  0.12728109869E+03  0.10000000000E+01 0.  0.
    9000005    1    3    3    0    0 -0.46427169121E+02  0.85422941053E+01  0.37622160304E+01  0.47366729786E+02  0.10000000000E+01 0.  0.
<mgrwt>
<rscale>  0 0.12500921E+03</rscale>
<asrwt>0</asrwt>
<pdfrwt beam="2">  1        4 0.40528092E-02 0.12500921E+03</pdfrwt>
<pdfrwt beam="1">  1       -4 0.22816088E-01 0.12500921E+03</pdfrwt>
<totfact> 0.94569830E+03</totfact>
</mgrwt>
</event>
<event>
 5    1  0.3277540E-002  0.1249993E+03  0.7818608E-02  0.1235070E+00
          4   -1    0    0  501    0  0.00000000000E+00  0.00000000000E+00  0.57497501207E+01  0.58883381739E+01  0.12700000000E+01 0.  1.
         -4   -1    0    0    0  501 -0.00000000000E+00 -0.00000000000E+00 -0.67114019539E+03  0.67114139700E+03  0.12700000000E+01 0.  1.
         25    2    1    2    0    0  0.00000000000E+00  0.00000000000E+00 -0.66539044527E+03  0.67702973518E+03  0.12499927062E+03 0.  0.
    9000005    1    3    3    0    0 -0.11458927216E+02 -0.23450970574E+02 -0.25160348406E+02  0.36267039660E+02  0.10000000000E+01 0.  0.
    9000005    1    3    3    0    0  0.11458927216E+02  0.23450970574E+02 -0.64023009687E+03  0.64076269552E+03  0.10000000000E+01 0.  0.
<mgrwt>
<rscale>  0 0.12499927E+03</rscale>
<asrwt>0</asrwt>
<pdfrwt beam="1">  1        4 0.89533052E-03 0.12499927E+03</pdfrwt>
<pdfrwt beam="2">  1       -4 0.10326303E+00 0.12499927E+03</pdfrwt>
<totfact> 0.44328050E+03</totfact>
</mgrwt>
</event>
<event>
 5    1  0.3277540E-002  0.1249987E+03  0.7818608E-02  0.1235071E+00
         -4   -1    0    0    0  501 -0.00000000000E+00  0.00000000000E+00  0.69610783585E+02  0.69622367751E+02  0.12700000000E+01 0. -1.
          4   -1    0    0  501    0  0.00000000000E+00 -0.00000000000E+00 -0.56090970807E+02  0.56105346501E+02  0.12700000000E+01 0. -1.
         25    2    1    2    0    0  0.00000000000E+00  0.00000000000E+00  0.13519812778E+02  0.12572771425E+03  0.12499869117E+03 0.  0.
    9000005    1    3    3    0    0 -0.53243877757E+02  0.12827306998E+02 -0.23510762937E+02  0.59608777016E+02  0.10000000000E+01 0.  0.
    9000005    1    3    3    0    0  0.53243877757E+02 -0.12827306998E+02  0.37030575715E+02  0.66118937236E+02  0.10000000000E+01 0.  0.
<mgrwt>
<rscale>  0 0.12499869E+03</rscale>
<asrwt>0</asrwt>
<pdfrwt beam="2">  1        4 0.86313770E-02 0.12499869E+03</pdfrwt>
<pdfrwt beam="1">  1       -4 0.10711348E-01 0.12499869E+03</pdfrwt>
<totfact> 0.10437243E+04</totfact>
</mgrwt>
</event>
<event>
 5    1  0.3277540E-002  0.1249863E+03  0.7818608E-02  0.1235091E+00
         -4   -1    0    0    0  501 -0.00000000000E+00  0.00000000000E+00  0.29524212798E+01  0.32139837295E+01  0.12700000000E+01 0. -1.
          4   -1    0    0  501    0  0.00000000000E+00 -0.00000000000E+00 -0.12664062845E+04  0.12664069213E+04  0.12700000000E+01 0. -1.
         25    2    1    2    0    0  0.00000000000E+00  0.00000000000E+00 -0.12634538632E+04  0.12696209050E+04  0.12498631128E+03 0.  0.
    9000005    1    3    3    0    0  0.49919175408E+02  0.37528752858E+02 -0.61125106212E+03  0.61443404228E+03  0.10000000000E+01 0.  0.
    9000005    1    3    3    0    0 -0.49919175408E+02 -0.37528752858E+02 -0.65220280111E+03  0.65518686276E+03  0.10000000000E+01 0.  0.
<mgrwt>
<rscale>  0 0.12498631E+03</rscale>
<asrwt>0</asrwt>
<pdfrwt beam="2">  1        4 0.19485149E+00 0.12498631E+03</pdfrwt>
<pdfrwt beam="1">  1       -4 0.47438884E-03 0.12498631E+03</pdfrwt>
<totfact> 0.22963990E+03</totfact>
</mgrwt>
</event>
<event>
 5    1  0.3277540E-002  0.1250037E+03  0.7818608E-02  0.1235064E+00
         -4   -1    0    0    0  501 -0.00000000000E+00  0.00000000000E+00  0.11230994684E+02  0.11302572344E+02  0.12700000000E+01 0.  1.
          4   -1    0    0  501    0  0.00000000000E+00 -0.00000000000E+00 -0.34665254550E+03  0.34665487188E+03  0.12700000000E+01 0.  1.
         25    2    1    2    0    0  0.00000000000E+00  0.00000000000E+00 -0.33542155081E+03  0.35795744423E+03  0.12500366045E+03 0.  0.
    9000005    1    3    3    0    0  0.25340612370E+02  0.56392690083E+02 -0.19383007891E+03  0.20345363506E+03  0.10000000000E+01 0.  0.
    9000005    1    3    3    0    0 -0.25340612370E+02 -0.56392690083E+02 -0.14159147190E+03  0.15450380916E+03  0.10000000000E+01 0.  0.
<mgrwt>
<rscale>  0 0.12500366E+03</rscale>
<asrwt>0</asrwt>
<pdfrwt beam="2">  1        4 0.53336838E-01 0.12500366E+03</pdfrwt>
<pdfrwt beam="1">  1       -4 0.17335305E-02 0.12500366E+03</pdfrwt>
<totfact> 0.68852349E+03</totfact>
</mgrwt>
</event>
<event>
 5    1  0.3277540E-002  0.1250009E+03  0.7818608E-02  0.1235068E+00
         -4   -1    0    0    0  501 -0.00000000000E+00  0.00000000000E+00  0.26764832108E+02  0.26794946124E+02  0.12700000000E+01 0.  1.
          4   -1    0    0  501    0  0.00000000000E+00 -0.00000000000E+00 -0.14583425016E+03  0.14583977996E+03  0.12700000000E+01 0.  1.
         25    2    1    2    0    0  0.00000000000E+00  0.00000000000E+00 -0.11906941805E+03  0.17263472609E+03  0.12500088934E+03 0.  0.
    9000005    1    3    3    0    0  0.50902539519E+02  0.74171307566E+01 -0.10854264588E+03  0.12011905899E+03  0.10000000000E+01 0.  0.
    9000005    1    3    3    0    0 -0.50902539519E+02 -0.74171307566E+01 -0.10526772171E+02  0.52515667095E+02  0.10000000000E+01 0.  0.
<mgrwt>
<rscale>  0 0.12500089E+03</rscale>
<asrwt>0</asrwt>
<pdfrwt beam="2">  1        4 0.22438780E-01 0.12500089E+03</pdfrwt>
<pdfrwt beam="1">  1       -4 0.41204084E-02 0.12500089E+03</pdfrwt>
<totfact> 0.94957934E+03</totfact>
</mgrwt>
</event>
<event>
 5    1  0.3277540E-002  0.1250104E+03  0.7818608E-02  0.1235053E+00
         -4   -1    0    0    0  501 -0.00000000000E+00  0.00000000000E+00  0.27969523685E+02  0.27998342007E+02  0.12700000000E+01 0.  1.
          4   -1    0    0  501    0  0.00000000000E+00 -0.00000000000E+00 -0.13958058125E+03  0.13958635879E+03  0.12700000000E+01 0.  1.
         25    2    1    2    0    0  0.00000000000E+00  0.00000000000E+00 -0.11161105756E+03  0.16758470080E+03  0.12501041466E+03 0.  0.
    9000005    1    3    3    0    0  0.29235689583E+02  0.87379154273E+01 -0.12892260688E+03  0.13248817033E+03  0.10000000000E+01 0.  0.
    9000005    1    3    3    0    0 -0.29235689583E+02 -0.87379154273E+01  0.17311549320E+02  0.35096530473E+02  0.10000000000E+01 0.  0.
<mgrwt>
<rscale>  0 0.12501041E+03</rscale>
<asrwt>0</asrwt>
<pdfrwt beam="2">  1        4 0.21476596E-01 0.12501041E+03</pdfrwt>
<pdfrwt beam="1">  1       -4 0.43056650E-02 0.12501041E+03</pdfrwt>
<totfact> 0.95877691E+03</totfact>
</mgrwt>
</event>
<event>
 5    1  0.3277540E-002  0.1250013E+03  0.7818608E-02  0.1235067E+00
          4   -1    0    0  501    0  0.00000000000E+00  0.00000000000E+00  0.41056195756E+02  0.41075833649E+02  0.12700000000E+01 0. -1.
         -4   -1    0    0    0  501 -0.00000000000E+00 -0.00000000000E+00 -0.95099324901E+02  0.95107804604E+02  0.12700000000E+01 0. -1.
         25    2    1    2    0    0  0.00000000000E+00  0.00000000000E+00 -0.54043129145E+02  0.13618363825E+03  0.12500129407E+03 0.  0.
    9000005    1    3    3    0    0 -0.12131182392E+02  0.15655208438E+02  0.37551950415E+02  0.42466458734E+02  0.10000000000E+01 0.  0.
    9000005    1    3    3    0    0  0.12131182392E+02 -0.15655208438E+02 -0.91595079560E+02  0.93717179519E+02  0.10000000000E+01 0.  0.
<mgrwt>
<rscale>  0 0.12500129E+03</rscale>
<asrwt>0</asrwt>
<pdfrwt beam="1">  1        4 0.63185007E-02 0.12500129E+03</pdfrwt>
<pdfrwt beam="2">  1       -4 0.14632828E-01 0.12500129E+03</pdfrwt>
<totfact> 0.10212885E+04</totfact>
</mgrwt>
</event>
<event>
 5    1  0.3277540E-002  0.1249954E+03  0.7818608E-02  0.1235076E+00
          4   -1    0    0  501    0  0.00000000000E+00  0.00000000000E+00  0.50095995593E+03  0.50096156574E+03  0.12700000000E+01 0. -1.
         -4   -1    0    0    0  501 -0.00000000000E+00 -0.00000000000E+00 -0.77436102176E+01  0.78470630940E+01  0.12700000000E+01 0. -1.
         25    2    1    2    0    0  0.00000000000E+00  0.00000000000E+00  0.49321634572E+03  0.50880862883E+03  0.12499542830E+03 0.  0.
    9000005    1    3    3    0    0 -0.58389307316E+02 -0.17859321031E+02  0.30071795785E+03  0.30685592178E+03  0.10000000000E+01 0.  0.
    9000005    1    3    3    0    0  0.58389307316E+02  0.17859321031E+02  0.19249838786E+03  0.20195270705E+03  0.10000000000E+01 0.  0.
<mgrwt>
<rscale>  0 0.12499543E+03</rscale>
<asrwt>0</asrwt>
<pdfrwt beam="1">  1        4 0.77078827E-01 0.12499543E+03</pdfrwt>
<pdfrwt beam="2">  1       -4 0.11994067E-02 0.12499543E+03</pdfrwt>
<totfact> 0.55192898E+03</totfact>
</mgrwt>
</event>
<event>
 5    1  0.3277540E-002  0.1249991E+03  0.7818608E-02  0.1235071E+00
          4   -1    0    0  501    0  0.00000000000E+00  0.00000000000E+00  0.22662056263E+02  0.22697614281E+02  0.12700000000E+01 0.  1.
         -4   -1    0    0    0  501 -0.00000000000E+00 -0.00000000000E+00 -0.17219408956E+03  0.17219877287E+03  0.12700000000E+01 0.  1.
         25    2    1    2    0    0  0.00000000000E+00  0.00000000000E+00 -0.14953203329E+03  0.19489638715E+03  0.12499909097E+03 0.  0.
    9000005    1    3    3    0    0  0.53294970722E+02 -0.32606330843E+02 -0.76778794140E+02  0.98992474184E+02  0.10000000000E+01 0.  0.
    9000005    1    3    3    0    0 -0.53294970722E+02  0.32606330843E+02 -0.72753239153E+02  0.95903912968E+02  0.10000000000E+01 0.  0.
<mgrwt>
<rscale>  0 0.12499909E+03</rscale>
<asrwt>0</asrwt>
<pdfrwt beam="1">  1        4 0.34895658E-02 0.12499909E+03</pdfrwt>
<pdfrwt beam="2">  1       -4 0.26494493E-01 0.12499909E+03</pdfrwt>
<totfact> 0.91004123E+03</totfact>
</mgrwt>
</event>
<event>
 5    1  0.3277540E-002  0.1249984E+03  0.7818608E-02  0.1235072E+00
          4   -1    0    0  501    0  0.00000000000E+00  0.00000000000E+00  0.57344927305E+03  0.57345067936E+03  0.12700000000E+01 0.  1.
         -4   -1    0    0    0  501 -0.00000000000E+00 -0.00000000000E+00 -0.67510476318E+01  0.68694646172E+01  0.12700000000E+01 0.  1.
         25    2    1    2    0    0  0.00000000000E+00  0.00000000000E+00  0.56669822541E+03  0.58032014398E+03  0.12499836326E+03 0.  0.
    9000005    1    3    3    0    0 -0.43944973467E+02  0.35162979164E+02  0.40943300720E+03  0.41328438536E+03  0.10000000000E+01 0.  0.
    9000005    1    3    3    0    0  0.43944973467E+02 -0.35162979164E+02  0.15726521821E+03  0.16703575862E+03  0.10000000000E+01 0.  0.
<mgrwt>
<rscale>  0 0.12499836E+03</rscale>
<asrwt>0</asrwt>
<pdfrwt beam="1">  1        4 0.88232212E-01 0.12499836E+03</pdfrwt>
<pdfrwt beam="2">  1       -4 0.10478395E-02 0.12499836E+03</pdfrwt>
<totfact> 0.50135686E+03</totfact>
</mgrwt>
</event>
<event>
 5    1  0.3277540E-002  0.1249993E+03  0.7818608E-02  0.1235070E+00
         -4   -1    0    0    0  501 -0.00000000000E+00  0.00000000000E+00  0.59516705680E+03  0.59516841179E+03  0.12700000000E+01 0. -1.
          4   -1    0    0  501    0  0.00000000000E+00 -0.00000000000E+00 -0.65003985407E+01  0.66232983616E+01  0.12700000000E+01 0. -1.
         25    2    1    2    0    0  0.00000000000E+00  0.00000000000E+00  0.58866665826E+03  0.60179171015E+03  0.12499931147E+03 0.  0.
    9000005    1    3    3    0    0 -0.42482683040E+02  0.45379261656E+02  0.32521707281E+03  0.33110602561E+03  0.10000000000E+01 0.  0.
    9000005    1    3    3    0    0  0.42482683040E+02 -0.45379261656E+02  0.26344958545E+03  0.27068568455E+03  0.10000000000E+01 0.  0.
<mgrwt>
<rscale>  0 0.12499931E+03</rscale>
<asrwt>0</asrwt>
<pdfrwt beam="2">  1        4 0.10096191E-02 0.12499931E+03</pdfrwt>
<pdfrwt beam="1">  1       -4 0.91573743E-01 0.12499931E+03</pdfrwt>
<totfact> 0.48755434E+03</totfact>
</mgrwt>
</event>
<event>
 5    1  0.3277540E-002  0.1250007E+03  0.7818608E-02  0.1235068E+00
          4   -1    0    0  501    0  0.00000000000E+00  0.00000000000E+00  0.13981326029E+03  0.13981902823E+03  0.12700000000E+01 0.  1.
         -4   -1    0    0    0  501 -0.00000000000E+00 -0.00000000000E+00 -0.27918567487E+02  0.27947438354E+02  0.12700000000E+01 0.  1.
         25    2    1    2    0    0  0.00000000000E+00  0.00000000000E+00  0.11189469281E+03  0.16776646658E+03  0.12500066012E+03 0.  0.
    9000005    1    3    3    0    0 -0.49270097676E+02  0.31624083218E+02  0.26614442576E+02  0.64319155141E+02  0.10000000000E+01 0.  0.
    9000005    1    3    3    0    0  0.49270097676E+02 -0.31624083218E+02  0.85280250231E+02  0.10344731144E+03  0.10000000000E+01 0.  0.
<mgrwt>
<rscale>  0 0.12500066E+03</rscale>
<asrwt>0</asrwt>
<pdfrwt beam="1">  1        4 0.21512397E-01 0.12500066E+03</pdfrwt>
<pdfrwt beam="2">  1       -4 0.42978288E-02 0.12500066E+03</pdfrwt>
<totfact> 0.95864596E+03</totfact>
</mgrwt>
</event>
<event>
 5    1  0.3277540E-002  0.1249996E+03  0.7818608E-02  0.1235070E+00
          4   -1    0    0  501    0  0.00000000000E+00  0.00000000000E+00  0.25386160882E+02  0.25417908339E+02  0.12700000000E+01 0. -1.
         -4   -1    0    0    0  501 -0.00000000000E+00 -0.00000000000E+00 -0.15374159320E+03  0.15374683860E+03  0.12700000000E+01 0. -1.
         25    2    1    2    0    0  0.00000000000E+00  0.00000000000E+00 -0.12835543232E+03  0.17916474694E+03  0.12499955816E+03 0.  0.
    9000005    1    3    3    0    0  0.26170839276E+02 -0.12912965632E+02 -0.14338181521E+03  0.14632498913E+03  0.10000000000E+01 0.  0.
    9000005    1    3    3    0    0 -0.26170839276E+02  0.12912965632E+02  0.15026382898E+02  0.32839757807E+02  0.10000000000E+01 0.  0.
<mgrwt>
<rscale>  0 0.12499956E+03</rscale>
<asrwt>0</asrwt>
<pdfrwt beam="1">  1        4 0.39084089E-02 0.12499956E+03</pdfrwt>
<pdfrwt beam="2">  1       -4 0.23655398E-01 0.12499956E+03</pdfrwt>
<totfact> 0.93768497E+03</totfact>
</mgrwt>
</event>
<event>
 5    1  0.3277540E-002  0.1249994E+03  0.7818608E-02  0.1235070E+00
         -4   -1    0    0    0  501 -0.00000000000E+00  0.00000000000E+00  0.56032355176E+03  0.56032499102E+03  0.12700000000E+01 0.  1.
          4   -1    0    0  501    0  0.00000000000E+00 -0.00000000000E+00 -0.69120456017E+01  0.70277503086E+01  0.12700000000E+01 0.  1.
         25    2    1    2    0    0  0.00000000000E+00  0.00000000000E+00  0.55341150616E+03  0.56735274133E+03  0.12499935176E+03 0.  0.
    9000005    1    3    3    0    0  0.40408488789E+02 -0.29360741450E+02  0.10625349927E+03  0.11741254282E+03  0.10000000000E+01 0.  0.
    9000005    1    3    3    0    0 -0.40408488789E+02  0.29360741450E+02  0.44715800689E+03  0.44994019850E+03  0.10000000000E+01 0.  0.
<mgrwt>
<rscale>  0 0.12499935E+03</rscale>
<asrwt>0</asrwt>
<pdfrwt beam="2">  1        4 0.10724029E-02 0.12499935E+03</pdfrwt>
<pdfrwt beam="1">  1       -4 0.86212621E-01 0.12499935E+03</pdfrwt>
<totfact> 0.50996181E+03</totfact>
</mgrwt>
</event>
<event>
 5    1  0.3277540E-002  0.1250031E+03  0.7818608E-02  0.1235064E+00
          4   -1    0    0  501    0  0.00000000000E+00  0.00000000000E+00  0.12223266440E+02  0.12289065972E+02  0.12700000000E+01 0.  1.
         -4   -1    0    0    0  501 -0.00000000000E+00 -0.00000000000E+00 -0.31866591667E+03  0.31866844736E+03  0.12700000000E+01 0.  1.
         25    2    1    2    0    0  0.00000000000E+00  0.00000000000E+00 -0.30644265023E+03  0.33095751334E+03  0.12500311098E+03 0.  0.
    9000005    1    3    3    0    0  0.27499719887E+02 -0.12037513084E+02 -0.81025315185E+01  0.31109280482E+02  0.10000000000E+01 0.  0.
    9000005    1    3    3    0    0 -0.27499719887E+02  0.12037513084E+02 -0.29834011871E+03  0.29984823285E+03  0.10000000000E+01 0.  0.
<mgrwt>
<rscale>  0 0.12500311E+03</rscale>
<asrwt>0</asrwt>
<pdfrwt beam="1">  1        4 0.18857589E-02 0.12500311E+03</pdfrwt>
<pdfrwt beam="2">  1       -4 0.49030776E-01 0.12500311E+03</pdfrwt>
<totfact> 0.71866602E+03</totfact>
</mgrwt>
</event>
<event>
 5    1  0.3277540E-002  0.1250012E+03  0.7818608E-02  0.1235067E+00
          4   -1    0    0  501    0  0.00000000000E+00  0.00000000000E+00  0.93556247007E+01  0.94414306935E+01  0.12700000000E+01 0.  1.
         -4   -1    0    0    0  501 -0.00000000000E+00 -0.00000000000E+00 -0.41554458801E+03  0.41554652871E+03  0.12700000000E+01 0.  1.
         25    2    1    2    0    0  0.00000000000E+00  0.00000000000E+00 -0.40618896331E+03  0.42498795940E+03  0.12500116689E+03 0.  0.
    9000005    1    3    3    0    0  0.37191403533E+02 -0.49024264436E+02 -0.16604618292E+03  0.17708448227E+03  0.10000000000E+01 0.  0.
    9000005    1    3    3    0    0 -0.37191403533E+02  0.49024264436E+02 -0.24014278039E+03  0.24790347713E+03  0.10000000000E+01 0.  0.
<mgrwt>
<rscale>  0 0.12500117E+03</rscale>
<asrwt>0</asrwt>
<pdfrwt beam="1">  1        4 0.14460769E-02 0.12500117E+03</pdfrwt>
<pdfrwt beam="2">  1       -4 0.63936672E-01 0.12500117E+03</pdfrwt>
<totfact> 0.62191350E+03</totfact>
</mgrwt>
</event>
<event>
 5    1  0.3277540E-002  0.1249992E+03  0.7818608E-02  0.1235071E+00
         -4   -1    0    0    0  501 -0.00000000000E+00  0.00000000000E+00  0.80655908317E+02  0.80665906345E+02  0.12700000000E+01 0. -1.
          4   -1    0    0  501    0  0.00000000000E+00 -0.00000000000E+00 -0.48409110461E+02  0.48425766649E+02  0.12700000000E+01 0. -1.
         25    2    1    2    0    0  0.00000000000E+00  0.00000000000E+00  0.32246797857E+02  0.12909167299E+03  0.12499921626E+03 0.  0.
    9000005    1    3    3    0    0 -0.38111839099E+02  0.10133860234E+02  0.66187253032E+02  0.77051670110E+02  0.10000000000E+01 0.  0.
    9000005    1    3    3    0    0  0.38111839099E+02 -0.10133860234E+02 -0.33940455175E+02  0.52040002885E+02  0.10000000000E+01 0.  0.
<mgrwt>
<rscale>  0 0.12499922E+03</rscale>
<asrwt>0</asrwt>
<pdfrwt beam="2">  1        4 0.74496058E-02 0.12499922E+03</pdfrwt>
<pdfrwt beam="1">  1       -4 0.12410652E-01 0.12499922E+03</pdfrwt>
<totfact> 0.10364161E+04</totfact>
</mgrwt>
</event>
<event>
 5    1  0.3277540E-002  0.1250003E+03  0.7818608E-02  0.1235069E+00
         -4   -1    0    0    0  501 -0.00000000000E+00  0.00000000000E+00  0.11571100210E+04  0.11571107180E+04  0.12700000000E+01 0. -1.
          4   -1    0    0  501    0  0.00000000000E+00 -0.00000000000E+00 -0.32557181042E+01  0.34946531121E+01  0.12700000000E+01 0. -1.
         25    2    1    2    0    0  0.00000000000E+00  0.00000000000E+00  0.11538543029E+04  0.11606053711E+04  0.12500030013E+03 0.  0.
    9000005    1    3    3    0    0  0.14077407812E+02 -0.15827635051E+02  0.11228068077E+04  0.11230070413E+04  0.10000000000E+01 0.  0.
    9000005    1    3    3    0    0 -0.14077407812E+02  0.15827635051E+02  0.31047495242E+02  0.37598329788E+02  0.10000000000E+01 0.  0.
<mgrwt>
<rscale>  0 0.12500030E+03</rscale>
<asrwt>0</asrwt>
<pdfrwt beam="2">  1        4 0.51931307E-03 0.12500030E+03</pdfrwt>
<pdfrwt beam="1">  1       -4 0.17803531E+00 0.12500030E+03</pdfrwt>
<totfact> 0.25767639E+03</totfact>
</mgrwt>
</event>
<event>
 5    1  0.3277540E-002  0.1250009E+03  0.7818608E-02  0.1235068E+00
          4   -1    0    0  501    0  0.00000000000E+00  0.00000000000E+00  0.48190890169E+01  0.49836250815E+01  0.12700000000E+01 0. -1.
         -4   -1    0    0    0  501 -0.00000000000E+00 -0.00000000000E+00 -0.79681928330E+03  0.79682029539E+03  0.12700000000E+01 0. -1.
         25    2    1    2    0    0  0.00000000000E+00  0.00000000000E+00 -0.79200019428E+03  0.80180392047E+03  0.12500087653E+03 0.  0.
    9000005    1    3    3    0    0 -0.53752854411E+01  0.57252626142E+02 -0.55292958914E+03  0.55591266170E+03  0.10000000000E+01 0.  0.
    9000005    1    3    3    0    0  0.53752854411E+01 -0.57252626142E+02 -0.23907060514E+03  0.24589125876E+03  0.10000000000E+01 0.  0.
<mgrwt>
<rscale>  0 0.12500088E+03</rscale>
<asrwt>0</asrwt>
<pdfrwt beam="1">  1        4 0.75413342E-03 0.12500088E+03</pdfrwt>
<pdfrwt beam="2">  1       -4 0.12260021E+00 0.12500088E+03</pdfrwt>
<totfact> 0.38183617E+03</totfact>
</mgrwt>
</event>
<event>
 5    1  0.3277540E-002  0.1249972E+03  0.7818608E-02  0.1235074E+00
          4   -1    0    0  501    0  0.00000000000E+00  0.00000000000E+00  0.13922656310E+03  0.13923235534E+03  0.12700000000E+01 0. -1.
         -4   -1    0    0    0  501 -0.00000000000E+00 -0.00000000000E+00 -0.28034779371E+02  0.28063530683E+02  0.12700000000E+01 0. -1.
         25    2    1    2    0    0  0.00000000000E+00  0.00000000000E+00  0.11119178373E+03  0.16729588602E+03  0.12499720281E+03 0.  0.
    9000005    1    3    3    0    0 -0.42647770354E+02  0.45675145546E+02  0.55388803700E+02  0.83510303628E+02  0.10000000000E+01 0.  0.
    9000005    1    3    3    0    0  0.42647770354E+02 -0.45675145546E+02  0.55802980032E+02  0.83785582395E+02  0.10000000000E+01 0.  0.
<mgrwt>
<rscale>  0 0.12499720E+03</rscale>
<asrwt>0</asrwt>
<pdfrwt beam="1">  1        4 0.21422129E-01 0.12499720E+03</pdfrwt>
<pdfrwt beam="2">  1       -4 0.43157001E-02 0.12499720E+03</pdfrwt>
<totfact> 0.95960374E+03</totfact>
</mgrwt>
</event>
<event>
 5    1  0.3277540E-002  0.1249989E+03  0.7818608E-02  0.1235071E+00
          4   -1    0    0  501    0  0.00000000000E+00  0.00000000000E+00  0.12765000670E+02  0.12828021753E+02  0.12700000000E+01 0. -1.
         -4   -1    0    0    0  501 -0.00000000000E+00 -0.00000000000E+00 -0.30518905364E+03  0.30519169609E+03  0.12700000000E+01 0. -1.
         25    2    1    2    0    0  0.00000000000E+00  0.00000000000E+00 -0.29242405297E+03  0.31801971785E+03  0.12499885672E+03 0.  0.
    9000005    1    3    3    0    0 -0.38434592602E+02  0.18643464935E+02 -0.30168869498E+02  0.52306379918E+02  0.10000000000E+01 0.  0.
    9000005    1    3    3    0    0  0.38434592602E+02 -0.18643464935E+02 -0.26225518347E+03  0.26571333793E+03  0.10000000000E+01 0.  0.
<mgrwt>
<rscale>  0 0.12499886E+03</rscale>
<asrwt>0</asrwt>
<pdfrwt beam="1">  1        4 0.19688975E-02 0.12499886E+03</pdfrwt>
<pdfrwt beam="2">  1       -4 0.46957208E-01 0.12499886E+03</pdfrwt>
<totfact> 0.73394136E+03</totfact>
</mgrwt>
</event>
<event>
 5    1  0.3277540E-002  0.1249978E+03  0.7818608E-02  0.1235073E+00
          4   -1    0    0  501    0  0.00000000000E+00  0.00000000000E+00  0.17126990508E+03  0.17127461367E+03  0.12700000000E+01 0.  1.
         -4   -1    0    0    0  501 -0.00000000000E+00 -0.00000000000E+00 -0.22784050788E+02  0.22819418711E+02  0.12700000000E+01 0.  1.
         25    2    1    2    0    0  0.00000000000E+00  0.00000000000E+00  0.14848585429E+03  0.19409403238E+03  0.12499777790E+03 0.  0.
    9000005    1    3    3    0    0 -0.54494125701E+02  0.25268517475E+02  0.10100320430E+03  0.11751916860E+03  0.10000000000E+01 0.  0.
    9000005    1    3    3    0    0  0.54494125701E+02 -0.25268517475E+02  0.47482649999E+02  0.76574863775E+02  0.10000000000E+01 0.  0.
<mgrwt>
<rscale>  0 0.12499778E+03</rscale>
<asrwt>0</asrwt>
<pdfrwt beam="1">  1        4 0.26352299E-01 0.12499778E+03</pdfrwt>
<pdfrwt beam="2">  1       -4 0.35083214E-02 0.12499778E+03</pdfrwt>
<totfact> 0.91144340E+03</totfact>
</mgrwt>
</event>
<event>
 5    1  0.3277540E-002  0.1249906E+03  0.7818608E-02  0.1235084E+00
          4   -1    0    0  501    0  0.00000000000E+00  0.00000000000E+00  0.36259806224E+01  0.38419572452E+01  0.12700000000E+01 0. -1.
         -4   -1    0    0    0  501 -0.00000000000E+00 -0.00000000000E+00 -0.10457655137E+04  0.10457662849E+04  0.12700000000E+01 0. -1.
         25    2    1    2    0    0  0.00000000000E+00  0.00000000000E+00 -0.10421395331E+04  0.10496082421E+04  0.12499062159E+03 0.  0.
    9000005    1    3    3    0    0 -0.46752050591E+01 -0.59174779318E+02 -0.35712452930E+03  0.36202547075E+03  0.10000000000E+01 0.  0.
    9000005    1    3    3    0    0  0.46752050591E+01  0.59174779318E+02 -0.68501500380E+03  0.68758277137E+03  0.10000000000E+01 0.  0.
<mgrwt>
<rscale>  0 0.12499062E+03</rscale>
<asrwt>0</asrwt>
<pdfrwt beam="1">  1        4 0.57451691E-03 0.12499062E+03</pdfrwt>
<pdfrwt beam="2">  1       -4 0.16090344E+00 0.12499062E+03</pdfrwt>
<totfact> 0.29012983E+03</totfact>
</mgrwt>
</event>
<event>
 5    1  0.3277540E-002  0.1249966E+03  0.7818608E-02  0.1235075E+00
         -4   -1    0    0    0  501 -0.00000000000E+00  0.00000000000E+00  0.59602544721E+03  0.59602680025E+03  0.12700000000E+01 0.  1.
          4   -1    0    0  501    0  0.00000000000E+00 -0.00000000000E+00 -0.64905734993E+01  0.66136558990E+01  0.12700000000E+01 0.  1.
         25    2    1    2    0    0  0.00000000000E+00  0.00000000000E+00  0.58953487371E+03  0.60264045615E+03  0.12499660824E+03 0.  0.
    9000005    1    3    3    0    0  0.50305019664E+02 -0.23201325276E+02  0.15535550373E+03  0.16494007711E+03  0.10000000000E+01 0.  0.
    9000005    1    3    3    0    0 -0.50305019664E+02  0.23201325276E+02  0.43417936998E+03  0.43770037904E+03  0.10000000000E+01 0.  0.
<mgrwt>
<rscale>  0 0.12499661E+03</rscale>
<asrwt>0</asrwt>
<pdfrwt beam="2">  1        4 0.10081210E-02 0.12499661E+03</pdfrwt>
<pdfrwt beam="1">  1       -4 0.91705858E-01 0.12499661E+03</pdfrwt>
<totfact> 0.48704956E+03</totfact>
</mgrwt>
</event>
<event>
 5    1  0.3277540E-002  0.1249981E+03  0.7818608E-02  0.1235072E+00
          4   -1    0    0  501    0  0.00000000000E+00  0.00000000000E+00  0.74051668363E+01  0.75132812987E+01  0.12700000000E+01 0. -1.
         -4   -1    0    0    0  501 -0.00000000000E+00 -0.00000000000E+00 -0.52355538646E+03  0.52355692679E+03  0.12700000000E+01 0. -1.
         25    2    1    2    0    0  0.00000000000E+00  0.00000000000E+00 -0.51615021962E+03  0.53107020809E+03  0.12499806680E+03 0.  0.
    9000005    1    3    3    0    0  0.21017446579E+01  0.40799647972E+02 -0.57168461254E+02  0.70272765475E+02  0.10000000000E+01 0.  0.
    9000005    1    3    3    0    0 -0.21017446579E+01 -0.40799647972E+02 -0.45898175837E+03  0.46079744262E+03  0.10000000000E+01 0.  0.
<mgrwt>
<rscale>  0 0.12499807E+03</rscale>
<asrwt>0</asrwt>
<pdfrwt beam="1">  1        4 0.11476918E-02 0.12499807E+03</pdfrwt>
<pdfrwt beam="2">  1       -4 0.80555389E-01 0.12499807E+03</pdfrwt>
<totfact> 0.53534077E+03</totfact>
</mgrwt>
</event>
<event>
 5    1  0.3277540E-002  0.1250029E+03  0.7818608E-02  0.1235065E+00
         -4   -1    0    0    0  501 -0.00000000000E+00  0.00000000000E+00  0.11568242192E+03  0.11568939295E+03  0.12700000000E+01 0. -1.
          4   -1    0    0  501    0  0.00000000000E+00 -0.00000000000E+00 -0.33748660401E+02  0.33772547710E+02  0.12700000000E+01 0. -1.
         25    2    1    2    0    0  0.00000000000E+00  0.00000000000E+00  0.81933761520E+02  0.14946194066E+03  0.12500292168E+03 0.  0.
    9000005    1    3    3    0    0  0.29747342460E+02 -0.11927159577E+01  0.10666449651E+03  0.11074584313E+03  0.10000000000E+01 0.  0.
    9000005    1    3    3    0    0 -0.29747342460E+02  0.11927159577E+01 -0.24730734991E+02  0.38716097531E+02  0.10000000000E+01 0.  0.
<mgrwt>
<rscale>  0 0.12500292E+03</rscale>
<asrwt>0</asrwt>
<pdfrwt beam="2">  1        4 0.51944754E-02 0.12500292E+03</pdfrwt>
<pdfrwt beam="1">  1       -4 0.17799669E-01 0.12500292E+03</pdfrwt>
<totfact> 0.99404523E+03</totfact>
</mgrwt>
</event>
<event>
 5    1  0.3277540E-002  0.1249997E+03  0.7818608E-02  0.1235070E+00
          4   -1    0    0  501    0  0.00000000000E+00  0.00000000000E+00  0.80225629038E+01  0.81224636377E+01  0.12700000000E+01 0. -1.
         -4   -1    0    0    0  501 -0.00000000000E+00 -0.00000000000E+00 -0.48379173917E+03  0.48379340610E+03  0.12700000000E+01 0. -1.
         25    2    1    2    0    0  0.00000000000E+00  0.00000000000E+00 -0.47576917626E+03  0.49191586974E+03  0.12499965527E+03 0.  0.
    9000005    1    3    3    0    0  0.54631549844E+02  0.29543601432E+02 -0.26509192983E+03  0.27227222019E+03  0.10000000000E+01 0.  0.
    9000005    1    3    3    0    0 -0.54631549844E+02 -0.29543601432E+02 -0.21067724643E+03  0.21964364955E+03  0.10000000000E+01 0.  0.
<mgrwt>
<rscale>  0 0.12499966E+03</rscale>
<asrwt>0</asrwt>
<pdfrwt beam="1">  1        4 0.12420537E-02 0.12499966E+03</pdfrwt>
<pdfrwt beam="2">  1       -4 0.74437289E-01 0.12499966E+03</pdfrwt>
<totfact> 0.56497534E+03</totfact>
</mgrwt>
</event>
<event>
 5    1  0.3277540E-002  0.1250008E+03  0.7818608E-02  0.1235068E+00
          4   -1    0    0  501    0  0.00000000000E+00  0.00000000000E+00  0.18680358654E+02  0.18723479897E+02  0.12700000000E+01 0.  1.
         -4   -1    0    0    0  501 -0.00000000000E+00 -0.00000000000E+00 -0.20882672000E+03  0.20883058178E+03  0.12700000000E+01 0.  1.
         25    2    1    2    0    0  0.00000000000E+00  0.00000000000E+00 -0.19014636134E+03  0.22755406167E+03  0.12500084900E+03 0.  0.
    9000005    1    3    3    0    0 -0.18641308892E+02  0.38941245210E+02 -0.12823543362E+02  0.45048443259E+02  0.10000000000E+01 0.  0.
    9000005    1    3    3    0    0  0.18641308892E+02 -0.38941245210E+02 -0.17732281798E+03  0.18250561841E+03  0.10000000000E+01 0.  0.
<mgrwt>
<rscale>  0 0.12500085E+03</rscale>
<asrwt>0</asrwt>
<pdfrwt beam="1">  1        4 0.28775156E-02 0.12500085E+03</pdfrwt>
<pdfrwt beam="2">  1       -4 0.32130800E-01 0.12500085E+03</pdfrwt>
<totfact> 0.85684971E+03</totfact>
</mgrwt>
</event>
<event>
 5    1  0.3277540E-002  0.1250036E+03  0.7818608E-02  0.1235064E+00
         -4   -1    0    0    0  501 -0.00000000000E+00  0.00000000000E+00  0.68394255851E+01  0.69563382849E+01  0.12700000000E+01 0. -1.
          4   -1    0    0  501    0  0.00000000000E+00 -0.00000000000E+00 -0.56621244392E+03  0.56621386820E+03  0.12700000000E+01 0. -1.
         25    2    1    2    0    0  0.00000000000E+00  0.00000000000E+00 -0.55937301833E+03  0.57317020649E+03  0.12500364782E+03 0.  0.
    9000005    1    3    3    0    0 -0.47398847650E+02  0.38530881254E+02 -0.21916872321E+03  0.22752408400E+03  0.10000000000E+01 0.  0.
    9000005    1    3    3    0    0  0.47398847650E+02 -0.38530881254E+02 -0.34020429513E+03  0.34564612249E+03  0.10000000000E+01 0.  0.
<mgrwt>
<rscale>  0 0.12500365E+03</rscale>
<asrwt>0</asrwt>
<pdfrwt beam="2">  1        4 0.87118673E-01 0.12500365E+03</pdfrwt>
<pdfrwt beam="1">  1       -4 0.10613226E-02 0.12500365E+03</pdfrwt>
<totfact> 0.50602160E+03</totfact>
</mgrwt>
</event>
<event>
 5    1  0.3277540E-002  0.1249978E+03  0.7818608E-02  0.1235073E+00
         -4   -1    0    0    0  501 -0.00000000000E+00  0.00000000000E+00  0.25640635077E+02  0.25672067839E+02  0.12700000000E+01 0. -1.
          4   -1    0    0  501    0  0.00000000000E+00 -0.00000000000E+00 -0.15221332526E+03  0.15221862333E+03  0.12700000000E+01 0. -1.
         25    2    1    2    0    0  0.00000000000E+00  0.00000000000E+00 -0.12657269019E+03  0.17789069117E+03  0.12499780839E+03 0.  0.
    9000005    1    3    3    0    0  0.14332987066E+02  0.29513514714E+02  0.12403735731E+02  0.35090379438E+02  0.10000000000E+01 0.  0.
    9000005    1    3    3    0    0 -0.14332987066E+02 -0.29513514714E+02 -0.13897642592E+03  0.14280031173E+03  0.10000000000E+01 0.  0.
<mgrwt>
<rscale>  0 0.12499781E+03</rscale>
<asrwt>0</asrwt>
<pdfrwt beam="2">  1        4 0.23420260E-01 0.12499781E+03</pdfrwt>
<pdfrwt beam="1">  1       -4 0.39475386E-02 0.12499781E+03</pdfrwt>
<totfact> 0.94002690E+03</totfact>
</mgrwt>
</event>
<event>
 5    1  0.3277540E-002  0.1249960E+03  0.7818608E-02  0.1235075E+00
         -4   -1    0    0    0  501 -0.00000000000E+00  0.00000000000E+00  0.67315216152E+01  0.68502761445E+01  0.12700000000E+01 0.  1.
          4   -1    0    0  501    0  0.00000000000E+00 -0.00000000000E+00 -0.57506253123E+03  0.57506393359E+03  0.12700000000E+01 0.  1.
         25    2    1    2    0    0  0.00000000000E+00  0.00000000000E+00 -0.56833100961E+03  0.58191420974E+03  0.12499604398E+03 0.  0.
    9000005    1    3    3    0    0 -0.61303912578E+02  0.57742772186E+01 -0.23456992405E+03  0.24251919768E+03  0.10000000000E+01 0.  0.
    9000005    1    3    3    0    0  0.61303912578E+02 -0.57742772186E+01 -0.33376108556E+03  0.33939501206E+03  0.10000000000E+01 0.  0.
<mgrwt>
<rscale>  0 0.12499604E+03</rscale>
<asrwt>0</asrwt>
<pdfrwt beam="2">  1        4 0.88480363E-01 0.12499604E+03</pdfrwt>
<pdfrwt beam="1">  1       -4 0.10448620E-02 0.12499604E+03</pdfrwt>
<totfact> 0.50033865E+03</totfact>
</mgrwt>
</event>
<event>
 5    1  0.3277540E-002  0.1249966E+03  0.7818608E-02  0.1235075E+00
         -4   -1    0    0    0  501 -0.00000000000E+00  0.00000000000E+00  0.67748363557E+03  0.67748482593E+03  0.12700000000E+01 0. -1.
          4   -1    0    0  501    0  0.00000000000E+00 -0.00000000000E+00 -0.56943571957E+01  0.58342612105E+01  0.12700000000E+01 0. -1.
         25    2    1    2    0    0  0.00000000000E+00  0.00000000000E+00  0.67178927838E+03  0.68331908714E+03  0.12499656120E+03 0.  0.
    9000005    1    3    3    0    0  0.44630493797E+02 -0.42201568866E+02  0.27304379268E+03  0.27986919464E+03  0.10000000000E+01 0.  0.
    9000005    1    3    3    0    0 -0.44630493797E+02  0.42201568866E+02  0.39874548570E+03  0.40344989250E+03  0.10000000000E+01 0.  0.
<mgrwt>
<rscale>  0 0.12499656E+03</rscale>
<asrwt>0</asrwt>
<pdfrwt beam="2">  1        4 0.88690852E-03 0.12499656E+03</pdfrwt>
<pdfrwt beam="1">  1       -4 0.10423909E+00 0.12499656E+03</pdfrwt>
<totfact> 0.43985325E+03</totfact>
</mgrwt>
</event>
<event>
 5    1  0.3277540E-002  0.1250014E+03  0.7818608E-02  0.1235067E+00
         -4   -1    0    0    0  501 -0.00000000000E+00  0.00000000000E+00  0.30192719370E+02  0.30219417647E+02  0.12700000000E+01 0. -1.
          4   -1    0    0  501    0  0.00000000000E+00 -0.00000000000E+00 -0.12929303000E+03  0.12929926724E+03  0.12700000000E+01 0. -1.
         25    2    1    2    0    0  0.00000000000E+00  0.00000000000E+00 -0.99100310634E+02  0.15951868488E+03  0.12500135703E+03 0.  0.
    9000005    1    3    3    0    0 -0.38920574479E+02 -0.12704703369E+02 -0.10980097961E+03  0.11718991308E+03  0.10000000000E+01 0.  0.
    9000005    1    3    3    0    0  0.38920574479E+02  0.12704703369E+02  0.10700668975E+02  0.42328771799E+02  0.10000000000E+01 0.  0.
<mgrwt>
<rscale>  0 0.12500136E+03</rscale>
<asrwt>0</asrwt>
<pdfrwt beam="2">  1        4 0.19893769E-01 0.12500136E+03</pdfrwt>
<pdfrwt beam="1">  1       -4 0.46475673E-02 0.12500136E+03</pdfrwt>
<totfact> 0.97432687E+03</totfact>
</mgrwt>
</event>
<event>
 5    1  0.3277540E-002  0.1249995E+03  0.7818608E-02  0.1235070E+00
         -4   -1    0    0    0  501 -0.00000000000E+00  0.00000000000E+00  0.42478099931E+03  0.42478289781E+03  0.12700000000E+01 0.  1.
          4   -1    0    0  501    0  0.00000000000E+00 -0.00000000000E+00 -0.91500596369E+01  0.92377752386E+01  0.12700000000E+01 0.  1.
         25    2    1    2    0    0  0.00000000000E+00  0.00000000000E+00  0.41563093967E+03  0.43402067305E+03  0.12499946649E+03 0.  0.
    9000005    1    3    3    0    0 -0.43140432002E+02  0.44933184139E+02  0.19040992345E+03  0.20034227427E+03  0.10000000000E+01 0.  0.
    9000005    1    3    3    0    0  0.43140432002E+02 -0.44933184139E+02  0.22522101622E+03  0.23367839878E+03  0.10000000000E+01 0.  0.
<mgrwt>
<rscale>  0 0.12499947E+03</rscale>
<asrwt>0</asrwt>
<pdfrwt beam="2">  1        4 0.14145949E-02 0.12499947E+03</pdfrwt>
<pdfrwt beam="1">  1       -4 0.65357814E-01 0.12499947E+03</pdfrwt>
<totfact> 0.61373947E+03</totfact>
</mgrwt>
</event>
<event>
 5    1  0.3277540E-002  0.1249978E+03  0.7818608E-02  0.1235073E+00
          4   -1    0    0  501    0  0.00000000000E+00  0.00000000000E+00  0.19817194514E+02  0.19857847275E+02  0.12700000000E+01 0. -1.
         -4   -1    0    0    0  501 -0.00000000000E+00 -0.00000000000E+00 -0.19686250568E+03  0.19686660215E+03  0.12700000000E+01 0. -1.
         25    2    1    2    0    0  0.00000000000E+00  0.00000000000E+00 -0.17704531116E+03  0.21672444942E+03  0.12499777907E+03 0.  0.
    9000005    1    3    3    0    0 -0.92968790287E-01  0.19252761384E+02  0.14555237554E+02  0.24156415387E+02  0.10000000000E+01 0.  0.
    9000005    1    3    3    0    0  0.92968790287E-01 -0.19252761384E+02 -0.19160054872E+03  0.19256803404E+03  0.10000000000E+01 0.  0.
<mgrwt>
<rscale>  0 0.12499778E+03</rscale>
<asrwt>0</asrwt>
<pdfrwt beam="1">  1        4 0.30522415E-02 0.12499778E+03</pdfrwt>
<pdfrwt beam="2">  1       -4 0.30289980E-01 0.12499778E+03</pdfrwt>
<totfact> 0.87393668E+03</totfact>
</mgrwt>
</event>
<event>
 5    1  0.3277540E-002  0.1250061E+03  0.7818608E-02  0.1235060E+00
          4   -1    0    0  501    0  0.00000000000E+00  0.00000000000E+00  0.11361381867E+03  0.11362091662E+03  0.12700000000E+01 0. -1.
         -4   -1    0    0    0  501 -0.00000000000E+00 -0.00000000000E+00 -0.34365298954E+02  0.34388757933E+02  0.12700000000E+01 0. -1.
         25    2    1    2    0    0  0.00000000000E+00  0.00000000000E+00  0.79248519717E+02  0.14800967455E+03  0.12500614338E+03 0.  0.
    9000005    1    3    3    0    0  0.13992562830E+02  0.37966902477E+02 -0.16767337857E+02  0.43811198535E+02  0.10000000000E+01 0.  0.
    9000005    1    3    3    0    0 -0.13992562830E+02 -0.37966902477E+02  0.96015857574E+02  0.10419847602E+03  0.10000000000E+01 0.  0.
<mgrwt>
<rscale>  0 0.12500614E+03</rscale>
<asrwt>0</asrwt>
<pdfrwt beam="1">  1        4 0.17481399E-01 0.12500614E+03</pdfrwt>
<pdfrwt beam="2">  1       -4 0.52893197E-02 0.12500614E+03</pdfrwt>
<totfact> 0.99688142E+03</totfact>
</mgrwt>
</event>
<event>
 5    1  0.3277540E-002  0.1249932E+03  0.7818608E-02  0.1235080E+00
          4   -1    0    0  501    0  0.00000000000E+00  0.00000000000E+00  0.22858330111E+02  0.22893583281E+02  0.12700000000E+01 0. -1.
         -4   -1    0    0    0  501 -0.00000000000E+00 -0.00000000000E+00 -0.17070174942E+03  0.17070647368E+03  0.12700000000E+01 0. -1.
         25    2    1    2    0    0  0.00000000000E+00  0.00000000000E+00 -0.14784341931E+03  0.19360005696E+03  0.12499322150E+03 0.  0.
    9000005    1    3    3    0    0 -0.37691260418E+02  0.42807164895E+02 -0.34379873446E+02  0.66603754973E+02  0.10000000000E+01 0.  0.
    9000005    1    3    3    0    0  0.37691260418E+02 -0.42807164895E+02 -0.11346354587E+03  0.12699630199E+03  0.10000000000E+01 0.  0.
<mgrwt>
<rscale>  0 0.12499322E+03</rscale>
<asrwt>0</asrwt>
<pdfrwt beam="1">  1        4 0.35197415E-02 0.12499322E+03</pdfrwt>
<pdfrwt beam="2">  1       -4 0.26264882E-01 0.12499322E+03</pdfrwt>
<totfact> 0.91238511E+03</totfact>
</mgrwt>
</event>
<event>
 5    1  0.3277540E-002  0.1250022E+03  0.7818608E-02  0.1235066E+00
          4   -1    0    0  501    0  0.00000000000E+00  0.00000000000E+00  0.15857985072E+02  0.15908758296E+02  0.12700000000E+01 0.  1.
         -4   -1    0    0    0  501 -0.00000000000E+00 -0.00000000000E+00 -0.24588954278E+03  0.24589282248E+03  0.12700000000E+01 0.  1.
         25    2    1    2    0    0  0.00000000000E+00  0.00000000000E+00 -0.23003155770E+03  0.26180158078E+03  0.12500220061E+03 0.  0.
    9000005    1    3    3    0    0  0.36749630559E+02 -0.50462073981E+02 -0.12109714885E+03  0.13624417682E+03  0.10000000000E+01 0.  0.
    9000005    1    3    3    0    0 -0.36749630559E+02  0.50462073981E+02 -0.10893440885E+03  0.12555740396E+03  0.10000000000E+01 0.  0.
<mgrwt>
<rscale>  0 0.12500220E+03</rscale>
<asrwt>0</asrwt>
<pdfrwt beam="1">  1        4 0.24438481E-02 0.12500220E+03</pdfrwt>
<pdfrwt beam="2">  1       -4 0.37833315E-01 0.12500220E+03</pdfrwt>
<totfact> 0.80649949E+03</totfact>
</mgrwt>
</event>
<event>
 5    1  0.3277540E-002  0.1249875E+03  0.7818608E-02  0.1235089E+00
          4   -1    0    0  501    0  0.00000000000E+00  0.00000000000E+00  0.39340735581E+01  0.41339853362E+01  0.12700000000E+01 0.  1.
         -4   -1    0    0    0  501 -0.00000000000E+00 -0.00000000000E+00 -0.96793017775E+03  0.96793101092E+03  0.12700000000E+01 0.  1.
         25    2    1    2    0    0  0.00000000000E+00  0.00000000000E+00 -0.96399610420E+03  0.97206499626E+03  0.12498747156E+03 0.  0.
    9000005    1    3    3    0    0  0.34911183787E+02 -0.51557359150E+02 -0.44120244579E+03  0.44557552694E+03  0.10000000000E+01 0.  0.
    9000005    1    3    3    0    0 -0.34911183787E+02  0.51557359150E+02 -0.52279365841E+03  0.52648946932E+03  0.10000000000E+01 0.  0.
<mgrwt>
<rscale>  0 0.12498747E+03</rscale>
<asrwt>0</asrwt>
<pdfrwt beam="1">  1        4 0.62068478E-03 0.12498747E+03</pdfrwt>
<pdfrwt beam="2">  1       -4 0.14892759E+00 0.12498747E+03</pdfrwt>
<totfact> 0.31553968E+03</totfact>
</mgrwt>
</event>
<event>
 5    1  0.3277540E-002  0.1249979E+03  0.7818608E-02  0.1235073E+00
          4   -1    0    0  501    0  0.00000000000E+00  0.00000000000E+00  0.82317628421E+03  0.82317726389E+03  0.12700000000E+01 0.  1.
         -4   -1    0    0    0  501 -0.00000000000E+00 -0.00000000000E+00 -0.46592021163E+01  0.48291887891E+01  0.12700000000E+01 0.  1.
         25    2    1    2    0    0  0.00000000000E+00  0.00000000000E+00  0.81851708209E+03  0.82800645268E+03  0.12499788798E+03 0.  0.
    9000005    1    3    3    0    0 -0.28573854444E+02  0.24288715309E+02  0.74038133177E+03  0.74133118327E+03  0.10000000000E+01 0.  0.
    9000005    1    3    3    0    0  0.28573854444E+02 -0.24288715309E+02  0.78135750322E+02  0.86675269411E+02  0.10000000000E+01 0.  0.
<mgrwt>
<rscale>  0 0.12499789E+03</rscale>
<asrwt>0</asrwt>
<pdfrwt beam="1">  1        4 0.12665554E+00 0.12499789E+03</pdfrwt>
<pdfrwt beam="2">  1       -4 0.72995224E-03 0.12499789E+03</pdfrwt>
<totfact> 0.37046335E+03</totfact>
</mgrwt>
</event>
<event>
 4    1  0.3277540E-002  0.1247390E+03  0.7818608E-02  0.1235478E+00
         -4   -1    0    0    0  501 -0.00000000000E+00  0.00000000000E+00  0.52336783483E+02  0.52352190072E+02  0.12700000000E+01 0.  1.
          4   -1    0    0  501    0  0.00000000000E+00 -0.00000000000E+00 -0.74293679211E+02  0.74304533312E+02  0.12700000000E+01 0.  1.
    9000005    1    1    2    0    0 -0.59707978996E+02 -0.12157086970E+01 -0.29210964864E+02  0.66489105662E+02  0.10000000000E+01 0.  0.
    9000005    1    1    2    0    0  0.59707978996E+02  0.12157086970E+01  0.72540691360E+01  0.60167617723E+02  0.10000000000E+01 0.  0.
<mgrwt>
<rscale>  0 0.12473901E+03</rscale>
<asrwt>0</asrwt>
<pdfrwt beam="2">  1        4 0.11431817E-01 0.12473901E+03</pdfrwt>
<pdfrwt beam="1">  1       -4 0.80538329E-02 0.12473901E+03</pdfrwt>
<totfact> 0.10478219E+04</totfact>
</mgrwt>
</event>
<event>
 5    1  0.3277540E-002  0.1249981E+03  0.7818608E-02  0.1235072E+00
         -4   -1    0    0    0  501 -0.00000000000E+00  0.00000000000E+00  0.12054235167E+03  0.12054904167E+03  0.12700000000E+01 0.  1.
          4   -1    0    0  501    0  0.00000000000E+00 -0.00000000000E+00 -0.32384605493E+02  0.32409498190E+02  0.12700000000E+01 0.  1.
         25    2    1    2    0    0  0.00000000000E+00  0.00000000000E+00  0.88157746178E+02  0.15295853986E+03  0.12499810680E+03 0.  0.
    9000005    1    3    3    0    0  0.39526843828E+02  0.38620593915E+02  0.83771927513E+01  0.55902585054E+02  0.10000000000E+01 0.  0.
    9000005    1    3    3    0    0 -0.39526843828E+02 -0.38620593915E+02  0.79780553427E+02  0.97055954802E+02  0.10000000000E+01 0.  0.
<mgrwt>
<rscale>  0 0.12499811E+03</rscale>
<asrwt>0</asrwt>
<pdfrwt beam="2">  1        4 0.49846765E-02 0.12499811E+03</pdfrwt>
<pdfrwt beam="1">  1       -4 0.18547406E-01 0.12499811E+03</pdfrwt>
<totfact> 0.98721398E+03</totfact>
</mgrwt>
</event>
<event>
 5    1  0.3277540E-002  0.1249985E+03  0.7818608E-02  0.1235072E+00
         -4   -1    0    0    0  501 -0.00000000000E+00  0.00000000000E+00  0.11385067296E+02  0.11455682316E+02  0.12700000000E+01 0. -1.
          4   -1    0    0  501    0  0.00000000000E+00 -0.00000000000E+00 -0.34196238175E+03  0.34196474004E+03  0.12700000000E+01 0. -1.
         25    2    1    2    0    0  0.00000000000E+00  0.00000000000E+00 -0.33057731446E+03  0.35342042236E+03  0.12499853642E+03 0.  0.
    9000005    1    3    3    0    0  0.39718983525E+02  0.32251251021E+02 -0.63839966050E+02  0.81818592691E+02  0.10000000000E+01 0.  0.
    9000005    1    3    3    0    0 -0.39718983525E+02 -0.32251251021E+02 -0.26673734841E+03  0.27160182967E+03  0.10000000000E+01 0.  0.
<mgrwt>
<rscale>  0 0.12499854E+03</rscale>
<asrwt>0</asrwt>
<pdfrwt beam="2">  1        4 0.52615203E-01 0.12499854E+03</pdfrwt>
<pdfrwt beam="1">  1       -4 0.17571624E-02 0.12499854E+03</pdfrwt>
<totfact> 0.69352149E+03</totfact>
</mgrwt>
</event>
<event>
 5    1  0.3277540E-002  0.1250018E+03  0.7818608E-02  0.1235066E+00
         -4   -1    0    0    0  501 -0.00000000000E+00  0.00000000000E+00  0.10352446561E+03  0.10353225526E+03  0.12700000000E+01 0. -1.
          4   -1    0    0  501    0  0.00000000000E+00 -0.00000000000E+00 -0.37713803443E+02  0.37735180802E+02  0.12700000000E+01 0. -1.
         25    2    1    2    0    0  0.00000000000E+00  0.00000000000E+00  0.65810662167E+02  0.14126743606E+03  0.12500178094E+03 0.  0.
    9000005    1    3    3    0    0 -0.39292846573E+02  0.31965065910E+02 -0.84588534646E+01  0.51363853364E+02  0.10000000000E+01 0.  0.
    9000005    1    3    3    0    0  0.39292846573E+02 -0.31965065910E+02  0.74269515631E+02  0.89903582701E+02  0.10000000000E+01 0.  0.
<mgrwt>
<rscale>  0 0.12500178E+03</rscale>
<asrwt>0</asrwt>
<pdfrwt beam="2">  1        4 0.58043673E-02 0.12500178E+03</pdfrwt>
<pdfrwt beam="1">  1       -4 0.15929084E-01 0.12500178E+03</pdfrwt>
<totfact> 0.10106979E+04</totfact>
</mgrwt>
</event>
<event>
 5    1  0.3277540E-002  0.1250037E+03  0.7818608E-02  0.1235063E+00
         -4   -1    0    0    0  501 -0.00000000000E+00  0.00000000000E+00  0.40729642540E+02  0.40749437805E+02  0.12700000000E+01 0. -1.
          4   -1    0    0  501    0  0.00000000000E+00 -0.00000000000E+00 -0.95865183256E+02  0.95873595222E+02  0.12700000000E+01 0. -1.
         25    2    1    2    0    0  0.00000000000E+00  0.00000000000E+00 -0.55135540717E+02  0.13662303303E+03  0.12500370116E+03 0.  0.
    9000005    1    3    3    0    0 -0.36668520333E+02  0.31338370136E+02 -0.70995351541E+02  0.85837135126E+02  0.10000000000E+01 0.  0.
    9000005    1    3    3    0    0  0.36668520333E+02 -0.31338370136E+02  0.15859810824E+02  0.50785897901E+02  0.10000000000E+01 0.  0.
<mgrwt>
<rscale>  0 0.12500370E+03</rscale>
<asrwt>0</asrwt>
<pdfrwt beam="2">  1        4 0.14750659E-01 0.12500370E+03</pdfrwt>
<pdfrwt beam="1">  1       -4 0.62682687E-02 0.12500370E+03</pdfrwt>
<totfact> 0.10203122E+04</totfact>
</mgrwt>
</event>
<event>
 5    1  0.3277540E-002  0.1249985E+03  0.7818608E-02  0.1235072E+00
         -4   -1    0    0    0  501 -0.00000000000E+00  0.00000000000E+00  0.11378296751E+03  0.11379005491E+03  0.12700000000E+01 0. -1.
          4   -1    0    0  501    0  0.00000000000E+00 -0.00000000000E+00 -0.34309956120E+02  0.34333452913E+02  0.12700000000E+01 0. -1.
         25    2    1    2    0    0  0.00000000000E+00  0.00000000000E+00  0.79473011395E+02  0.14812350782E+03  0.12499845611E+03 0.  0.
    9000005    1    3    3    0    0  0.10168279383E+02  0.59765393237E+02  0.57702388361E+02  0.83701026021E+02  0.10000000000E+01 0.  0.
    9000005    1    3    3    0    0 -0.10168279383E+02 -0.59765393237E+02  0.21770623034E+02  0.64422481803E+02  0.10000000000E+01 0.  0.
<mgrwt>
<rscale>  0 0.12499846E+03</rscale>
<asrwt>0</asrwt>
<pdfrwt beam="2">  1        4 0.52808075E-02 0.12499846E+03</pdfrwt>
<pdfrwt beam="1">  1       -4 0.17507424E-01 0.12499846E+03</pdfrwt>
<totfact> 0.99682536E+03</totfact>
</mgrwt>
</event>
<event>
 5    1  0.3277540E-002  0.1249966E+03  0.7818608E-02  0.1235075E+00
         -4   -1    0    0    0  501 -0.00000000000E+00  0.00000000000E+00  0.10076156584E+03  0.10076956907E+03  0.12700000000E+01 0.  1.
          4   -1    0    0  501    0  0.00000000000E+00 -0.00000000000E+00 -0.38745178064E+02  0.38765986679E+02  0.12700000000E+01 0.  1.
         25    2    1    2    0    0  0.00000000000E+00  0.00000000000E+00  0.62016387777E+02  0.13953555575E+03  0.12499655581E+03 0.  0.
    9000005    1    3    3    0    0 -0.11421206745E+02 -0.54682443805E+02 -0.25702534456E+00  0.55871993754E+02  0.10000000000E+01 0.  0.
    9000005    1    3    3    0    0  0.11421206745E+02  0.54682443805E+02  0.62273413121E+02  0.83663561995E+02  0.10000000000E+01 0.  0.
<mgrwt>
<rscale>  0 0.12499656E+03</rscale>
<asrwt>0</asrwt>
<pdfrwt beam="2">  1        4 0.59630130E-02 0.12499656E+03</pdfrwt>
<pdfrwt beam="1">  1       -4 0.15503995E-01 0.12499656E+03</pdfrwt>
<totfact> 0.10144008E+04</totfact>
</mgrwt>
</event>
<event>
 5    1  0.3277540E-002  0.1250001E+03  0.7818608E-02  0.1235069E+00
          4   -1    0    0  501    0  0.00000000000E+00  0.00000000000E+00  0.36646997897E+03  0.36647217955E+03  0.12700000000E+01 0. -1.
         -4   -1    0    0    0  501 -0.00000000000E+00 -0.00000000000E+00 -0.10619081242E+02  0.10694755089E+02  0.12700000000E+01 0. -1.
         25    2    1    2    0    0  0.00000000000E+00  0.00000000000E+00  0.35585089773E+03  0.37716693464E+03  0.12500014069E+03 0.  0.
    9000005    1    3    3    0    0  0.50479697760E+02 -0.35862951819E+02  0.15251750708E+03  0.16461148552E+03  0.10000000000E+01 0.  0.
    9000005    1    3    3    0    0 -0.50479697760E+02  0.35862951819E+02  0.20333339065E+03  0.21255544912E+03  0.10000000000E+01 0.  0.
<mgrwt>
<rscale>  0 0.12500014E+03</rscale>
<asrwt>0</asrwt>
<pdfrwt beam="1">  1        4 0.56385985E-01 0.12500014E+03</pdfrwt>
<pdfrwt beam="2">  1       -4 0.16396952E-02 0.12500014E+03</pdfrwt>
<totfact> 0.66835540E+03</totfact>
</mgrwt>
</event>
<event>
 5    1  0.3277540E-002  0.1250034E+03  0.7818608E-02  0.1235064E+00
         -4   -1    0    0    0  501 -0.00000000000E+00  0.00000000000E+00  0.98972196199E+01  0.99783694161E+01  0.12700000000E+01 0. -1.
          4   -1    0    0  501    0  0.00000000000E+00 -0.00000000000E+00 -0.39300932479E+03  0.39301137677E+03  0.12700000000E+01 0. -1.
         25    2    1    2    0    0  0.00000000000E+00  0.00000000000E+00 -0.38311210517E+03  0.40298974619E+03  0.12500340157E+03 0.  0.
    9000005    1    3    3    0    0 -0.39660372749E+02 -0.43441061436E+02 -0.12351936154E+03  0.13681412084E+03  0.10000000000E+01 0.  0.
    9000005    1    3    3    0    0  0.39660372749E+02  0.43441061436E+02 -0.25959274363E+03  0.26617562535E+03  0.10000000000E+01 0.  0.
<mgrwt>
<rscale>  0 0.12500340E+03</rscale>
<asrwt>0</asrwt>
<pdfrwt beam="2">  1        4 0.60469361E-01 0.12500340E+03</pdfrwt>
<pdfrwt beam="1">  1       -4 0.15290496E-02 0.12500340E+03</pdfrwt>
<totfact> 0.64258226E+03</totfact>
</mgrwt>
</event>
<event>
 5    1  0.3277540E-002  0.1249990E+03  0.7818608E-02  0.1235071E+00
         -4   -1    0    0    0  501 -0.00000000000E+00  0.00000000000E+00  0.22467572361E+02  0.22503437689E+02  0.12700000000E+01 0.  1.
          4   -1    0    0  501    0  0.00000000000E+00 -0.00000000000E+00 -0.17368204639E+03  0.17368668958E+03  0.12700000000E+01 0.  1.
         25    2    1    2    0    0  0.00000000000E+00  0.00000000000E+00 -0.15121447402E+03  0.19619012727E+03  0.12499899553E+03 0.  0.
    9000005    1    3    3    0    0 -0.44376967779E+02 -0.43597015694E+02 -0.84915534017E+02  0.10526947784E+03  0.10000000000E+01 0.  0.
    9000005    1    3    3    0    0  0.44376967779E+02  0.43597015694E+02 -0.66298940008E+02  0.90920649430E+02  0.10000000000E+01 0.  0.
<mgrwt>
<rscale>  0 0.12499900E+03</rscale>
<asrwt>0</asrwt>
<pdfrwt beam="2">  1        4 0.26723430E-01 0.12499900E+03</pdfrwt>
<pdfrwt beam="1">  1       -4 0.34596658E-02 0.12499900E+03</pdfrwt>
<totfact> 0.90783310E+03</totfact>
</mgrwt>
</event>
<event>
 5    1  0.3277540E-002  0.1250024E+03  0.7818608E-02  0.1235066E+00
         -4   -1    0    0    0  501 -0.00000000000E+00  0.00000000000E+00  0.94747404259E+03  0.94747489375E+03  0.12700000000E+01 0.  1.
          4   -1    0    0  501    0  0.00000000000E+00 -0.00000000000E+00 -0.40242894365E+01  0.42199295574E+01  0.12700000000E+01 0.  1.
         25    2    1    2    0    0  0.00000000000E+00  0.00000000000E+00  0.94344975315E+03  0.95169482330E+03  0.12500239990E+03 0.  0.
    9000005    1    3    3    0    0  0.26601034741E+02 -0.56525656253E+02  0.45936595872E+03  0.46359556609E+03  0.10000000000E+01 0.  0.
    9000005    1    3    3    0    0 -0.26601034741E+02  0.56525656253E+02  0.48408379443E+03  0.48809925721E+03  0.10000000000E+01 0.  0.
<mgrwt>
<rscale>  0 0.12500240E+03</rscale>
<asrwt>0</asrwt>
<pdfrwt beam="2">  1        4 0.63423558E-03 0.12500240E+03</pdfrwt>
<pdfrwt beam="1">  1       -4 0.14578049E+00 0.12500240E+03</pdfrwt>
<totfact> 0.32254152E+03</totfact>
</mgrwt>
</event>
<event>
 5    1  0.3277540E-002  0.1250010E+03  0.7818608E-02  0.1235068E+00
         -4   -1    0    0    0  501 -0.00000000000E+00  0.00000000000E+00  0.36919365467E+02  0.36941202559E+02  0.12700000000E+01 0.  1.
          4   -1    0    0  501    0  0.00000000000E+00 -0.00000000000E+00 -0.10574965015E+03  0.10575727591E+03  0.12700000000E+01 0.  1.
         25    2    1    2    0    0  0.00000000000E+00  0.00000000000E+00 -0.68830284684E+02  0.14269847847E+03  0.12500099066E+03 0.  0.
    9000005    1    3    3    0    0  0.48444496419E+02 -0.34630878393E+02 -0.56049338672E+02  0.81784444347E+02  0.10000000000E+01 0.  0.
    9000005    1    3    3    0    0 -0.48444496419E+02  0.34630878393E+02 -0.12780946012E+02  0.60914034118E+02  0.10000000000E+01 0.  0.
<mgrwt>
<rscale>  0 0.12500099E+03</rscale>
<asrwt>0</asrwt>
<pdfrwt beam="2">  1        4 0.16271443E-01 0.12500099E+03</pdfrwt>
<pdfrwt beam="1">  1       -4 0.56821688E-02 0.12500099E+03</pdfrwt>
<totfact> 0.10077737E+04</totfact>
</mgrwt>
</event>
<event>
 5    1  0.3277540E-002  0.1250048E+03  0.7818608E-02  0.1235062E+00
          4   -1    0    0  501    0  0.00000000000E+00  0.00000000000E+00  0.24064007018E+02  0.24097496421E+02  0.12700000000E+01 0. -1.
         -4   -1    0    0    0  501 -0.00000000000E+00 -0.00000000000E+00 -0.16219116002E+03  0.16219613216E+03  0.12700000000E+01 0. -1.
         25    2    1    2    0    0  0.00000000000E+00  0.00000000000E+00 -0.13812715300E+03  0.18629362858E+03  0.12500482252E+03 0.  0.
    9000005    1    3    3    0    0 -0.50849399899E+02  0.36273522352E+02 -0.66038057239E+02  0.90903547223E+02  0.10000000000E+01 0.  0.
    9000005    1    3    3    0    0  0.50849399899E+02 -0.36273522352E+02 -0.72089095759E+02  0.95390081357E+02  0.10000000000E+01 0.  0.
<mgrwt>
<rscale>  0 0.12500482E+03</rscale>
<asrwt>0</asrwt>
<pdfrwt beam="1">  1        4 0.37051136E-02 0.12500482E+03</pdfrwt>
<pdfrwt beam="2">  1       -4 0.24955444E-01 0.12500482E+03</pdfrwt>
<totfact> 0.92486246E+03</totfact>
</mgrwt>
</event>
<event>
 5    1  0.3277540E-002  0.1250144E+03  0.7818608E-02  0.1235047E+00
         -4   -1    0    0    0  501 -0.00000000000E+00  0.00000000000E+00  0.10206516301E+03  0.10207306403E+03  0.12700000000E+01 0.  1.
          4   -1    0    0  501    0  0.00000000000E+00 -0.00000000000E+00 -0.38261028642E+02  0.38282100423E+02  0.12700000000E+01 0.  1.
         25    2    1    2    0    0  0.00000000000E+00  0.00000000000E+00  0.63804134369E+02  0.14035516445E+03  0.12501441767E+03 0.  0.
    9000005    1    3    3    0    0 -0.53022799600E+02 -0.42185307719E+01  0.68745799736E+02  0.86926395650E+02  0.10000000000E+01 0.  0.
    9000005    1    3    3    0    0  0.53022799600E+02  0.42185307719E+01 -0.49416653674E+01  0.53428768803E+02  0.10000000000E+01 0.  0.
<mgrwt>
<rscale>  0 0.12501442E+03</rscale>
<asrwt>0</asrwt>
<pdfrwt beam="2">  1        4 0.58885409E-02 0.12501442E+03</pdfrwt>
<pdfrwt beam="1">  1       -4 0.15704561E-01 0.12501442E+03</pdfrwt>
<totfact> 0.10122942E+04</totfact>
</mgrwt>
</event>
<event>
 5    1  0.3277540E-002  0.1250005E+03  0.7818608E-02  0.1235069E+00
          4   -1    0    0  501    0  0.00000000000E+00  0.00000000000E+00  0.28907295562E+03  0.28907574539E+03  0.12700000000E+01 0. -1.
         -4   -1    0    0    0  501 -0.00000000000E+00 -0.00000000000E+00 -0.13480428828E+02  0.13540120434E+02  0.12700000000E+01 0. -1.
         25    2    1    2    0    0  0.00000000000E+00  0.00000000000E+00  0.27559252680E+03  0.30261586583E+03  0.12500048569E+03 0.  0.
    9000005    1    3    3    0    0  0.89041376004E+01 -0.98311724082E+01 -0.10045202128E+02  0.16668584316E+02  0.10000000000E+01 0.  0.
    9000005    1    3    3    0    0 -0.89041376004E+01  0.98311724082E+01  0.28563772892E+03  0.28594728151E+03  0.10000000000E+01 0.  0.
<mgrwt>
<rscale>  0 0.12500049E+03</rscale>
<asrwt>0</asrwt>
<pdfrwt beam="1">  1        4 0.44477566E-01 0.12500049E+03</pdfrwt>
<pdfrwt beam="2">  1       -4 0.20787185E-02 0.12500049E+03</pdfrwt>
<totfact> 0.75271065E+03</totfact>
</mgrwt>
</event>
<event>
 5    1  0.3277540E-002  0.1250004E+03  0.7818608E-02  0.1235069E+00
          4   -1    0    0  501    0  0.00000000000E+00  0.00000000000E+00  0.36472122149E+02  0.36494226859E+02  0.12700000000E+01 0. -1.
         -4   -1    0    0    0  501 -0.00000000000E+00 -0.00000000000E+00 -0.10704474731E+03  0.10705228081E+03  0.12700000000E+01 0. -1.
         25    2    1    2    0    0  0.00000000000E+00  0.00000000000E+00 -0.70572625158E+02  0.14354650767E+03  0.12500041776E+03 0.  0.
    9000005    1    3    3    0    0 -0.74631568791E+01  0.56376396146E+02 -0.65039453055E+02  0.86400967626E+02  0.10000000000E+01 0.  0.
    9000005    1    3    3    0    0  0.74631568791E+01 -0.56376396146E+02 -0.55331721030E+01  0.57145540040E+02  0.10000000000E+01 0.  0.
<mgrwt>
<rscale>  0 0.12500042E+03</rscale>
<asrwt>0</asrwt>
<pdfrwt beam="1">  1        4 0.56133756E-02 0.12500042E+03</pdfrwt>
<pdfrwt beam="2">  1       -4 0.16470702E-01 0.12500042E+03</pdfrwt>
<totfact> 0.10060509E+04</totfact>
</mgrwt>
</event>
<event>
 5    1  0.3277540E-002  0.1250112E+03  0.7818608E-02  0.1235052E+00
          4   -1    0    0  501    0  0.00000000000E+00  0.00000000000E+00  0.46767733146E+02  0.46784973694E+02  0.12700000000E+01 0. -1.
         -4   -1    0    0    0  501 -0.00000000000E+00 -0.00000000000E+00 -0.83502020203E+02  0.83511677495E+02  0.12700000000E+01 0. -1.
         25    2    1    2    0    0  0.00000000000E+00  0.00000000000E+00 -0.36734287058E+02  0.13029665119E+03  0.12501123736E+03 0.  0.
    9000005    1    3    3    0    0  0.37161556293E+02 -0.43541722945E+02  0.77749524987E+01  0.57778134182E+02  0.10000000000E+01 0.  0.
    9000005    1    3    3    0    0 -0.37161556293E+02  0.43541722945E+02 -0.44509239556E+02  0.72518517008E+02  0.10000000000E+01 0.  0.
<mgrwt>
<rscale>  0 0.12501124E+03</rscale>
<asrwt>0</asrwt>
<pdfrwt beam="1">  1        4 0.71971049E-02 0.12501124E+03</pdfrwt>
<pdfrwt beam="2">  1       -4 0.12848534E-01 0.12501124E+03</pdfrwt>
<totfact> 0.10335544E+04</totfact>
</mgrwt>
</event>
<event>
 5    1  0.3277540E-002  0.1249998E+03  0.7818608E-02  0.1235070E+00
         -4   -1    0    0    0  501 -0.00000000000E+00  0.00000000000E+00  0.26645656176E+02  0.26675904728E+02  0.12700000000E+01 0. -1.
          4   -1    0    0  501    0  0.00000000000E+00 -0.00000000000E+00 -0.14648333341E+03  0.14648883871E+03  0.12700000000E+01 0. -1.
         25    2    1    2    0    0  0.00000000000E+00  0.00000000000E+00 -0.11983767723E+03  0.17316474344E+03  0.12499983794E+03 0.  0.
    9000005    1    3    3    0    0  0.96673088930E+01 -0.61445272392E+02 -0.68260892127E+02  0.92355442473E+02  0.10000000000E+01 0.  0.
    9000005    1    3    3    0    0 -0.96673088930E+01  0.61445272392E+02 -0.51576785106E+02  0.80809300965E+02  0.10000000000E+01 0.  0.
<mgrwt>
<rscale>  0 0.12499984E+03</rscale>
<asrwt>0</asrwt>
<pdfrwt beam="2">  1        4 0.22538647E-01 0.12499984E+03</pdfrwt>
<pdfrwt beam="1">  1       -4 0.41020821E-02 0.12499984E+03</pdfrwt>
<totfact> 0.94862387E+03</totfact>
</mgrwt>
</event>
<event>
 5    1  0.3277540E-002  0.1250007E+03  0.7818608E-02  0.1235068E+00
          4   -1    0    0  501    0  0.00000000000E+00  0.00000000000E+00  0.13657762420E+03  0.13658352878E+03  0.12700000000E+01 0. -1.
         -4   -1    0    0    0  501 -0.00000000000E+00 -0.00000000000E+00 -0.28580656726E+02  0.28608859447E+02  0.12700000000E+01 0. -1.
         25    2    1    2    0    0  0.00000000000E+00  0.00000000000E+00  0.10799696748E+03  0.16519238822E+03  0.12500072057E+03 0.  0.
    9000005    1    3    3    0    0  0.95849900944E+01 -0.84580748570E+01 -0.26840840361E+02  0.29746290133E+02  0.10000000000E+01 0.  0.
    9000005    1    3    3    0    0 -0.95849900944E+01  0.84580748570E+01  0.13483780784E+03  0.13544609809E+03  0.10000000000E+01 0.  0.
<mgrwt>
<rscale>  0 0.12500072E+03</rscale>
<asrwt>0</asrwt>
<pdfrwt beam="1">  1        4 0.21014567E-01 0.12500072E+03</pdfrwt>
<pdfrwt beam="2">  1       -4 0.43996476E-02 0.12500072E+03</pdfrwt>
<totfact> 0.96349409E+03</totfact>
</mgrwt>
</event>
<event>
 5    1  0.3277540E-002  0.1250014E+03  0.7818608E-02  0.1235067E+00
         -4   -1    0    0    0  501 -0.00000000000E+00  0.00000000000E+00  0.10710478782E+03  0.10711231710E+03  0.12700000000E+01 0.  1.
          4   -1    0    0  501    0  0.00000000000E+00 -0.00000000000E+00 -0.36452223416E+02  0.36474340186E+02  0.12700000000E+01 0.  1.
         25    2    1    2    0    0  0.00000000000E+00  0.00000000000E+00  0.70652564404E+02  0.14358665728E+03  0.12500137316E+03 0.  0.
    9000005    1    3    3    0    0  0.37424366742E+01 -0.57834533987E+02  0.84732667885E+01  0.58580162204E+02  0.10000000000E+01 0.  0.
    9000005    1    3    3    0    0 -0.37424366742E+01  0.57834533987E+02  0.62179297615E+02  0.85006495079E+02  0.10000000000E+01 0.  0.
<mgrwt>
<rscale>  0 0.12500137E+03</rscale>
<asrwt>0</asrwt>
<pdfrwt beam="2">  1        4 0.56103149E-02 0.12500137E+03</pdfrwt>
<pdfrwt beam="1">  1       -4 0.16479940E-01 0.12500137E+03</pdfrwt>
<totfact> 0.10059473E+04</totfact>
</mgrwt>
</event>
<event>
 5    1  0.3277540E-002  0.1249956E+03  0.7818608E-02  0.1235076E+00
          4   -1    0    0  501    0  0.00000000000E+00  0.00000000000E+00  0.43971302581E+02  0.43989639128E+02  0.12700000000E+01 0. -1.
         -4   -1    0    0    0  501 -0.00000000000E+00 -0.00000000000E+00 -0.88788634097E+02  0.88797716439E+02  0.12700000000E+01 0. -1.
         25    2    1    2    0    0  0.00000000000E+00  0.00000000000E+00 -0.44817331517E+02  0.13278735557E+03  0.12499555430E+03 0.  0.
    9000005    1    3    3    0    0  0.15832030113E+02 -0.42740967838E+02 -0.67823135851E+02  0.81721608317E+02  0.10000000000E+01 0.  0.
    9000005    1    3    3    0    0 -0.15832030113E+02  0.42740967838E+02  0.23005804335E+02  0.51065747251E+02  0.10000000000E+01 0.  0.
<mgrwt>
<rscale>  0 0.12499555E+03</rscale>
<asrwt>0</asrwt>
<pdfrwt beam="1">  1        4 0.67669250E-02 0.12499555E+03</pdfrwt>
<pdfrwt beam="2">  1       -4 0.13661899E-01 0.12499555E+03</pdfrwt>
<totfact> 0.10285953E+04</totfact>
</mgrwt>
</event>
<event>
 5    1  0.3277540E-002  0.1249979E+03  0.7818608E-02  0.1235073E+00
         -4   -1    0    0    0  501 -0.00000000000E+00  0.00000000000E+00  0.13382715504E+02  0.13442841004E+02  0.12700000000E+01 0. -1.
          4   -1    0    0  501    0  0.00000000000E+00 -0.00000000000E+00 -0.29116224950E+03  0.29116501925E+03  0.12700000000E+01 0. -1.
         25    2    1    2    0    0  0.00000000000E+00  0.00000000000E+00 -0.27777953400E+03  0.30460786025E+03  0.12499791606E+03 0.  0.
    9000005    1    3    3    0    0 -0.27571636539E+02  0.50593904720E+02 -0.79939795823E+02  0.98545975526E+02  0.10000000000E+01 0.  0.
    9000005    1    3    3    0    0  0.27571636539E+02 -0.50593904720E+02 -0.19783973818E+03  0.20606188473E+03  0.10000000000E+01 0.  0.
<mgrwt>
<rscale>  0 0.12499792E+03</rscale>
<asrwt>0</asrwt>
<pdfrwt beam="2">  1        4 0.44799026E-01 0.12499792E+03</pdfrwt>
<pdfrwt beam="1">  1       -4 0.20637176E-02 0.12499792E+03</pdfrwt>
<totfact> 0.75027921E+03</totfact>
</mgrwt>
</event>
<event>
 5    1  0.3277540E-002  0.1250004E+03  0.7818608E-02  0.1235069E+00
          4   -1    0    0  501    0  0.00000000000E+00  0.00000000000E+00  0.45122032332E+01  0.46875236552E+01  0.12700000000E+01 0. -1.
         -4   -1    0    0    0  501 -0.00000000000E+00 -0.00000000000E+00 -0.84903941111E+03  0.84904036095E+03  0.12700000000E+01 0. -1.
         25    2    1    2    0    0  0.00000000000E+00  0.00000000000E+00 -0.84452720788E+03  0.85372788460E+03  0.12500038442E+03 0.  0.
    9000005    1    3    3    0    0 -0.59415017447E+01  0.57264348278E+02 -0.58826671672E+03  0.59107802956E+03  0.10000000000E+01 0.  0.
    9000005    1    3    3    0    0  0.59415017447E+01 -0.57264348278E+02 -0.25626049116E+03  0.26264985505E+03  0.10000000000E+01 0.  0.
<mgrwt>
<rscale>  0 0.12500038E+03</rscale>
<asrwt>0</asrwt>
<pdfrwt beam="1">  1        4 0.70774504E-03 0.12500038E+03</pdfrwt>
<pdfrwt beam="2">  1       -4 0.13063488E+00 0.12500038E+03</pdfrwt>
<totfact> 0.35974988E+03</totfact>
</mgrwt>
</event>
<event>
 5    1  0.3277540E-002  0.1249985E+03  0.7818608E-02  0.1235072E+00
         -4   -1    0    0    0  501 -0.00000000000E+00  0.00000000000E+00  0.59953382690E+01  0.61283750669E+01  0.12700000000E+01 0. -1.
          4   -1    0    0  501    0  0.00000000000E+00 -0.00000000000E+00 -0.64424897154E+03  0.64425022331E+03  0.12700000000E+01 0. -1.
         25    2    1    2    0    0  0.00000000000E+00  0.00000000000E+00 -0.63825363327E+03  0.65037859837E+03  0.12499848334E+03 0.  0.
    9000005    1    3    3    0    0 -0.54134393856E+02  0.31083086788E+02 -0.33426444090E+03  0.34004471372E+03  0.10000000000E+01 0.  0.
    9000005    1    3    3    0    0  0.54134393856E+02 -0.31083086788E+02 -0.30398919238E+03  0.31033388465E+03  0.10000000000E+01 0.  0.
<mgrwt>
<rscale>  0 0.12499848E+03</rscale>
<asrwt>0</asrwt>
<pdfrwt beam="2">  1        4 0.99125502E-01 0.12499848E+03</pdfrwt>
<pdfrwt beam="1">  1       -4 0.93269013E-03 0.12499848E+03</pdfrwt>
<totfact> 0.45835887E+03</totfact>
</mgrwt>
</event>
<event>
 5    1  0.3277540E-002  0.1249993E+03  0.7818608E-02  0.1235070E+00
          4   -1    0    0  501    0  0.00000000000E+00  0.00000000000E+00  0.56328157720E+02  0.56342472896E+02  0.12700000000E+01 0. -1.
         -4   -1    0    0    0  501 -0.00000000000E+00 -0.00000000000E+00 -0.69318341119E+02  0.69329974149E+02  0.12700000000E+01 0. -1.
         25    2    1    2    0    0  0.00000000000E+00  0.00000000000E+00 -0.12990183399E+02  0.12567244705E+03  0.12499927632E+03 0.  0.
    9000005    1    3    3    0    0 -0.37473367990E+02  0.23679869662E+02  0.37789997937E+02  0.58258677292E+02  0.10000000000E+01 0.  0.
    9000005    1    3    3    0    0  0.37473367990E+02 -0.23679869662E+02 -0.50780181336E+02  0.67413769753E+02  0.10000000000E+01 0.  0.
<mgrwt>
<rscale>  0 0.12499928E+03</rscale>
<asrwt>0</asrwt>
<pdfrwt beam="1">  1        4 0.86678665E-02 0.12499928E+03</pdfrwt>
<pdfrwt beam="2">  1       -4 0.10666356E-01 0.12499928E+03</pdfrwt>
<totfact> 0.10438321E+04</totfact>
</mgrwt>
</event>
<event>
 5    1  0.3277540E-002  0.1249978E+03  0.7818608E-02  0.1235073E+00
         -4   -1    0    0    0  501 -0.00000000000E+00  0.00000000000E+00  0.35368832019E+02  0.35391625823E+02  0.12700000000E+01 0.  1.
          4   -1    0    0  501    0  0.00000000000E+00 -0.00000000000E+00 -0.11037732558E+03  0.11038463164E+03  0.12700000000E+01 0.  1.
         25    2    1    2    0    0  0.00000000000E+00  0.00000000000E+00 -0.75008493560E+02  0.14577625746E+03  0.12499777251E+03 0.  0.
    9000005    1    3    3    0    0  0.60889538625E+02  0.12217634169E+02 -0.45609700866E+02  0.77058752337E+02  0.10000000000E+01 0.  0.
    9000005    1    3    3    0    0 -0.60889538625E+02 -0.12217634169E+02 -0.29398792694E+02  0.68717505124E+02  0.10000000000E+01 0.  0.
<mgrwt>
<rscale>  0 0.12499777E+03</rscale>
<asrwt>0</asrwt>
<pdfrwt beam="2">  1        4 0.16983442E-01 0.12499777E+03</pdfrwt>
<pdfrwt beam="1">  1       -4 0.54436742E-02 0.12499777E+03</pdfrwt>
<totfact> 0.10015743E+04</totfact>
</mgrwt>
</event>
<event>
 5    1  0.3277540E-002  0.1249982E+03  0.7818608E-02  0.1235072E+00
         -4   -1    0    0    0  501 -0.00000000000E+00  0.00000000000E+00  0.37730230367E+02  0.37751598424E+02  0.12700000000E+01 0. -1.
          4   -1    0    0  501    0  0.00000000000E+00 -0.00000000000E+00 -0.10347350753E+03  0.10348130102E+03  0.12700000000E+01 0. -1.
         25    2    1    2    0    0  0.00000000000E+00  0.00000000000E+00 -0.65743277161E+02  0.14123289944E+03  0.12499821356E+03 0.  0.
    9000005    1    3    3    0    0  0.31794387153E+02  0.29026576985E+02  0.18307195382E+02  0.46792933533E+02  0.10000000000E+01 0.  0.
    9000005    1    3    3    0    0 -0.31794387153E+02 -0.29026576985E+02 -0.84050472543E+02  0.94439965908E+02  0.10000000000E+01 0.  0.
<mgrwt>
<rscale>  0 0.12499821E+03</rscale>
<asrwt>0</asrwt>
<pdfrwt beam="2">  1        4 0.15921244E-01 0.12499821E+03</pdfrwt>
<pdfrwt beam="1">  1       -4 0.58068940E-02 0.12499821E+03</pdfrwt>
<totfact> 0.10108504E+04</totfact>
</mgrwt>
</event>
<event>
 5    1  0.3277540E-002  0.1249972E+03  0.7818608E-02  0.1235074E+00
          4   -1    0    0  501    0  0.00000000000E+00  0.00000000000E+00  0.22537747796E+02  0.22573501628E+02  0.12700000000E+01 0. -1.
         -4   -1    0    0    0  501 -0.00000000000E+00 -0.00000000000E+00 -0.17313716753E+03  0.17314182533E+03  0.12700000000E+01 0. -1.
         25    2    1    2    0    0  0.00000000000E+00  0.00000000000E+00 -0.15059941973E+03  0.19571532696E+03  0.12499721590E+03 0.  0.
    9000005    1    3    3    0    0  0.52022691002E+02  0.10264466028E+02 -0.12707295226E+03  0.13769624119E+03  0.10000000000E+01 0.  0.
    9000005    1    3    3    0    0 -0.52022691002E+02 -0.10264466028E+02 -0.23526467472E+02  0.58019085770E+02  0.10000000000E+01 0.  0.
<mgrwt>
<rscale>  0 0.12499722E+03</rscale>
<asrwt>0</asrwt>
<pdfrwt beam="1">  1        4 0.34704545E-02 0.12499722E+03</pdfrwt>
<pdfrwt beam="2">  1       -4 0.26639595E-01 0.12499722E+03</pdfrwt>
<totfact> 0.90867930E+03</totfact>
</mgrwt>
</event>
<event>
 5    1  0.3277540E-002  0.1250177E+03  0.7818608E-02  0.1235042E+00
          4   -1    0    0  501    0  0.00000000000E+00  0.00000000000E+00  0.13982443491E+02  0.14040000925E+02  0.12700000000E+01 0. -1.
         -4   -1    0    0    0  501 -0.00000000000E+00 -0.00000000000E+00 -0.27881436439E+03  0.27881725680E+03  0.12700000000E+01 0. -1.
         25    2    1    2    0    0  0.00000000000E+00  0.00000000000E+00 -0.26483192090E+03  0.29285725773E+03  0.12501770705E+03 0.  0.
    9000005    1    3    3    0    0 -0.51974951102E+02  0.14411735864E+02 -0.58440217368E+02  0.79532085844E+02  0.10000000000E+01 0.  0.
    9000005    1    3    3    0    0  0.51974951102E+02 -0.14411735864E+02 -0.20639170353E+03  0.21332517189E+03  0.10000000000E+01 0.  0.
<mgrwt>
<rscale>  0 0.12501771E+03</rscale>
<asrwt>0</asrwt>
<pdfrwt beam="1">  1        4 0.21557954E-02 0.12501771E+03</pdfrwt>
<pdfrwt beam="2">  1       -4 0.42899163E-01 0.12501771E+03</pdfrwt>
<totfact> 0.76473560E+03</totfact>
</mgrwt>
</event>
<event>
 5    1  0.3277540E-002  0.1250013E+03  0.7818608E-02  0.1235067E+00
          4   -1    0    0  501    0  0.00000000000E+00  0.00000000000E+00  0.49427606206E+02  0.49443919295E+02  0.12700000000E+01 0. -1.
         -4   -1    0    0    0  501 -0.00000000000E+00 -0.00000000000E+00 -0.78996959096E+02  0.79007167057E+02  0.12700000000E+01 0. -1.
         25    2    1    2    0    0  0.00000000000E+00  0.00000000000E+00 -0.29569352890E+02  0.12845108635E+03  0.12500133981E+03 0.  0.
    9000005    1    3    3    0    0 -0.51229371549E+02  0.28761722229E+02  0.71021545166E+01  0.59187209545E+02  0.10000000000E+01 0.  0.
    9000005    1    3    3    0    0  0.51229371549E+02 -0.28761722229E+02 -0.36671507406E+02  0.69263876807E+02  0.10000000000E+01 0.  0.
<mgrwt>
<rscale>  0 0.12500134E+03</rscale>
<asrwt>0</asrwt>
<pdfrwt beam="1">  1        4 0.76062872E-02 0.12500134E+03</pdfrwt>
<pdfrwt beam="2">  1       -4 0.12155418E-01 0.12500134E+03</pdfrwt>
<totfact> 0.10377444E+04</totfact>
</mgrwt>
</event>
<event>
 5    1  0.3277540E-002  0.1250033E+03  0.7818608E-02  0.1235064E+00
          4   -1    0    0  501    0  0.00000000000E+00  0.00000000000E+00  0.10244098301E+03  0.10244885504E+03  0.12700000000E+01 0.  1.
         -4   -1    0    0    0  501 -0.00000000000E+00 -0.00000000000E+00 -0.38113786684E+02  0.38134939824E+02  0.12700000000E+01 0.  1.
         25    2    1    2    0    0  0.00000000000E+00  0.00000000000E+00  0.64327196321E+02  0.14058379486E+03  0.12500326073E+03 0.  0.
    9000005    1    3    3    0    0 -0.31937956782E+02 -0.30486894305E+02  0.81902365052E+02  0.93050960279E+02  0.10000000000E+01 0.  0.
    9000005    1    3    3    0    0  0.31937956782E+02  0.30486894305E+02 -0.17575168731E+02  0.47532834585E+02  0.10000000000E+01 0.  0.
<mgrwt>
<rscale>  0 0.12500326E+03</rscale>
<asrwt>0</asrwt>
<pdfrwt beam="1">  1        4 0.15762384E-01 0.12500326E+03</pdfrwt>
<pdfrwt beam="2">  1       -4 0.58658923E-02 0.12500326E+03</pdfrwt>
<totfact> 0.10120757E+04</totfact>
</mgrwt>
</event>
<event>
 5    1  0.3277540E-002  0.1249992E+03  0.7818608E-02  0.1235071E+00
         -4   -1    0    0    0  501 -0.00000000000E+00  0.00000000000E+00  0.19280709245E+02  0.19322490756E+02  0.12700000000E+01 0. -1.
          4   -1    0    0  501    0  0.00000000000E+00 -0.00000000000E+00 -0.20233317506E+03  0.20233716077E+03  0.12700000000E+01 0. -1.
         25    2    1    2    0    0  0.00000000000E+00  0.00000000000E+00 -0.18305246581E+03  0.22165965153E+03  0.12499918350E+03 0.  0.
    9000005    1    3    3    0    0 -0.10688233147E+02  0.58640477462E+02 -0.12480813052E+03  0.13831490653E+03  0.10000000000E+01 0.  0.
    9000005    1    3    3    0    0  0.10688233147E+02 -0.58640477462E+02 -0.58244335293E+02  0.83344744997E+02  0.10000000000E+01 0.  0.
<mgrwt>
<rscale>  0 0.12499918E+03</rscale>
<asrwt>0</asrwt>
<pdfrwt beam="2">  1        4 0.31131700E-01 0.12499918E+03</pdfrwt>
<pdfrwt beam="1">  1       -4 0.29697837E-02 0.12499918E+03</pdfrwt>
<totfact> 0.86607991E+03</totfact>
</mgrwt>
</event>
<event>
 5    1  0.3277540E-002  0.1249976E+03  0.7818608E-02  0.1235073E+00
         -4   -1    0    0    0  501 -0.00000000000E+00  0.00000000000E+00  0.74779340285E+02  0.74790123904E+02  0.12700000000E+01 0.  1.
          4   -1    0    0  501    0  0.00000000000E+00 -0.00000000000E+00 -0.52212760398E+02  0.52228203572E+02  0.12700000000E+01 0.  1.
         25    2    1    2    0    0  0.00000000000E+00  0.00000000000E+00  0.22566579888E+02  0.12701832748E+03  0.12499761992E+03 0.  0.
    9000005    1    3    3    0    0  0.47185308016E+01  0.49578013465E+02 -0.27074213367E+02  0.56694417551E+02  0.10000000000E+01 0.  0.
    9000005    1    3    3    0    0 -0.47185308016E+01 -0.49578013465E+02  0.49640793255E+02  0.70323909924E+02  0.10000000000E+01 0.  0.
<mgrwt>
<rscale>  0 0.12499762E+03</rscale>
<asrwt>0</asrwt>
<pdfrwt beam="2">  1        4 0.80347498E-02 0.12499762E+03</pdfrwt>
<pdfrwt beam="1">  1       -4 0.11506531E-01 0.12499762E+03</pdfrwt>
<totfact> 0.10409307E+04</totfact>
</mgrwt>
</event>
<event>
 5    1  0.3277540E-002  0.1249996E+03  0.7818608E-02  0.1235070E+00
         -4   -1    0    0    0  501 -0.00000000000E+00  0.00000000000E+00  0.12839200403E+03  0.12839828504E+03  0.12700000000E+01 0. -1.
          4   -1    0    0  501    0  0.00000000000E+00 -0.00000000000E+00 -0.30403942074E+02  0.30430455036E+02  0.12700000000E+01 0. -1.
         25    2    1    2    0    0  0.00000000000E+00  0.00000000000E+00  0.97988061960E+02  0.15882874007E+03  0.12499963354E+03 0.  0.
    9000005    1    3    3    0    0 -0.11665035216E+02 -0.35134149009E+02 -0.14977617467E+02  0.39947596901E+02  0.10000000000E+01 0.  0.
    9000005    1    3    3    0    0  0.11665035216E+02  0.35134149009E+02  0.11296567943E+03  0.11888114317E+03  0.10000000000E+01 0.  0.
<mgrwt>
<rscale>  0 0.12499963E+03</rscale>
<asrwt>0</asrwt>
<pdfrwt beam="2">  1        4 0.46800523E-02 0.12499963E+03</pdfrwt>
<pdfrwt beam="1">  1       -4 0.19755138E-01 0.12499963E+03</pdfrwt>
<totfact> 0.97569875E+03</totfact>
</mgrwt>
</event>
<event>
 5    1  0.3277540E-002  0.1249761E+03  0.7818608E-02  0.1235107E+00
         -4   -1    0    0    0  501 -0.00000000000E+00  0.00000000000E+00  0.31614783787E+01  0.34070288433E+01  0.12700000000E+01 0. -1.
          4   -1    0    0  501    0  0.00000000000E+00 -0.00000000000E+00 -0.11886864316E+04  0.11886871101E+04  0.12700000000E+01 0. -1.
         25    2    1    2    0    0  0.00000000000E+00  0.00000000000E+00 -0.11855249533E+04  0.11920941389E+04  0.12497608269E+03 0.  0.
    9000005    1    3    3    0    0  0.52937259085E+02  0.28242829527E+02 -0.42652158841E+03  0.43072227270E+03  0.10000000000E+01 0.  0.
    9000005    1    3    3    0    0 -0.52937259085E+02 -0.28242829527E+02 -0.75900336486E+03  0.76137186623E+03  0.10000000000E+01 0.  0.
<mgrwt>
<rscale>  0 0.12497608E+03</rscale>
<asrwt>0</asrwt>
<pdfrwt beam="2">  1        4 0.18289343E+00 0.12497608E+03</pdfrwt>
<pdfrwt beam="1">  1       -4 0.50532293E-03 0.12497608E+03</pdfrwt>
<totfact> 0.24933690E+03</totfact>
</mgrwt>
</event>
<event>
 5    1  0.3277540E-002  0.1249997E+03  0.7818608E-02  0.1235070E+00
          4   -1    0    0  501    0  0.00000000000E+00  0.00000000000E+00  0.49256957092E+02  0.49273326678E+02  0.12700000000E+01 0.  1.
         -4   -1    0    0    0  501 -0.00000000000E+00 -0.00000000000E+00 -0.79268443861E+02  0.79278616865E+02  0.12700000000E+01 0.  1.
         25    2    1    2    0    0  0.00000000000E+00  0.00000000000E+00 -0.30011486769E+02  0.12855194354E+03  0.12499965140E+03 0.  0.
    9000005    1    3    3    0    0  0.25311107666E+02  0.17276699234E+02  0.41003812923E+02  0.51200089667E+02  0.10000000000E+01 0.  0.
    9000005    1    3    3    0    0 -0.25311107666E+02 -0.17276699234E+02 -0.71015299692E+02  0.77351853876E+02  0.10000000000E+01 0.  0.
<mgrwt>
<rscale>  0 0.12499965E+03</rscale>
<asrwt>0</asrwt>
<pdfrwt beam="1">  1        4 0.75800352E-02 0.12499965E+03</pdfrwt>
<pdfrwt beam="2">  1       -4 0.12197187E-01 0.12499965E+03</pdfrwt>
<totfact> 0.10375667E+04</totfact>
</mgrwt>
</event>
<event>
 5    1  0.3277540E-002  0.1250005E+03  0.7818608E-02  0.1235068E+00
          4   -1    0    0  501    0  0.00000000000E+00  0.00000000000E+00  0.25798059581E+02  0.25829300767E+02  0.12700000000E+01 0. -1.
         -4   -1    0    0    0  501 -0.00000000000E+00 -0.00000000000E+00 -0.15129211957E+03  0.15129744989E+03  0.12700000000E+01 0. -1.
         25    2    1    2    0    0  0.00000000000E+00  0.00000000000E+00 -0.12549405999E+03  0.17712675066E+03  0.12500050683E+03 0.  0.
    9000005    1    3    3    0    0 -0.43041045481E+02 -0.44227077418E+02 -0.48811583774E+02  0.78690130789E+02  0.10000000000E+01 0.  0.
    9000005    1    3    3    0    0  0.43041045481E+02  0.44227077418E+02 -0.76682476216E+02  0.98436619871E+02  0.10000000000E+01 0.  0.
<mgrwt>
<rscale>  0 0.12500051E+03</rscale>
<asrwt>0</asrwt>
<pdfrwt beam="1">  1        4 0.39717455E-02 0.12500051E+03</pdfrwt>
<pdfrwt beam="2">  1       -4 0.23278523E-01 0.12500051E+03</pdfrwt>
<totfact> 0.94135699E+03</totfact>
</mgrwt>
</event>
<event>
 5    1  0.3277540E-002  0.1249993E+03  0.7818608E-02  0.1235070E+00
         -4   -1    0    0    0  501 -0.00000000000E+00  0.00000000000E+00  0.24624868370E+02  0.24657596035E+02  0.12700000000E+01 0. -1.
          4   -1    0    0  501    0  0.00000000000E+00 -0.00000000000E+00 -0.15848778076E+03  0.15849286908E+03  0.12700000000E+01 0. -1.
         25    2    1    2    0    0  0.00000000000E+00  0.00000000000E+00 -0.13386291239E+03  0.18315046512E+03  0.12499925424E+03 0.  0.
    9000005    1    3    3    0    0 -0.23477041067E+02 -0.15440564705E+02  0.14853402527E+02  0.31799466384E+02  0.10000000000E+01 0.  0.
    9000005    1    3    3    0    0  0.23477041067E+02  0.15440564705E+02 -0.14871631492E+03  0.15135099874E+03  0.10000000000E+01 0.  0.
<mgrwt>
<rscale>  0 0.12499925E+03</rscale>
<asrwt>0</asrwt>
<pdfrwt beam="2">  1        4 0.24385644E-01 0.12499925E+03</pdfrwt>
<pdfrwt beam="1">  1       -4 0.37913503E-02 0.12499925E+03</pdfrwt>
<totfact> 0.93054519E+03</totfact>
</mgrwt>
</event>
<event>
 5    1  0.3277540E-002  0.1250060E+03  0.7818608E-02  0.1235060E+00
          4   -1    0    0  501    0  0.00000000000E+00  0.00000000000E+00  0.12709265234E+03  0.12709899755E+03  0.12700000000E+01 0.  1.
         -4   -1    0    0    0  501 -0.00000000000E+00 -0.00000000000E+00 -0.30718177909E+02  0.30744419885E+02  0.12700000000E+01 0.  1.
         25    2    1    2    0    0  0.00000000000E+00  0.00000000000E+00  0.96374474431E+02  0.15784341744E+03  0.12500602028E+03 0.  0.
    9000005    1    3    3    0    0 -0.48129590851E+02  0.30258269796E+02  0.15415574413E+02  0.58912310607E+02  0.10000000000E+01 0.  0.
    9000005    1    3    3    0    0  0.48129590851E+02 -0.30258269796E+02  0.80958900018E+02  0.98931106831E+02  0.10000000000E+01 0.  0.
<mgrwt>
<rscale>  0 0.12500602E+03</rscale>
<asrwt>0</asrwt>
<pdfrwt beam="1">  1        4 0.19555222E-01 0.12500602E+03</pdfrwt>
<pdfrwt beam="2">  1       -4 0.47283804E-02 0.12500602E+03</pdfrwt>
<totfact> 0.97746945E+03</totfact>
</mgrwt>
</event>
<event>
 5    1  0.3277540E-002  0.1249992E+03  0.7818608E-02  0.1235070E+00
         -4   -1    0    0    0  501 -0.00000000000E+00  0.00000000000E+00  0.21756107910E+01  0.25191630185E+01  0.12700000000E+01 0. -1.
          4   -1    0    0  501    0  0.00000000000E+00 -0.00000000000E+00 -0.16637202200E+04  0.16637207048E+04  0.12700000000E+01 0. -1.
         25    2    1    2    0    0  0.00000000000E+00  0.00000000000E+00 -0.16615446092E+04  0.16662398678E+04  0.12499923389E+03 0.  0.
    9000005    1    3    3    0    0 -0.35702393144E+02 -0.36319277700E+01 -0.15127357553E+04  0.15131616956E+04  0.10000000000E+01 0.  0.
    9000005    1    3    3    0    0  0.35702393144E+02  0.36319277700E+01 -0.14880885400E+03  0.15307817220E+03  0.10000000000E+01 0.  0.
<mgrwt>
<rscale>  0 0.12499923E+03</rscale>
<asrwt>0</asrwt>
<pdfrwt beam="2">  1        4 0.25598248E+00 0.12499923E+03</pdfrwt>
<pdfrwt beam="1">  1       -4 0.36117506E-03 0.12499923E+03</pdfrwt>
<totfact> 0.14879368E+03</totfact>
</mgrwt>
</event>
<event>
 5    1  0.3277540E-002  0.1250026E+03  0.7818608E-02  0.1235065E+00
          4   -1    0    0  501    0  0.00000000000E+00  0.00000000000E+00  0.45758814771E+02  0.45776435305E+02  0.12700000000E+01 0. -1.
         -4   -1    0    0    0  501 -0.00000000000E+00 -0.00000000000E+00 -0.85330803176E+02  0.85340253519E+02  0.12700000000E+01 0. -1.
         25    2    1    2    0    0  0.00000000000E+00  0.00000000000E+00 -0.39571988405E+02  0.13111668882E+03  0.12500257526E+03 0.  0.
    9000005    1    3    3    0    0 -0.18100700355E+02 -0.59430657054E+02 -0.26882455272E+02  0.67700108956E+02  0.10000000000E+01 0.  0.
    9000005    1    3    3    0    0  0.18100700355E+02  0.59430657054E+02 -0.12689533133E+02  0.63416579869E+02  0.10000000000E+01 0.  0.
<mgrwt>
<rscale>  0 0.12500258E+03</rscale>
<asrwt>0</asrwt>
<pdfrwt beam="1">  1        4 0.70419000E-02 0.12500258E+03</pdfrwt>
<pdfrwt beam="2">  1       -4 0.13129898E-01 0.12500258E+03</pdfrwt>
<totfact> 0.10319989E+04</totfact>
</mgrwt>
</event>
<event>
 5    1  0.3277540E-002  0.1249891E+03  0.7818608E-02  0.1235086E+00
          4   -1    0    0  501    0  0.00000000000E+00  0.00000000000E+00  0.23741335559E+03  0.23741675239E+03  0.12700000000E+01 0. -1.
         -4   -1    0    0    0  501 -0.00000000000E+00 -0.00000000000E+00 -0.16422480003E+02  0.16471513271E+02  0.12700000000E+01 0. -1.
         25    2    1    2    0    0  0.00000000000E+00  0.00000000000E+00  0.22099087559E+03  0.25388826566E+03  0.12498913691E+03 0.  0.
    9000005    1    3    3    0    0 -0.93150385059E+01 -0.40564574083E+02  0.20516969525E+03  0.20935104122E+03  0.10000000000E+01 0.  0.
    9000005    1    3    3    0    0  0.93150385059E+01  0.40564574083E+02  0.15821180342E+02  0.44537224434E+02  0.10000000000E+01 0.  0.
<mgrwt>
<rscale>  0 0.12498914E+03</rscale>
<asrwt>0</asrwt>
<pdfrwt beam="1">  1        4 0.36529162E-01 0.12498914E+03</pdfrwt>
<pdfrwt beam="2">  1       -4 0.25305686E-02 0.12498914E+03</pdfrwt>
<totfact> 0.81791267E+03</totfact>
</mgrwt>
</event>
<event>
 5    1  0.3277540E-002  0.1250056E+03  0.7818608E-02  0.1235061E+00
         -4   -1    0    0    0  501 -0.00000000000E+00  0.00000000000E+00  0.40771971193E+02  0.40791745917E+02  0.12700000000E+01 0. -1.
          4   -1    0    0  501    0  0.00000000000E+00 -0.00000000000E+00 -0.95768577997E+02  0.95776998447E+02  0.12700000000E+01 0. -1.
         25    2    1    2    0    0  0.00000000000E+00  0.00000000000E+00 -0.54996606804E+02  0.13656874436E+03  0.12500558058E+03 0.  0.
    9000005    1    3    3    0    0 -0.28002557437E+02 -0.54580796694E+02 -0.40534923814E+02  0.73534254871E+02  0.10000000000E+01 0.  0.
    9000005    1    3    3    0    0  0.28002557437E+02  0.54580796694E+02 -0.14461682990E+02  0.63034489493E+02  0.10000000000E+01 0.  0.
<mgrwt>
<rscale>  0 0.12500558E+03</rscale>
<asrwt>0</asrwt>
<pdfrwt beam="2">  1        4 0.14735796E-01 0.12500558E+03</pdfrwt>
<pdfrwt beam="1">  1       -4 0.62747798E-02 0.12500558E+03</pdfrwt>
<totfact> 0.10203827E+04</totfact>
</mgrwt>
</event>
<event>
 5    1  0.3277540E-002  0.1249987E+03  0.7818608E-02  0.1235071E+00
         -4   -1    0    0    0  501 -0.00000000000E+00  0.00000000000E+00  0.67757397879E+02  0.67769298855E+02  0.12700000000E+01 0.  1.
          4   -1    0    0  501    0  0.00000000000E+00 -0.00000000000E+00 -0.57625330944E+02  0.57639323959E+02  0.12700000000E+01 0.  1.
         25    2    1    2    0    0  0.00000000000E+00  0.00000000000E+00  0.10132066935E+02  0.12540862281E+03  0.12499865558E+03 0.  0.
    9000005    1    3    3    0    0 -0.60818839120E+02  0.13405107389E+02 -0.10235503772E+00  0.62286744759E+02  0.10000000000E+01 0.  0.
    9000005    1    3    3    0    0  0.60818839120E+02 -0.13405107389E+02  0.10234421972E+02  0.63121878055E+02  0.10000000000E+01 0.  0.
<mgrwt>
<rscale>  0 0.12499866E+03</rscale>
<asrwt>0</asrwt>
<pdfrwt beam="2">  1        4 0.88674273E-02 0.12499866E+03</pdfrwt>
<pdfrwt beam="1">  1       -4 0.10426207E-01 0.12499866E+03</pdfrwt>
<totfact> 0.10444292E+04</totfact>
</mgrwt>
</event>
<event>
 5    1  0.3277540E-002  0.1250113E+03  0.7818608E-02  0.1235052E+00
          4   -1    0    0  501    0  0.00000000000E+00  0.00000000000E+00  0.40940477180E+02  0.40960170553E+02  0.12700000000E+01 0. -1.
         -4   -1    0    0    0  501 -0.00000000000E+00 -0.00000000000E+00 -0.95383331403E+02  0.95391785860E+02  0.12700000000E+01 0. -1.
         25    2    1    2    0    0  0.00000000000E+00  0.00000000000E+00 -0.54442854224E+02  0.13635195641E+03  0.12501132605E+03 0.  0.
    9000005    1    3    3    0    0  0.58754836413E+02  0.65208404206E+01 -0.49341899719E+02  0.77008280266E+02  0.10000000000E+01 0.  0.
    9000005    1    3    3    0    0 -0.58754836413E+02 -0.65208404206E+01 -0.51009545043E+01  0.59343676146E+02  0.10000000000E+01 0.  0.
<mgrwt>
<rscale>  0 0.12501133E+03</rscale>
<asrwt>0</asrwt>
<pdfrwt beam="1">  1        4 0.63007002E-02 0.12501133E+03</pdfrwt>
<pdfrwt beam="2">  1       -4 0.14676524E-01 0.12501133E+03</pdfrwt>
<totfact> 0.10207046E+04</totfact>
</mgrwt>
</event>
<event>
 5    1  0.3277540E-002  0.1249983E+03  0.7818608E-02  0.1235072E+00
          4   -1    0    0  501    0  0.00000000000E+00  0.00000000000E+00  0.31508966982E+02  0.31534550897E+02  0.12700000000E+01 0. -1.
         -4   -1    0    0    0  501 -0.00000000000E+00 -0.00000000000E+00 -0.12389005432E+03  0.12389656355E+03  0.12700000000E+01 0. -1.
         25    2    1    2    0    0  0.00000000000E+00  0.00000000000E+00 -0.92381087336E+02  0.15543111445E+03  0.12499826415E+03 0.  0.
    9000005    1    3    3    0    0 -0.49655489392E+02  0.16800695342E+02 -0.38905633470E+01  0.52574399416E+02  0.10000000000E+01 0.  0.
    9000005    1    3    3    0    0  0.49655489392E+02 -0.16800695342E+02 -0.88490523989E+02  0.10285671503E+03  0.10000000000E+01 0.  0.
<mgrwt>
<rscale>  0 0.12499826E+03</rscale>
<asrwt>0</asrwt>
<pdfrwt beam="1">  1        4 0.48500022E-02 0.12499826E+03</pdfrwt>
<pdfrwt beam="2">  1       -4 0.19062477E-01 0.12499826E+03</pdfrwt>
<totfact> 0.98234767E+03</totfact>
</mgrwt>
</event>
<event>
 5    1  0.3277540E-002  0.1250020E+03  0.7818608E-02  0.1235066E+00
         -4   -1    0    0    0  501 -0.00000000000E+00  0.00000000000E+00  0.19715431513E+02  0.19756293674E+02  0.12700000000E+01 0.  1.
          4   -1    0    0  501    0  0.00000000000E+00 -0.00000000000E+00 -0.19788990344E+03  0.19789397864E+03  0.12700000000E+01 0.  1.
         25    2    1    2    0    0  0.00000000000E+00  0.00000000000E+00 -0.17817447192E+03  0.21765027231E+03  0.12500199436E+03 0.  0.
    9000005    1    3    3    0    0  0.34043937245E+02  0.37734155084E+02 -0.25766908102E+02  0.56989382136E+02  0.10000000000E+01 0.  0.
    9000005    1    3    3    0    0 -0.34043937245E+02 -0.37734155084E+02 -0.15240756382E+03  0.16066089018E+03  0.10000000000E+01 0.  0.
<mgrwt>
<rscale>  0 0.12500199E+03</rscale>
<asrwt>0</asrwt>
<pdfrwt beam="2">  1        4 0.30448056E-01 0.12500199E+03</pdfrwt>
<pdfrwt beam="1">  1       -4 0.30366002E-02 0.12500199E+03</pdfrwt>
<totfact> 0.87237648E+03</totfact>
</mgrwt>
</event>
<event>
 5    1  0.3277540E-002  0.1249952E+03  0.7818608E-02  0.1235077E+00
          4   -1    0    0  501    0  0.00000000000E+00  0.00000000000E+00  0.47532923306E+02  0.47549886414E+02  0.12700000000E+01 0. -1.
         -4   -1    0    0    0  501 -0.00000000000E+00 -0.00000000000E+00 -0.82137046001E+02  0.82146863761E+02  0.12700000000E+01 0. -1.
         25    2    1    2    0    0  0.00000000000E+00  0.00000000000E+00 -0.34604122695E+02  0.12969675017E+03  0.12499520670E+03 0.  0.
    9000005    1    3    3    0    0 -0.37493855322E+02 -0.45415364024E+02 -0.38983123732E+02  0.70633054672E+02  0.10000000000E+01 0.  0.
    9000005    1    3    3    0    0  0.37493855322E+02  0.45415364024E+02  0.43790010371E+01  0.59063695503E+02  0.10000000000E+01 0.  0.
<mgrwt>
<rscale>  0 0.12499521E+03</rscale>
<asrwt>0</asrwt>
<pdfrwt beam="1">  1        4 0.73148175E-02 0.12499521E+03</pdfrwt>
<pdfrwt beam="2">  1       -4 0.12638529E-01 0.12499521E+03</pdfrwt>
<totfact> 0.10352119E+04</totfact>
</mgrwt>
</event>
<event>
 5    1  0.3277540E-002  0.1249885E+03  0.7818608E-02  0.1235087E+00
          4   -1    0    0  501    0  0.00000000000E+00  0.00000000000E+00  0.32721224735E+02  0.32745861542E+02  0.12700000000E+01 0. -1.
         -4   -1    0    0    0  501 -0.00000000000E+00 -0.00000000000E+00 -0.11928473917E+03  0.11929149969E+03  0.12700000000E+01 0. -1.
         25    2    1    2    0    0  0.00000000000E+00  0.00000000000E+00 -0.86563514437E+02  0.15203736124E+03  0.12498846819E+03 0.  0.
    9000005    1    3    3    0    0  0.29615526499E+02 -0.45763440405E+01  0.23416039022E+02  0.38043832852E+02  0.10000000000E+01 0.  0.
    9000005    1    3    3    0    0 -0.29615526499E+02  0.45763440405E+01 -0.10997955346E+03  0.11399352838E+03  0.10000000000E+01 0.  0.
<mgrwt>
<rscale>  0 0.12498847E+03</rscale>
<asrwt>0</asrwt>
<pdfrwt beam="1">  1        4 0.50364498E-02 0.12498847E+03</pdfrwt>
<pdfrwt beam="2">  1       -4 0.18353913E-01 0.12498847E+03</pdfrwt>
<totfact> 0.98924786E+03</totfact>
</mgrwt>
</event>
<event>
 5    1  0.3277540E-002  0.1250002E+03  0.7818608E-02  0.1235069E+00
          4   -1    0    0  501    0  0.00000000000E+00  0.00000000000E+00  0.16105065413E+02  0.16155062116E+02  0.12700000000E+01 0.  1.
         -4   -1    0    0    0  501 -0.00000000000E+00 -0.00000000000E+00 -0.24212127949E+03  0.24212461024E+03  0.12700000000E+01 0.  1.
         25    2    1    2    0    0  0.00000000000E+00  0.00000000000E+00 -0.22601621408E+03  0.25827967235E+03  0.12500024050E+03 0.  0.
    9000005    1    3    3    0    0  0.31498738155E+01  0.22249896985E+02 -0.23349423956E+03  0.23457523213E+03  0.10000000000E+01 0.  0.
    9000005    1    3    3    0    0 -0.31498738155E+01 -0.22249896985E+02  0.74780254870E+01  0.23704440219E+02  0.10000000000E+01 0.  0.
<mgrwt>
<rscale>  0 0.12500024E+03</rscale>
<asrwt>0</asrwt>
<pdfrwt beam="1">  1        4 0.24818047E-02 0.12500024E+03</pdfrwt>
<pdfrwt beam="2">  1       -4 0.37253527E-01 0.12500024E+03</pdfrwt>
<totfact> 0.81147659E+03</totfact>
</mgrwt>
</event>
<event>
 5    1  0.3277540E-002  0.1250014E+03  0.7818608E-02  0.1235067E+00
         -4   -1    0    0    0  501 -0.00000000000E+00  0.00000000000E+00  0.78049155373E+01  0.79075664110E+01  0.12700000000E+01 0. -1.
          4   -1    0    0  501    0  0.00000000000E+00 -0.00000000000E+00 -0.49712368649E+03  0.49712530872E+03  0.12700000000E+01 0. -1.
         25    2    1    2    0    0  0.00000000000E+00  0.00000000000E+00 -0.48931877095E+03  0.50503287513E+03  0.12500138142E+03 0.  0.
    9000005    1    3    3    0    0 -0.30119816412E+02  0.71879146221E+01 -0.46396796347E+03  0.46500122644E+03  0.10000000000E+01 0.  0.
    9000005    1    3    3    0    0  0.30119816412E+02 -0.71879146221E+01 -0.25350807479E+02  0.40031648694E+02  0.10000000000E+01 0.  0.
<mgrwt>
<rscale>  0 0.12500138E+03</rscale>
<asrwt>0</asrwt>
<pdfrwt beam="2">  1        4 0.76488563E-01 0.12500138E+03</pdfrwt>
<pdfrwt beam="1">  1       -4 0.12087776E-02 0.12500138E+03</pdfrwt>
<totfact> 0.55474307E+03</totfact>
</mgrwt>
</event>
<event>
 5    1  0.3277540E-002  0.1249931E+03  0.7818608E-02  0.1235080E+00
          4   -1    0    0  501    0  0.00000000000E+00  0.00000000000E+00  0.30175056244E+02  0.30201770136E+02  0.12700000000E+01 0. -1.
         -4   -1    0    0    0  501 -0.00000000000E+00 -0.00000000000E+00 -0.12935147141E+03  0.12935770582E+03  0.12700000000E+01 0. -1.
         25    2    1    2    0    0  0.00000000000E+00  0.00000000000E+00 -0.99176415166E+02  0.15955947596E+03  0.12499305998E+03 0.  0.
    9000005    1    3    3    0    0 -0.31173845788E+02  0.46799448629E+02 -0.14796298195E+02  0.58154342000E+02  0.10000000000E+01 0.  0.
    9000005    1    3    3    0    0  0.31173845788E+02 -0.46799448629E+02 -0.84380116972E+02  0.10140513396E+03  0.10000000000E+01 0.  0.
<mgrwt>
<rscale>  0 0.12499306E+03</rscale>
<asrwt>0</asrwt>
<pdfrwt beam="1">  1        4 0.46448509E-02 0.12499306E+03</pdfrwt>
<pdfrwt beam="2">  1       -4 0.19902761E-01 0.12499306E+03</pdfrwt>
<totfact> 0.97442982E+03</totfact>
</mgrwt>
</event>
<event>
 5    1  0.3277540E-002  0.1250026E+03  0.7818608E-02  0.1235065E+00
          4   -1    0    0  501    0  0.00000000000E+00  0.00000000000E+00  0.23812749522E+01  0.26987720167E+01  0.12700000000E+01 0.  1.
         -4   -1    0    0    0  501 -0.00000000000E+00 -0.00000000000E+00 -0.15376260915E+04  0.15376266160E+04  0.12700000000E+01 0.  1.
         25    2    1    2    0    0  0.00000000000E+00  0.00000000000E+00 -0.15352448165E+04  0.15403253880E+04  0.12500261662E+03 0.  0.
    9000005    1    3    3    0    0 -0.40362277777E+02  0.30432570248E+02 -0.31484391922E+03  0.31887763840E+03  0.10000000000E+01 0.  0.
    9000005    1    3    3    0    0  0.40362277777E+02 -0.30432570248E+02 -0.12204008973E+04  0.12214477496E+04  0.10000000000E+01 0.  0.
<mgrwt>
<rscale>  0 0.12500262E+03</rscale>
<asrwt>0</asrwt>
<pdfrwt beam="1">  1        4 0.39081442E-03 0.12500262E+03</pdfrwt>
<pdfrwt beam="2">  1       -4 0.23658158E+00 0.12500262E+03</pdfrwt>
<totfact> 0.17150312E+03</totfact>
</mgrwt>
</event>
<event>
 5    1  0.3277540E-002  0.1250022E+03  0.7818608E-02  0.1235066E+00
         -4   -1    0    0    0  501 -0.00000000000E+00  0.00000000000E+00  0.31369661907E+02  0.31395359341E+02  0.12700000000E+01 0. -1.
          4   -1    0    0  501    0  0.00000000000E+00 -0.00000000000E+00 -0.12444756796E+03  0.12445404803E+03  0.12700000000E+01 0. -1.
         25    2    1    2    0    0  0.00000000000E+00  0.00000000000E+00 -0.93077906048E+02  0.15584940737E+03  0.12500216471E+03 0.  0.
    9000005    1    3    3    0    0 -0.20172434148E+01  0.32002448878E+02 -0.11341484300E+03  0.11786497622E+03  0.10000000000E+01 0.  0.
    9000005    1    3    3    0    0  0.20172434148E+01 -0.32002448878E+02  0.20336936954E+02  0.37984431151E+02  0.10000000000E+01 0.  0.
<mgrwt>
<rscale>  0 0.12500216E+03</rscale>
<asrwt>0</asrwt>
<pdfrwt beam="2">  1        4 0.19148255E-01 0.12500216E+03</pdfrwt>
<pdfrwt beam="1">  1       -4 0.48285771E-02 0.12500216E+03</pdfrwt>
<totfact> 0.98144230E+03</totfact>
</mgrwt>
</event>
<event>
 5    1  0.3277540E-002  0.1249963E+03  0.7818608E-02  0.1235075E+00
          4   -1    0    0  501    0  0.00000000000E+00  0.00000000000E+00  0.10784486594E+03  0.10785234355E+03  0.12700000000E+01 0. -1.
         -4   -1    0    0    0  501 -0.00000000000E+00 -0.00000000000E+00 -0.36199007602E+02  0.36221278986E+02  0.12700000000E+01 0. -1.
         25    2    1    2    0    0  0.00000000000E+00  0.00000000000E+00  0.71645858339E+02  0.14407362254E+03  0.12499631872E+03 0.  0.
    9000005    1    3    3    0    0 -0.56924920019E+02 -0.38643585834E+01  0.64448309814E+01  0.57427481512E+02  0.10000000000E+01 0.  0.
    9000005    1    3    3    0    0  0.56924920019E+02  0.38643585834E+01  0.65201027357E+02  0.86646141027E+02  0.10000000000E+01 0.  0.
<mgrwt>
<rscale>  0 0.12499632E+03</rscale>
<asrwt>0</asrwt>
<pdfrwt beam="1">  1        4 0.16593806E-01 0.12499632E+03</pdfrwt>
<pdfrwt beam="2">  1       -4 0.55713665E-02 0.12499632E+03</pdfrwt>
<totfact> 0.10050678E+04</totfact>
</mgrwt>
</event>
<event>
 5    1  0.3277540E-002  0.1250024E+03  0.7818608E-02  0.1235066E+00
          4   -1    0    0  501    0  0.00000000000E+00  0.00000000000E+00  0.73441258619E+02  0.73452238683E+02  0.12700000000E+01 0.  1.
         -4   -1    0    0    0  501 -0.00000000000E+00 -0.00000000000E+00 -0.53168250155E+02  0.53183415879E+02  0.12700000000E+01 0.  1.
         25    2    1    2    0    0  0.00000000000E+00  0.00000000000E+00  0.20273008463E+02  0.12663565456E+03  0.12500237651E+03 0.  0.
    9000005    1    3    3    0    0 -0.16611799642E+02 -0.60162098673E+02  0.13335055212E+02  0.63829880946E+02  0.10000000000E+01 0.  0.
    9000005    1    3    3    0    0  0.16611799642E+02  0.60162098673E+02  0.69379532516E+01  0.62805773615E+02  0.10000000000E+01 0.  0.
<mgrwt>
<rscale>  0 0.12500238E+03</rscale>
<asrwt>0</asrwt>
<pdfrwt beam="1">  1        4 0.11300666E-01 0.12500238E+03</pdfrwt>
<pdfrwt beam="2">  1       -4 0.81817421E-02 0.12500238E+03</pdfrwt>
<totfact> 0.10416513E+04</totfact>
</mgrwt>
</event>
<event>
 5    1  0.3277540E-002  0.1249984E+03  0.7818608E-02  0.1235072E+00
         -4   -1    0    0    0  501 -0.00000000000E+00  0.00000000000E+00  0.20240212025E+03  0.20240610461E+03  0.12700000000E+01 0. -1.
          4   -1    0    0  501    0  0.00000000000E+00 -0.00000000000E+00 -0.19273890060E+02  0.19315686321E+02  0.12700000000E+01 0. -1.
         25    2    1    2    0    0  0.00000000000E+00  0.00000000000E+00  0.18312823019E+03  0.22172179093E+03  0.12499841551E+03 0.  0.
    9000005    1    3    3    0    0 -0.96460083647E+01 -0.41196009084E+01 -0.17710037972E+02  0.20607329618E+02  0.10000000000E+01 0.  0.
    9000005    1    3    3    0    0  0.96460083647E+01  0.41196009084E+01  0.20083826816E+03  0.20111446131E+03  0.10000000000E+01 0.  0.
<mgrwt>
<rscale>  0 0.12499842E+03</rscale>
<asrwt>0</asrwt>
<pdfrwt beam="2">  1        4 0.29687354E-02 0.12499842E+03</pdfrwt>
<pdfrwt beam="1">  1       -4 0.31142309E-01 0.12499842E+03</pdfrwt>
<totfact> 0.86599694E+03</totfact>
</mgrwt>
</event>
<event>
 5    1  0.3277540E-002  0.1250034E+03  0.7818608E-02  0.1235064E+00
          4   -1    0    0  501    0  0.00000000000E+00  0.00000000000E+00  0.18071269677E+02  0.18115840796E+02  0.12700000000E+01 0. -1.
         -4   -1    0    0    0  501 -0.00000000000E+00 -0.00000000000E+00 -0.21585698390E+03  0.21586071991E+03  0.12700000000E+01 0. -1.
         25    2    1    2    0    0  0.00000000000E+00  0.00000000000E+00 -0.19778571422E+03  0.23397656070E+03  0.12500336878E+03 0.  0.
    9000005    1    3    3    0    0 -0.63814631833E+01  0.62106095488E+02 -0.10404288464E+03  0.12134171588E+03  0.10000000000E+01 0.  0.
    9000005    1    3    3    0    0  0.63814631833E+01 -0.62106095488E+02 -0.93742829589E+02  0.11263484482E+03  0.10000000000E+01 0.  0.
<mgrwt>
<rscale>  0 0.12500337E+03</rscale>
<asrwt>0</asrwt>
<pdfrwt beam="1">  1        4 0.27839114E-02 0.12500337E+03</pdfrwt>
<pdfrwt beam="2">  1       -4 0.33212481E-01 0.12500337E+03</pdfrwt>
<totfact> 0.84696346E+03</totfact>
</mgrwt>
</event>
<event>
 5    1  0.3277540E-002  0.1250024E+03  0.7818608E-02  0.1235066E+00
         -4   -1    0    0    0  501 -0.00000000000E+00  0.00000000000E+00  0.15190141626E+02  0.15243139526E+02  0.12700000000E+01 0. -1.
          4   -1    0    0  501    0  0.00000000000E+00 -0.00000000000E+00 -0.25666441188E+03  0.25666755390E+03  0.12700000000E+01 0. -1.
         25    2    1    2    0    0  0.00000000000E+00  0.00000000000E+00 -0.24147427025E+03  0.27191069342E+03  0.12500240800E+03 0.  0.
    9000005    1    3    3    0    0 -0.17236459454E+02  0.50682067699E+02 -0.50600014533E+02  0.73669050432E+02  0.10000000000E+01 0.  0.
    9000005    1    3    3    0    0  0.17236459454E+02 -0.50682067699E+02 -0.19087425572E+03  0.19824164299E+03  0.10000000000E+01 0.  0.
<mgrwt>
<rscale>  0 0.12500241E+03</rscale>
<asrwt>0</asrwt>
<pdfrwt beam="2">  1        4 0.39491148E-01 0.12500241E+03</pdfrwt>
<pdfrwt beam="1">  1       -4 0.23412635E-02 0.12500241E+03</pdfrwt>
<totfact> 0.79258818E+03</totfact>
</mgrwt>
</event>
<event>
 5    1  0.3277540E-002  0.1250143E+03  0.7818608E-02  0.1235047E+00
         -4   -1    0    0    0  501 -0.00000000000E+00  0.00000000000E+00  0.98158804725E+02  0.98167020149E+02  0.12700000000E+01 0. -1.
          4   -1    0    0  501    0  0.00000000000E+00 -0.00000000000E+00 -0.39784315232E+02  0.39804580622E+02  0.12700000000E+01 0. -1.
         25    2    1    2    0    0  0.00000000000E+00  0.00000000000E+00  0.58374489492E+02  0.13797160077E+03  0.12501432556E+03 0.  0.
    9000005    1    3    3    0    0  0.45330118718E+02 -0.42301858611E+02  0.20505644413E+02  0.65312696757E+02  0.10000000000E+01 0.  0.
    9000005    1    3    3    0    0 -0.45330118718E+02  0.42301858611E+02  0.37868845079E+02  0.72658904014E+02  0.10000000000E+01 0.  0.
<mgrwt>
<rscale>  0 0.12501433E+03</rscale>
<asrwt>0</asrwt>
<pdfrwt beam="2">  1        4 0.61228548E-02 0.12501433E+03</pdfrwt>
<pdfrwt beam="1">  1       -4 0.15103545E-01 0.12501433E+03</pdfrwt>
<totfact> 0.10172515E+04</totfact>
</mgrwt>
</event>
<event>
 5    1  0.3277540E-002  0.1249960E+03  0.7818608E-02  0.1235075E+00
         -4   -1    0    0    0  501 -0.00000000000E+00  0.00000000000E+00  0.39147608161E+01  0.41156107988E+01  0.12700000000E+01 0. -1.
          4   -1    0    0  501    0  0.00000000000E+00 -0.00000000000E+00 -0.97260588339E+03  0.97260671255E+03  0.12700000000E+01 0. -1.
         25    2    1    2    0    0  0.00000000000E+00  0.00000000000E+00 -0.96869112257E+03  0.97672232335E+03  0.12499602386E+03 0.  0.
    9000005    1    3    3    0    0 -0.27906830352E+02 -0.55902946763E+02 -0.49243169555E+03  0.49638080686E+03  0.10000000000E+01 0.  0.
    9000005    1    3    3    0    0  0.27906830352E+02  0.55902946763E+02 -0.47625942702E+03  0.48034151649E+03  0.10000000000E+01 0.  0.
<mgrwt>
<rscale>  0 0.12499602E+03</rscale>
<asrwt>0</asrwt>
<pdfrwt beam="2">  1        4 0.14964700E+00 0.12499602E+03</pdfrwt>
<pdfrwt beam="1">  1       -4 0.61778545E-03 0.12499602E+03</pdfrwt>
<totfact> 0.31388580E+03</totfact>
</mgrwt>
</event>
<event>
 5    1  0.3277540E-002  0.1249487E+03  0.7818608E-02  0.1235150E+00
         -4   -1    0    0    0  501 -0.00000000000E+00  0.00000000000E+00  0.43060295800E+02  0.43079020119E+02  0.12700000000E+01 0.  1.
          4   -1    0    0  501    0  0.00000000000E+00 -0.00000000000E+00 -0.90598458072E+02  0.90607359001E+02  0.12700000000E+01 0.  1.
         25    2    1    2    0    0  0.00000000000E+00  0.00000000000E+00 -0.47538162272E+02  0.13368637912E+03  0.12494867382E+03 0.  0.
    9000005    1    3    3    0    0 -0.38494171845E+01 -0.31533368122E+02 -0.81315735227E+02  0.87306472345E+02  0.10000000000E+01 0.  0.
    9000005    1    3    3    0    0  0.38494171845E+01  0.31533368122E+02  0.33777572955E+02  0.46379906775E+02  0.10000000000E+01 0.  0.
<mgrwt>
<rscale>  0 0.12494867E+03</rscale>
<asrwt>0</asrwt>
<pdfrwt beam="2">  1        4 0.13940349E-01 0.12494867E+03</pdfrwt>
<pdfrwt beam="1">  1       -4 0.66267859E-02 0.12494867E+03</pdfrwt>
<totfact> 0.10277727E+04</totfact>
</mgrwt>
</event>
<event>
 5    1  0.3277540E-002  0.1249987E+03  0.7818608E-02  0.1235071E+00
         -4   -1    0    0    0  501 -0.00000000000E+00  0.00000000000E+00  0.38057101060E+02  0.38078285690E+02  0.12700000000E+01 0. -1.
          4   -1    0    0  501    0  0.00000000000E+00 -0.00000000000E+00 -0.10258608624E+03  0.10259394714E+03  0.12700000000E+01 0. -1.
         25    2    1    2    0    0  0.00000000000E+00  0.00000000000E+00 -0.64528985180E+02  0.14067223283E+03  0.12499874864E+03 0.  0.
    9000005    1    3    3    0    0 -0.62103611616E+02 -0.66677079552E+01 -0.30054919155E+02  0.69322543740E+02  0.10000000000E+01 0.  0.
    9000005    1    3    3    0    0  0.62103611616E+02  0.66677079552E+01 -0.34474066025E+02  0.71349689091E+02  0.10000000000E+01 0.  0.
<mgrwt>
<rscale>  0 0.12499875E+03</rscale>
<asrwt>0</asrwt>
<pdfrwt beam="2">  1        4 0.15784709E-01 0.12499875E+03</pdfrwt>
<pdfrwt beam="1">  1       -4 0.58571729E-02 0.12499875E+03</pdfrwt>
<totfact> 0.10119958E+04</totfact>
</mgrwt>
</event>
<event>
 4    1  0.3277540E-002  0.1259702E+03  0.7818608E-02  0.1233561E+00
         -4   -1    0    0    0  501 -0.00000000000E+00  0.00000000000E+00  0.13371251522E+04  0.13371257553E+04  0.12700000000E+01 0.  1.
          4   -1    0    0  501    0  0.00000000000E+00 -0.00000000000E+00 -0.28303658369E+01  0.31022364143E+01  0.12700000000E+01 0.  1.
    9000005    1    1    2    0    0 -0.16093086126E+02  0.54041895596E+02  0.36875318486E+03  0.37304078229E+03  0.10000000000E+01 0.  0.
    9000005    1    1    2    0    0  0.16093086126E+02 -0.54041895596E+02  0.96554160152E+03  0.96718720947E+03  0.10000000000E+01 0.  0.
<mgrwt>
<rscale>  0 0.12597021E+03</rscale>
<asrwt>0</asrwt>
<pdfrwt beam="2">  1        4 0.45640028E-03 0.12597021E+03</pdfrwt>
<pdfrwt beam="1">  1       -4 0.20573258E+00 0.12597021E+03</pdfrwt>
<totfact> 0.20853675E+03</totfact>
</mgrwt>
</event>
<event>
 5    1  0.3277540E-002  0.1249994E+03  0.7818608E-02  0.1235070E+00
         -4   -1    0    0    0  501 -0.00000000000E+00  0.00000000000E+00  0.23727673543E+02  0.23761636976E+02  0.12700000000E+01 0.  1.
          4   -1    0    0  501    0  0.00000000000E+00 -0.00000000000E+00 -0.16447277046E+03  0.16447767363E+03  0.12700000000E+01 0.  1.
         25    2    1    2    0    0  0.00000000000E+00  0.00000000000E+00 -0.14074509692E+03  0.18823931061E+03  0.12499942301E+03 0.  0.
    9000005    1    3    3    0    0 -0.31597067524E+02  0.41074766101E+02 -0.12296571684E+03  0.13344316620E+03  0.10000000000E+01 0.  0.
    9000005    1    3    3    0    0  0.31597067524E+02 -0.41074766101E+02 -0.17779380076E+02  0.54796144411E+02  0.10000000000E+01 0.  0.
<mgrwt>
<rscale>  0 0.12499942E+03</rscale>
<asrwt>0</asrwt>
<pdfrwt beam="2">  1        4 0.25306492E-01 0.12499942E+03</pdfrwt>
<pdfrwt beam="1">  1       -4 0.36534012E-02 0.12499942E+03</pdfrwt>
<totfact> 0.92155766E+03</totfact>
</mgrwt>
</event>
<event>
 5    1  0.3277540E-002  0.1250006E+03  0.7818608E-02  0.1235068E+00
          4   -1    0    0  501    0  0.00000000000E+00  0.00000000000E+00  0.14788899771E+03  0.14789445069E+03  0.12700000000E+01 0.  1.
         -4   -1    0    0    0  501 -0.00000000000E+00 -0.00000000000E+00 -0.26392440046E+02  0.26422978477E+02  0.12700000000E+01 0.  1.
         25    2    1    2    0    0  0.00000000000E+00  0.00000000000E+00  0.12149655766E+03  0.17431742916E+03  0.12500061034E+03 0.  0.
    9000005    1    3    3    0    0  0.20097625389E+02 -0.39648753277E+02  0.12200224077E+03  0.12985178064E+03  0.10000000000E+01 0.  0.
    9000005    1    3    3    0    0 -0.20097625389E+02  0.39648753277E+02 -0.50568311083E+00  0.44465648518E+02  0.10000000000E+01 0.  0.
<mgrwt>
<rscale>  0 0.12500061E+03</rscale>
<asrwt>0</asrwt>
<pdfrwt beam="1">  1        4 0.22754923E-01 0.12500061E+03</pdfrwt>
<pdfrwt beam="2">  1       -4 0.40631438E-02 0.12500061E+03</pdfrwt>
<totfact> 0.94648704E+03</totfact>
</mgrwt>
</event>
<event>
 5    1  0.3277540E-002  0.1250010E+03  0.7818608E-02  0.1235068E+00
         -4   -1    0    0    0  501 -0.00000000000E+00  0.00000000000E+00  0.10772963396E+04  0.10772970882E+04  0.12700000000E+01 0. -1.
          4   -1    0    0  501    0  0.00000000000E+00 -0.00000000000E+00 -0.35140551534E+01  0.37365068743E+01  0.12700000000E+01 0. -1.
         25    2    1    2    0    0  0.00000000000E+00  0.00000000000E+00  0.10737822844E+04  0.10810335950E+04  0.12500095703E+03 0.  0.
    9000005    1    3    3    0    0 -0.12110509221E+02  0.39459079887E+01  0.10659940256E+04  0.10660705873E+04  0.10000000000E+01 0.  0.
    9000005    1    3    3    0    0  0.12110509221E+02 -0.39459079887E+01  0.77882588403E+01  0.14963007693E+02  0.10000000000E+01 0.  0.
<mgrwt>
<rscale>  0 0.12500096E+03</rscale>
<asrwt>0</asrwt>
<pdfrwt beam="2">  1        4 0.55779151E-03 0.12500096E+03</pdfrwt>
<pdfrwt beam="1">  1       -4 0.16575555E+00 0.12500096E+03</pdfrwt>
<totfact> 0.28044538E+03</totfact>
</mgrwt>
</event>
<event>
 5    1  0.3277540E-002  0.1250005E+03  0.7818608E-02  0.1235069E+00
          4   -1    0    0  501    0  0.00000000000E+00  0.00000000000E+00  0.29001891713E+03  0.29002169780E+03  0.12700000000E+01 0.  1.
         -4   -1    0    0    0  501 -0.00000000000E+00 -0.00000000000E+00 -0.13436264416E+02  0.13496151357E+02  0.12700000000E+01 0.  1.
         25    2    1    2    0    0  0.00000000000E+00  0.00000000000E+00  0.27658265272E+03  0.30351784916E+03  0.12500048389E+03 0.  0.
    9000005    1    3    3    0    0  0.60219125234E+02  0.45585558902E+01  0.99277881575E+02  0.11620766432E+03  0.10000000000E+01 0.  0.
    9000005    1    3    3    0    0 -0.60219125234E+02 -0.45585558902E+01  0.17730477114E+03  0.18731018484E+03  0.10000000000E+01 0.  0.
<mgrwt>
<rscale>  0 0.12500048E+03</rscale>
<asrwt>0</asrwt>
<pdfrwt beam="1">  1        4 0.44623117E-01 0.12500048E+03</pdfrwt>
<pdfrwt beam="2">  1       -4 0.20719381E-02 0.12500048E+03</pdfrwt>
<totfact> 0.75158865E+03</totfact>
</mgrwt>
</event>
<event>
 5    1  0.3277540E-002  0.1249965E+03  0.7818608E-02  0.1235075E+00
          4   -1    0    0  501    0  0.00000000000E+00  0.00000000000E+00  0.41716899047E+03  0.41717092362E+03  0.12700000000E+01 0.  1.
         -4   -1    0    0    0  501 -0.00000000000E+00 -0.00000000000E+00 -0.93181533740E+01  0.94043012660E+01  0.12700000000E+01 0.  1.
         25    2    1    2    0    0  0.00000000000E+00  0.00000000000E+00  0.40785083710E+03  0.42657522488E+03  0.12499646860E+03 0.  0.
    9000005    1    3    3    0    0  0.43608666469E+01  0.31359808481E+02  0.38778640083E+03  0.38907807368E+03  0.10000000000E+01 0.  0.
    9000005    1    3    3    0    0 -0.43608666469E+01 -0.31359808481E+02  0.20064436265E+02  0.37497151205E+02  0.10000000000E+01 0.  0.
<mgrwt>
<rscale>  0 0.12499647E+03</rscale>
<asrwt>0</asrwt>
<pdfrwt beam="1">  1        4 0.64186624E-01 0.12499647E+03</pdfrwt>
<pdfrwt beam="2">  1       -4 0.14403374E-02 0.12499647E+03</pdfrwt>
<totfact> 0.62052485E+03</totfact>
</mgrwt>
</event>
<event>
 5    1  0.3277540E-002  0.1250016E+03  0.7818608E-02  0.1235067E+00
         -4   -1    0    0    0  501 -0.00000000000E+00  0.00000000000E+00  0.75714548512E+03  0.75714655023E+03  0.12700000000E+01 0. -1.
          4   -1    0    0  501    0  0.00000000000E+00 -0.00000000000E+00 -0.50800695449E+01  0.52364116131E+01  0.12700000000E+01 0. -1.
         25    2    1    2    0    0  0.00000000000E+00  0.00000000000E+00  0.75206541557E+03  0.76238296185E+03  0.12500156486E+03 0.  0.
    9000005    1    3    3    0    0  0.60806144454E+02  0.58715899549E+01  0.45636473703E+03  0.46043635388E+03  0.10000000000E+01 0.  0.
    9000005    1    3    3    0    0 -0.60806144454E+02 -0.58715899549E+01  0.29570067854E+03  0.30194660796E+03  0.10000000000E+01 0.  0.
<mgrwt>
<rscale>  0 0.12500156E+03</rscale>
<asrwt>0</asrwt>
<pdfrwt beam="2">  1        4 0.79365782E-03 0.12500156E+03</pdfrwt>
<pdfrwt beam="1">  1       -4 0.11649597E+00 0.12500156E+03</pdfrwt>
<totfact> 0.39987399E+03</totfact>
</mgrwt>
</event>
<event>
 5    1  0.3277540E-002  0.1250015E+03  0.7818608E-02  0.1235067E+00
         -4   -1    0    0    0  501 -0.00000000000E+00  0.00000000000E+00  0.45302098356E+01  0.47048593129E+01  0.12700000000E+01 0.  1.
          4   -1    0    0  501    0  0.00000000000E+00 -0.00000000000E+00 -0.84580514766E+03  0.84580610113E+03  0.12700000000E+01 0.  1.
         25    2    1    2    0    0  0.00000000000E+00  0.00000000000E+00 -0.84127493782E+03  0.85051096044E+03  0.12500149128E+03 0.  0.
    9000005    1    3    3    0    0  0.55691431940E+02 -0.27291315494E+02 -0.47289636385E+03  0.47694687590E+03  0.10000000000E+01 0.  0.
    9000005    1    3    3    0    0 -0.55691431940E+02  0.27291315494E+02 -0.36837857397E+03  0.37356408454E+03  0.10000000000E+01 0.  0.
<mgrwt>
<rscale>  0 0.12500149E+03</rscale>
<asrwt>0</asrwt>
<pdfrwt beam="2">  1        4 0.13013725E+00 0.12500149E+03</pdfrwt>
<pdfrwt beam="1">  1       -4 0.71046395E-03 0.12500149E+03</pdfrwt>
<totfact> 0.36105278E+03</totfact>
</mgrwt>
</event>
<event>
 5    1  0.3277540E-002  0.1249932E+03  0.7818608E-02  0.1235080E+00
          4   -1    0    0  501    0  0.00000000000E+00  0.00000000000E+00  0.15833664341E+03  0.15834173659E+03  0.12700000000E+01 0.  1.
         -4   -1    0    0    0  501 -0.00000000000E+00 -0.00000000000E+00 -0.24646007613E+02  0.24678707245E+02  0.12700000000E+01 0.  1.
         25    2    1    2    0    0  0.00000000000E+00  0.00000000000E+00  0.13369063579E+03  0.18302044383E+03  0.12499318686E+03 0.  0.
    9000005    1    3    3    0    0 -0.40437047118E+02 -0.95638584215E+00  0.13658934777E+03  0.14245602612E+03  0.10000000000E+01 0.  0.
    9000005    1    3    3    0    0  0.40437047118E+02  0.95638584215E+00 -0.28987119728E+01  0.40564417716E+02  0.10000000000E+01 0.  0.
<mgrwt>
<rscale>  0 0.12499319E+03</rscale>
<asrwt>0</asrwt>
<pdfrwt beam="1">  1        4 0.24362392E-01 0.12499319E+03</pdfrwt>
<pdfrwt beam="2">  1       -4 0.37946005E-02 0.12499319E+03</pdfrwt>
<totfact> 0.93090336E+03</totfact>
</mgrwt>
</event>
<event>
 5    1  0.3277540E-002  0.1250175E+03  0.7818608E-02  0.1235042E+00
         -4   -1    0    0    0  501 -0.00000000000E+00  0.00000000000E+00  0.73276070327E+02  0.73287075140E+02  0.12700000000E+01 0. -1.
          4   -1    0    0  501    0  0.00000000000E+00 -0.00000000000E+00 -0.53301041541E+02  0.53316169493E+02  0.12700000000E+01 0. -1.
         25    2    1    2    0    0  0.00000000000E+00  0.00000000000E+00  0.19975028786E+02  0.12660324463E+03  0.12501751788E+03 0.  0.
    9000005    1    3    3    0    0 -0.21084052529E+02 -0.56675634420E+02  0.25989208359E+02  0.65826315096E+02  0.10000000000E+01 0.  0.
    9000005    1    3    3    0    0  0.21084052529E+02  0.56675634420E+02 -0.60141795727E+01  0.60776929537E+02  0.10000000000E+01 0.  0.
<mgrwt>
<rscale>  0 0.12501752E+03</rscale>
<asrwt>0</asrwt>
<pdfrwt beam="2">  1        4 0.82021705E-02 0.12501752E+03</pdfrwt>
<pdfrwt beam="1">  1       -4 0.11275252E-01 0.12501752E+03</pdfrwt>
<totfact> 0.10413659E+04</totfact>
</mgrwt>
</event>
<event>
 5    1  0.3277540E-002  0.1249983E+03  0.7818608E-02  0.1235072E+00
         -4   -1    0    0    0  501 -0.00000000000E+00  0.00000000000E+00  0.65935847445E+03  0.65935969753E+03  0.12700000000E+01 0. -1.
          4   -1    0    0  501    0  0.00000000000E+00 -0.00000000000E+00 -0.58548546671E+01  0.59910118655E+01  0.12700000000E+01 0. -1.
         25    2    1    2    0    0  0.00000000000E+00  0.00000000000E+00  0.65350361978E+03  0.66535070939E+03  0.12499834169E+03 0.  0.
    9000005    1    3    3    0    0  0.51680755429E+01  0.61415612682E+02  0.38169871235E+03  0.38664388460E+03  0.10000000000E+01 0.  0.
    9000005    1    3    3    0    0 -0.51680755429E+01 -0.61415612682E+02  0.27180490743E+03  0.27870682479E+03  0.10000000000E+01 0.  0.
<mgrwt>
<rscale>  0 0.12499834E+03</rscale>
<asrwt>0</asrwt>
<pdfrwt beam="2">  1        4 0.91131474E-03 0.12499834E+03</pdfrwt>
<pdfrwt beam="1">  1       -4 0.10145032E+00 0.12499834E+03</pdfrwt>
<totfact> 0.44981555E+03</totfact>
</mgrwt>
</event>
<event>
 5    1  0.3277540E-002  0.1250038E+03  0.7818608E-02  0.1235063E+00
         -4   -1    0    0    0  501 -0.00000000000E+00  0.00000000000E+00  0.41267086261E+03  0.41267281682E+03  0.12700000000E+01 0.  1.
          4   -1    0    0  501    0  0.00000000000E+00 -0.00000000000E+00 -0.94217664732E+01  0.95069755167E+01  0.12700000000E+01 0.  1.
         25    2    1    2    0    0  0.00000000000E+00  0.00000000000E+00  0.40324909613E+03  0.42217979234E+03  0.12500377405E+03 0.  0.
    9000005    1    3    3    0    0 -0.51978664585E+02 -0.40092351558E+01  0.31801435807E+03  0.32226074455E+03  0.10000000000E+01 0.  0.
    9000005    1    3    3    0    0  0.51978664585E+02  0.40092351558E+01  0.85234738061E+02  0.99919047788E+02  0.10000000000E+01 0.  0.
<mgrwt>
<rscale>  0 0.12500377E+03</rscale>
<asrwt>0</asrwt>
<pdfrwt beam="2">  1        4 0.14562074E-02 0.12500377E+03</pdfrwt>
<pdfrwt beam="1">  1       -4 0.63494530E-01 0.12500377E+03</pdfrwt>
<totfact> 0.62446099E+03</totfact>
</mgrwt>
</event>
<event>
 5    1  0.3277540E-002  0.1249997E+03  0.7818608E-02  0.1235070E+00
         -4   -1    0    0    0  501 -0.00000000000E+00  0.00000000000E+00  0.54796719996E+03  0.54796867167E+03  0.12700000000E+01 0. -1.
          4   -1    0    0  501    0  0.00000000000E+00 -0.00000000000E+00 -0.70705280496E+01  0.71836805957E+01  0.12700000000E+01 0. -1.
         25    2    1    2    0    0  0.00000000000E+00  0.00000000000E+00  0.54089667191E+03  0.55515235227E+03  0.12499969817E+03 0.  0.
    9000005    1    3    3    0    0  0.89663407610E+01 -0.33267004452E+02  0.38901253444E+02  0.51974959080E+02  0.10000000000E+01 0.  0.
    9000005    1    3    3    0    0 -0.89663407610E+01  0.33267004452E+02  0.50199541847E+03  0.50317739319E+03  0.10000000000E+01 0.  0.
<mgrwt>
<rscale>  0 0.12499970E+03</rscale>
<asrwt>0</asrwt>
<pdfrwt beam="2">  1        4 0.10965900E-02 0.12499970E+03</pdfrwt>
<pdfrwt beam="1">  1       -4 0.84311523E-01 0.12499970E+03</pdfrwt>
<totfact> 0.51827002E+03</totfact>
</mgrwt>
</event>
<event>
 5    1  0.3277540E-002  0.1249982E+03  0.7818608E-02  0.1235072E+00
         -4   -1    0    0    0  501 -0.00000000000E+00  0.00000000000E+00  0.28727198079E+03  0.28727478804E+03  0.12700000000E+01 0.  1.
          4   -1    0    0  501    0  0.00000000000E+00 -0.00000000000E+00 -0.13564805961E+02  0.13624127890E+02  0.12700000000E+01 0.  1.
         25    2    1    2    0    0  0.00000000000E+00  0.00000000000E+00  0.27370717483E+03  0.30089891593E+03  0.12499816022E+03 0.  0.
    9000005    1    3    3    0    0 -0.58453366628E+02  0.52950490571E+01  0.85207413897E+02  0.10347046437E+03  0.10000000000E+01 0.  0.
    9000005    1    3    3    0    0  0.58453366628E+02 -0.52950490571E+01  0.18849976093E+03  0.19742845156E+03  0.10000000000E+01 0.  0.
<mgrwt>
<rscale>  0 0.12499816E+03</rscale>
<asrwt>0</asrwt>
<pdfrwt beam="2">  1        4 0.20916724E-02 0.12499816E+03</pdfrwt>
<pdfrwt beam="1">  1       -4 0.44200468E-01 0.12499816E+03</pdfrwt>
<totfact> 0.75489300E+03</totfact>
</mgrwt>
</event>
<event>
 5    1  0.3277540E-002  0.1249967E+03  0.7818608E-02  0.1235074E+00
         -4   -1    0    0    0  501 -0.00000000000E+00  0.00000000000E+00  0.46201189925E+03  0.46201364476E+03  0.12700000000E+01 0.  1.
          4   -1    0    0  501    0  0.00000000000E+00 -0.00000000000E+00 -0.84049540826E+01  0.85003619412E+01  0.12700000000E+01 0.  1.
         25    2    1    2    0    0  0.00000000000E+00  0.00000000000E+00  0.45360694516E+03  0.47051400670E+03  0.12499667916E+03 0.  0.
    9000005    1    3    3    0    0  0.39846883781E+02 -0.21500595579E+01  0.40782433046E+03  0.40977320730E+03  0.10000000000E+01 0.  0.
    9000005    1    3    3    0    0 -0.39846883781E+02  0.21500595579E+01  0.45782614699E+02  0.60740799400E+02  0.10000000000E+01 0.  0.
<mgrwt>
<rscale>  0 0.12499668E+03</rscale>
<asrwt>0</asrwt>
<pdfrwt beam="2">  1        4 0.13005433E-02 0.12499668E+03</pdfrwt>
<pdfrwt beam="1">  1       -4 0.71086222E-01 0.12499668E+03</pdfrwt>
<totfact> 0.58231223E+03</totfact>
</mgrwt>
</event>
<event>
 5    1  0.3277540E-002  0.1249990E+03  0.7818608E-02  0.1235071E+00
         -4   -1    0    0    0  501 -0.00000000000E+00  0.00000000000E+00  0.29315033438E+02  0.29342530319E+02  0.12700000000E+01 0.  1.
          4   -1    0    0  501    0  0.00000000000E+00 -0.00000000000E+00 -0.13315552820E+03  0.13316158452E+03  0.12700000000E+01 0.  1.
         25    2    1    2    0    0  0.00000000000E+00  0.00000000000E+00 -0.10384049476E+03  0.16250411483E+03  0.12499895594E+03 0.  0.
    9000005    1    3    3    0    0  0.55318718847E-01  0.31596396248E+02  0.18171880587E+02  0.36463030045E+02  0.10000000000E+01 0.  0.
    9000005    1    3    3    0    0 -0.55318718847E-01 -0.31596396248E+02 -0.12201237535E+03  0.12604108479E+03  0.10000000000E+01 0.  0.
<mgrwt>
<rscale>  0 0.12499896E+03</rscale>
<asrwt>0</asrwt>
<pdfrwt beam="2">  1        4 0.20488047E-01 0.12499896E+03</pdfrwt>
<pdfrwt beam="1">  1       -4 0.45125862E-02 0.12499896E+03</pdfrwt>
<totfact> 0.96864445E+03</totfact>
</mgrwt>
</event>
<event>
 5    1  0.3277540E-002  0.1249925E+03  0.7818608E-02  0.1235081E+00
          4   -1    0    0  501    0  0.00000000000E+00  0.00000000000E+00  0.86347897742E+01  0.87276855148E+01  0.12700000000E+01 0. -1.
         -4   -1    0    0    0  501 -0.00000000000E+00 -0.00000000000E+00 -0.44981700164E+03  0.44981879447E+03  0.12700000000E+01 0. -1.
         25    2    1    2    0    0  0.00000000000E+00  0.00000000000E+00 -0.44118221186E+03  0.45854647999E+03  0.12499252076E+03 0.  0.
    9000005    1    3    3    0    0  0.41528363120E+02  0.40062604733E+02 -0.13260873050E+03  0.14462258691E+03  0.10000000000E+01 0.  0.
    9000005    1    3    3    0    0 -0.41528363120E+02 -0.40062604733E+02 -0.30857348137E+03  0.31392389307E+03  0.10000000000E+01 0.  0.
<mgrwt>
<rscale>  0 0.12499252E+03</rscale>
<asrwt>0</asrwt>
<pdfrwt beam="1">  1        4 0.13357133E-02 0.12499252E+03</pdfrwt>
<pdfrwt beam="2">  1       -4 0.69209881E-01 0.12499252E+03</pdfrwt>
<totfact> 0.59240263E+03</totfact>
</mgrwt>
</event>
<event>
 5    1  0.3277540E-002  0.1250015E+03  0.7818608E-02  0.1235067E+00
          4   -1    0    0  501    0  0.00000000000E+00  0.00000000000E+00  0.57287630575E+03  0.57287771346E+03  0.12700000000E+01 0.  1.
         -4   -1    0    0    0  501 -0.00000000000E+00 -0.00000000000E+00 -0.67582590624E+01  0.68765518652E+01  0.12700000000E+01 0.  1.
         25    2    1    2    0    0  0.00000000000E+00  0.00000000000E+00  0.56611804668E+03  0.57975426533E+03  0.12500146154E+03 0.  0.
    9000005    1    3    3    0    0 -0.32593821820E+02  0.41414228899E+02  0.12729981927E+03  0.13778149209E+03  0.10000000000E+01 0.  0.
    9000005    1    3    3    0    0  0.32593821820E+02 -0.41414228899E+02  0.43881822741E+03  0.44197277324E+03  0.10000000000E+01 0.  0.
<mgrwt>
<rscale>  0 0.12500146E+03</rscale>
<asrwt>0</asrwt>
<pdfrwt beam="1">  1        4 0.88144063E-01 0.12500146E+03</pdfrwt>
<pdfrwt beam="2">  1       -4 0.10489394E-02 0.12500146E+03</pdfrwt>
<totfact> 0.50169410E+03</totfact>
</mgrwt>
</event>
<event>
 5    1  0.3277540E-002  0.1250002E+03  0.7818608E-02  0.1235069E+00
          4   -1    0    0  501    0  0.00000000000E+00  0.00000000000E+00  0.19603137812E+03  0.19603549196E+03  0.12700000000E+01 0.  1.
         -4   -1    0    0    0  501 -0.00000000000E+00 -0.00000000000E+00 -0.19902161108E+02  0.19942640667E+02  0.12700000000E+01 0.  1.
         25    2    1    2    0    0  0.00000000000E+00  0.00000000000E+00  0.17612921702E+03  0.21597813263E+03  0.12500021075E+03 0.  0.
    9000005    1    3    3    0    0 -0.48302035934E+02 -0.18333030194E+01  0.15650066434E+03  0.16379836878E+03  0.10000000000E+01 0.  0.
    9000005    1    3    3    0    0  0.48302035934E+02  0.18333030194E+01  0.19628552674E+02  0.52179763850E+02  0.10000000000E+01 0.  0.
<mgrwt>
<rscale>  0 0.12500021E+03</rscale>
<asrwt>0</asrwt>
<pdfrwt beam="1">  1        4 0.30162104E-01 0.12500021E+03</pdfrwt>
<pdfrwt beam="2">  1       -4 0.30653012E-02 0.12500021E+03</pdfrwt>
<totfact> 0.87508373E+03</totfact>
</mgrwt>
</event>
<event>
 5    1  0.3277540E-002  0.1249991E+03  0.7818608E-02  0.1235071E+00
          4   -1    0    0  501    0  0.00000000000E+00  0.00000000000E+00  0.11340564196E+03  0.11341275294E+03  0.12700000000E+01 0. -1.
         -4   -1    0    0    0  501 -0.00000000000E+00 -0.00000000000E+00 -0.34424525209E+02  0.34447943856E+02  0.12700000000E+01 0. -1.
         25    2    1    2    0    0  0.00000000000E+00  0.00000000000E+00  0.78981116751E+02  0.14786069679E+03  0.12499907541E+03 0.  0.
    9000005    1    3    3    0    0  0.27017124526E+01  0.19647970559E+02 -0.30608783414E+02  0.36486156543E+02  0.10000000000E+01 0.  0.
    9000005    1    3    3    0    0 -0.27017124526E+01 -0.19647970559E+02  0.10958990017E+03  0.11137454025E+03  0.10000000000E+01 0.  0.
<mgrwt>
<rscale>  0 0.12499908E+03</rscale>
<asrwt>0</asrwt>
<pdfrwt beam="1">  1        4 0.17449370E-01 0.12499908E+03</pdfrwt>
<pdfrwt beam="2">  1       -4 0.52984292E-02 0.12499908E+03</pdfrwt>
<totfact> 0.99733933E+03</totfact>
</mgrwt>
</event>
<event>
 5    1  0.3277540E-002  0.1250010E+03  0.7818608E-02  0.1235068E+00
          4   -1    0    0  501    0  0.00000000000E+00  0.00000000000E+00  0.13778916211E+02  0.13837320259E+02  0.12700000000E+01 0.  1.
         -4   -1    0    0    0  501 -0.00000000000E+00 -0.00000000000E+00 -0.28283985314E+03  0.28284270438E+03  0.12700000000E+01 0.  1.
         25    2    1    2    0    0  0.00000000000E+00  0.00000000000E+00 -0.26906093693E+03  0.29668002464E+03  0.12500099696E+03 0.  0.
    9000005    1    3    3    0    0 -0.46429499326E+02  0.17818970298E+01 -0.35344209866E+02  0.58387385074E+02  0.10000000000E+01 0.  0.
    9000005    1    3    3    0    0  0.46429499326E+02 -0.17818970298E+01 -0.23371672706E+03  0.23829263957E+03  0.10000000000E+01 0.  0.
<mgrwt>
<rscale>  0 0.12500100E+03</rscale>
<asrwt>0</asrwt>
<pdfrwt beam="1">  1        4 0.21245454E-02 0.12500100E+03</pdfrwt>
<pdfrwt beam="2">  1       -4 0.43518531E-01 0.12500100E+03</pdfrwt>
<totfact> 0.76015505E+03</totfact>
</mgrwt>
</event>
<event>
 5    1  0.3277540E-002  0.1250027E+03  0.7818608E-02  0.1235065E+00
         -4   -1    0    0    0  501 -0.00000000000E+00  0.00000000000E+00  0.62412377907E+02  0.62425297885E+02  0.12700000000E+01 0. -1.
          4   -1    0    0  501    0  0.00000000000E+00 -0.00000000000E+00 -0.62564631833E+02  0.62577520376E+02  0.12700000000E+01 0. -1.
         25    2    1    2    0    0  0.00000000000E+00  0.00000000000E+00 -0.15225392645E+00  0.12500281826E+03  0.12500272554E+03 0.  0.
    9000005    1    3    3    0    0  0.18664294774E+02  0.59572700081E+02 -0.29323247367E+01  0.62504887991E+02  0.10000000000E+01 0.  0.
    9000005    1    3    3    0    0 -0.18664294774E+02 -0.59572700081E+02  0.27800708103E+01  0.62497930270E+02  0.10000000000E+01 0.  0.
<mgrwt>
<rscale>  0 0.12500273E+03</rscale>
<asrwt>0</asrwt>
<pdfrwt beam="2">  1        4 0.96273132E-02 0.12500273E+03</pdfrwt>
<pdfrwt beam="1">  1       -4 0.96038896E-02 0.12500273E+03</pdfrwt>
<totfact> 0.10452157E+04</totfact>
</mgrwt>
</event>
<event>
 5    1  0.3277540E-002  0.1250002E+03  0.7818608E-02  0.1235069E+00
          4   -1    0    0  501    0  0.00000000000E+00  0.00000000000E+00  0.13660959289E+02  0.13719865476E+02  0.12700000000E+01 0. -1.
         -4   -1    0    0    0  501 -0.00000000000E+00 -0.00000000000E+00 -0.28526822453E+03  0.28527105150E+03  0.12700000000E+01 0. -1.
         25    2    1    2    0    0  0.00000000000E+00  0.00000000000E+00 -0.27160726524E+03  0.29899091698E+03  0.12500024762E+03 0.  0.
    9000005    1    3    3    0    0  0.21083823340E+02 -0.51615406279E+02 -0.20331298178E+03  0.21082183552E+03  0.10000000000E+01 0.  0.
    9000005    1    3    3    0    0 -0.21083823340E+02  0.51615406279E+02 -0.68294283460E+02  0.88169081459E+02  0.10000000000E+01 0.  0.
<mgrwt>
<rscale>  0 0.12500025E+03</rscale>
<asrwt>0</asrwt>
<pdfrwt beam="1">  1        4 0.21064350E-02 0.12500025E+03</pdfrwt>
<pdfrwt beam="2">  1       -4 0.43892163E-01 0.12500025E+03</pdfrwt>
<totfact> 0.75725176E+03</totfact>
</mgrwt>
</event>
<event>
 5    1  0.3277540E-002  0.1250020E+03  0.7818608E-02  0.1235066E+00
          4   -1    0    0  501    0  0.00000000000E+00  0.00000000000E+00  0.70002906939E+02  0.70014426227E+02  0.12700000000E+01 0. -1.
         -4   -1    0    0    0  501 -0.00000000000E+00 -0.00000000000E+00 -0.55779699605E+02  0.55794155500E+02  0.12700000000E+01 0. -1.
         25    2    1    2    0    0  0.00000000000E+00  0.00000000000E+00  0.14223207335E+02  0.12580858173E+03  0.12500199842E+03 0.  0.
    9000005    1    3    3    0    0 -0.41562516652E+02  0.21347390077E+02  0.48879033982E+02  0.67626280517E+02  0.10000000000E+01 0.  0.
    9000005    1    3    3    0    0  0.41562516652E+02 -0.21347390077E+02 -0.34655826647E+02  0.58182301211E+02  0.10000000000E+01 0.  0.
<mgrwt>
<rscale>  0 0.12500200E+03</rscale>
<asrwt>0</asrwt>
<pdfrwt beam="1">  1        4 0.10771676E-01 0.12500200E+03</pdfrwt>
<pdfrwt beam="2">  1       -4 0.85834903E-02 0.12500200E+03</pdfrwt>
<totfact> 0.10434686E+04</totfact>
</mgrwt>
</event>
<event>
 5    1  0.3277540E-002  0.1250036E+03  0.7818608E-02  0.1235064E+00
         -4   -1    0    0    0  501 -0.00000000000E+00  0.00000000000E+00  0.69952473105E+01  0.71095980853E+01  0.12700000000E+01 0.  1.
          4   -1    0    0  501    0  0.00000000000E+00 -0.00000000000E+00 -0.55380476539E+03  0.55380622159E+03  0.12700000000E+01 0.  1.
         25    2    1    2    0    0  0.00000000000E+00  0.00000000000E+00 -0.54680951808E+03  0.56091581968E+03  0.12500363073E+03 0.  0.
    9000005    1    3    3    0    0  0.13103628596E+02  0.49244685265E+02 -0.11107409791E+03  0.12220965321E+03  0.10000000000E+01 0.  0.
    9000005    1    3    3    0    0 -0.13103628596E+02 -0.49244685265E+02 -0.43573542017E+03  0.43870616647E+03  0.10000000000E+01 0.  0.
<mgrwt>
<rscale>  0 0.12500363E+03</rscale>
<asrwt>0</asrwt>
<pdfrwt beam="2">  1        4 0.85209607E-01 0.12500363E+03</pdfrwt>
<pdfrwt beam="1">  1       -4 0.10851006E-02 0.12500363E+03</pdfrwt>
<totfact> 0.51427380E+03</totfact>
</mgrwt>
</event>
<event>
 5    1  0.3277540E-002  0.1250049E+03  0.7818608E-02  0.1235062E+00
         -4   -1    0    0    0  501 -0.00000000000E+00  0.00000000000E+00  0.94806126097E+02  0.94814632022E+02  0.12700000000E+01 0.  1.
          4   -1    0    0  501    0  0.00000000000E+00 -0.00000000000E+00 -0.41185626154E+02  0.41205202362E+02  0.12700000000E+01 0.  1.
         25    2    1    2    0    0  0.00000000000E+00  0.00000000000E+00  0.53620499943E+02  0.13601983438E+03  0.12500494923E+03 0.  0.
    9000005    1    3    3    0    0  0.54200196834E+02  0.27377310466E+02  0.10730387596E+02  0.61671060337E+02  0.10000000000E+01 0.  0.
    9000005    1    3    3    0    0 -0.54200196834E+02 -0.27377310466E+02  0.42890112347E+02  0.74348774047E+02  0.10000000000E+01 0.  0.
<mgrwt>
<rscale>  0 0.12500495E+03</rscale>
<asrwt>0</asrwt>
<pdfrwt beam="2">  1        4 0.63384103E-02 0.12500495E+03</pdfrwt>
<pdfrwt beam="1">  1       -4 0.14587718E-01 0.12500495E+03</pdfrwt>
<totfact> 0.10215480E+04</totfact>
</mgrwt>
</event>
<event>
 5    1  0.3277540E-002  0.1249990E+03  0.7818608E-02  0.1235071E+00
          4   -1    0    0  501    0  0.00000000000E+00  0.00000000000E+00  0.98903336583E+02  0.98911490168E+02  0.12700000000E+01 0. -1.
         -4   -1    0    0    0  501 -0.00000000000E+00 -0.00000000000E+00 -0.39475012997E+02  0.39495437093E+02  0.12700000000E+01 0. -1.
         25    2    1    2    0    0  0.00000000000E+00  0.00000000000E+00  0.59428323586E+02  0.13840692726E+03  0.12499900747E+03 0.  0.
    9000005    1    3    3    0    0  0.46662293751E+02 -0.32251864166E+02  0.58749736627E+02  0.81670581938E+02  0.10000000000E+01 0.  0.
    9000005    1    3    3    0    0 -0.46662293751E+02  0.32251864166E+02  0.67858695867E+00  0.56736345323E+02  0.10000000000E+01 0.  0.
<mgrwt>
<rscale>  0 0.12499901E+03</rscale>
<asrwt>0</asrwt>
<pdfrwt beam="1">  1        4 0.15218096E-01 0.12499901E+03</pdfrwt>
<pdfrwt beam="2">  1       -4 0.60752772E-02 0.12499901E+03</pdfrwt>
<totfact> 0.10166938E+04</totfact>
</mgrwt>
</event>
<event>
 5    1  0.3277540E-002  0.1250052E+03  0.7818608E-02  0.1235061E+00
         -4   -1    0    0    0  501 -0.00000000000E+00  0.00000000000E+00  0.60778429474E+02  0.60791696714E+02  0.12700000000E+01 0.  1.
          4   -1    0    0  501    0  0.00000000000E+00 -0.00000000000E+00 -0.64249084206E+02  0.64261634910E+02  0.12700000000E+01 0.  1.
         25    2    1    2    0    0  0.00000000000E+00  0.00000000000E+00 -0.34706547311E+01  0.12505333162E+03  0.12500516112E+03 0.  0.
    9000005    1    3    3    0    0  0.57551227699E+02  0.18629259068E+02  0.13967200893E+02  0.62090867315E+02  0.10000000000E+01 0.  0.
    9000005    1    3    3    0    0 -0.57551227699E+02 -0.18629259068E+02 -0.17437855624E+02  0.62962464309E+02  0.10000000000E+01 0.  0.
<mgrwt>
<rscale>  0 0.12500516E+03</rscale>
<asrwt>0</asrwt>
<pdfrwt beam="2">  1        4 0.98864605E-02 0.12500516E+03</pdfrwt>
<pdfrwt beam="1">  1       -4 0.93525136E-02 0.12500516E+03</pdfrwt>
<totfact> 0.10450485E+04</totfact>
</mgrwt>
</event>
<event>
 5    1  0.3277540E-002  0.1249998E+03  0.7818608E-02  0.1235070E+00
         -4   -1    0    0    0  501 -0.00000000000E+00  0.00000000000E+00  0.30092355382E+02  0.30119142625E+02  0.12700000000E+01 0. -1.
          4   -1    0    0  501    0  0.00000000000E+00 -0.00000000000E+00 -0.12972069543E+03  0.12972691210E+03  0.12700000000E+01 0. -1.
         25    2    1    2    0    0  0.00000000000E+00  0.00000000000E+00 -0.99628340046E+02  0.15984605472E+03  0.12499982028E+03 0.  0.
    9000005    1    3    3    0    0  0.52881247428E+02 -0.27976096213E+02 -0.26720043379E+02  0.65528993637E+02  0.10000000000E+01 0.  0.
    9000005    1    3    3    0    0 -0.52881247428E+02  0.27976096213E+02 -0.72908296667E+02  0.94317061085E+02  0.10000000000E+01 0.  0.
<mgrwt>
<rscale>  0 0.12499982E+03</rscale>
<asrwt>0</asrwt>
<pdfrwt beam="2">  1        4 0.19959569E-01 0.12499982E+03</pdfrwt>
<pdfrwt beam="1">  1       -4 0.46321320E-02 0.12499982E+03</pdfrwt>
<totfact> 0.97372866E+03</totfact>
</mgrwt>
</event>
<event>
 4    1  0.3277540E-002  0.1251049E+03  0.7818608E-02  0.1234905E+00
         -4   -1    0    0    0  501 -0.00000000000E+00  0.00000000000E+00  0.20709897140E+03  0.20710286540E+03  0.12700000000E+01 0. -1.
          4   -1    0    0  501    0  0.00000000000E+00 -0.00000000000E+00 -0.18867996724E+02  0.18910690109E+02  0.12700000000E+01 0. -1.
    9000005    1    1    2    0    0  0.52281969992E+01  0.40106210511E+02  0.18030274187E+03  0.18478614908E+03  0.10000000000E+01 0.  0.
    9000005    1    1    2    0    0 -0.52281969992E+01 -0.40106210511E+02  0.79282328090E+01  0.41227406429E+02  0.10000000000E+01 0.  0.
<mgrwt>
<rscale>  0 0.12510487E+03</rscale>
<asrwt>0</asrwt>
<pdfrwt beam="2">  1        4 0.29063524E-02 0.12510487E+03</pdfrwt>
<pdfrwt beam="1">  1       -4 0.31864963E-01 0.12510487E+03</pdfrwt>
<totfact> 0.85724701E+03</totfact>
</mgrwt>
</event>
<event>
 5    1  0.3277540E-002  0.1250027E+03  0.7818608E-02  0.1235065E+00
         -4   -1    0    0    0  501 -0.00000000000E+00  0.00000000000E+00  0.67850235260E+01  0.69028576871E+01  0.12700000000E+01 0.  1.
          4   -1    0    0  501    0  0.00000000000E+00 -0.00000000000E+00 -0.57066674888E+03  0.57066816205E+03  0.12700000000E+01 0.  1.
         25    2    1    2    0    0  0.00000000000E+00  0.00000000000E+00 -0.56388172536E+03  0.57757101974E+03  0.12500273058E+03 0.  0.
    9000005    1    3    3    0    0 -0.27436490214E+02  0.50562298689E+02 -0.16913013101E+03  0.17864856076E+03  0.10000000000E+01 0.  0.
    9000005    1    3    3    0    0  0.27436490214E+02 -0.50562298689E+02 -0.39475159434E+03  0.39892245898E+03  0.10000000000E+01 0.  0.
<mgrwt>
<rscale>  0 0.12500273E+03</rscale>
<asrwt>0</asrwt>
<pdfrwt beam="2">  1        4 0.87804020E-01 0.12500273E+03</pdfrwt>
<pdfrwt beam="1">  1       -4 0.10530231E-02 0.12500273E+03</pdfrwt>
<totfact> 0.50311707E+03</totfact>
</mgrwt>
</event>
<event>
 5    1  0.3277540E-002  0.1250000E+03  0.7818608E-02  0.1235069E+00
          4   -1    0    0  501    0  0.00000000000E+00  0.00000000000E+00  0.28582783565E+02  0.28610984190E+02  0.12700000000E+01 0.  1.
         -4   -1    0    0    0  501 -0.00000000000E+00 -0.00000000000E+00 -0.13656584835E+03  0.13657175344E+03  0.12700000000E+01 0.  1.
         25    2    1    2    0    0  0.00000000000E+00  0.00000000000E+00 -0.10798306479E+03  0.16518273763E+03  0.12499997811E+03 0.  0.
    9000005    1    3    3    0    0  0.34932685769E+02 -0.60294303253E+01 -0.12200001411E+03  0.12704979342E+03  0.10000000000E+01 0.  0.
    9000005    1    3    3    0    0 -0.34932685769E+02  0.60294303253E+01  0.14016949327E+02  0.38132944202E+02  0.10000000000E+01 0.  0.
<mgrwt>
<rscale>  0 0.12499998E+03</rscale>
<asrwt>0</asrwt>
<pdfrwt beam="1">  1        4 0.43999749E-02 0.12499998E+03</pdfrwt>
<pdfrwt beam="2">  1       -4 0.21012754E-01 0.12499998E+03</pdfrwt>
<totfact> 0.96352843E+03</totfact>
</mgrwt>
</event>
<event>
 5    1  0.3277540E-002  0.1250017E+03  0.7818608E-02  0.1235067E+00
         -4   -1    0    0    0  501 -0.00000000000E+00  0.00000000000E+00  0.16656054420E+02  0.16704402080E+02  0.12700000000E+01 0.  1.
          4   -1    0    0  501    0  0.00000000000E+00 -0.00000000000E+00 -0.23414071782E+03  0.23414416209E+03  0.12700000000E+01 0.  1.
         25    2    1    2    0    0  0.00000000000E+00  0.00000000000E+00 -0.21748466340E+03  0.25084856417E+03  0.12500169332E+03 0.  0.
    9000005    1    3    3    0    0 -0.15880686942E+01 -0.11589624831E+02 -0.23193385254E+03  0.23223081906E+03  0.10000000000E+01 0.  0.
    9000005    1    3    3    0    0  0.15880686942E+01  0.11589624831E+02  0.14449189146E+02  0.18617745107E+02  0.10000000000E+01 0.  0.
<mgrwt>
<rscale>  0 0.12500169E+03</rscale>
<asrwt>0</asrwt>
<pdfrwt beam="2">  1        4 0.36025630E-01 0.12500169E+03</pdfrwt>
<pdfrwt beam="1">  1       -4 0.25664541E-02 0.12500169E+03</pdfrwt>
<totfact> 0.82204639E+03</totfact>
</mgrwt>
</event>
<event>
 5    1  0.3277540E-002  0.1250000E+03  0.7818608E-02  0.1235069E+00
         -4   -1    0    0    0  501 -0.00000000000E+00  0.00000000000E+00  0.62234574545E+01  0.63517180895E+01  0.12700000000E+01 0. -1.
          4   -1    0    0  501    0  0.00000000000E+00 -0.00000000000E+00 -0.62113480688E+03  0.62113610523E+03  0.12700000000E+01 0. -1.
         25    2    1    2    0    0  0.00000000000E+00  0.00000000000E+00 -0.61491134943E+03  0.62748782332E+03  0.12500000304E+03 0.  0.
    9000005    1    3    3    0    0  0.44628179182E+02 -0.38337439474E+02 -0.41320972860E+03  0.41737838163E+03  0.10000000000E+01 0.  0.
    9000005    1    3    3    0    0 -0.44628179182E+02  0.38337439474E+02 -0.20170162083E+03  0.21010944169E+03  0.10000000000E+01 0.  0.
<mgrwt>
<rscale>  0 0.12500000E+03</rscale>
<asrwt>0</asrwt>
<pdfrwt beam="2">  1        4 0.95569119E-01 0.12500000E+03</pdfrwt>
<pdfrwt beam="1">  1       -4 0.96742155E-03 0.12500000E+03</pdfrwt>
<totfact> 0.47177247E+03</totfact>
</mgrwt>
</event>
<event>
 5    1  0.3277540E-002  0.1250011E+03  0.7818608E-02  0.1235068E+00
         -4   -1    0    0    0  501 -0.00000000000E+00  0.00000000000E+00  0.48566664054E+02  0.48583266228E+02  0.12700000000E+01 0.  1.
          4   -1    0    0  501    0  0.00000000000E+00 -0.00000000000E+00 -0.80396679805E+02  0.80406710066E+02  0.12700000000E+01 0.  1.
         25    2    1    2    0    0  0.00000000000E+00  0.00000000000E+00 -0.31830015751E+02  0.12898997629E+03  0.12500105632E+03 0.  0.
    9000005    1    3    3    0    0 -0.10355942857E+02  0.31932687037E+02  0.38477318034E+02  0.51072948387E+02  0.10000000000E+01 0.  0.
    9000005    1    3    3    0    0  0.10355942857E+02 -0.31932687037E+02 -0.70307333784E+02  0.77917027906E+02  0.10000000000E+01 0.  0.
<mgrwt>
<rscale>  0 0.12500106E+03</rscale>
<asrwt>0</asrwt>
<pdfrwt beam="2">  1        4 0.12370769E-01 0.12500106E+03</pdfrwt>
<pdfrwt beam="1">  1       -4 0.74738431E-02 0.12500106E+03</pdfrwt>
<totfact> 0.10365915E+04</totfact>
</mgrwt>
</event>
<event>
 5    1  0.3277540E-002  0.1250013E+03  0.7818608E-02  0.1235067E+00
         -4   -1    0    0    0  501 -0.00000000000E+00  0.00000000000E+00  0.43469220731E+03  0.43469406253E+03  0.12700000000E+01 0. -1.
          4   -1    0    0  501    0  0.00000000000E+00 -0.00000000000E+00 -0.89396696145E+01  0.90294292630E+01  0.12700000000E+01 0. -1.
         25    2    1    2    0    0  0.00000000000E+00  0.00000000000E+00  0.42575253770E+03  0.44372349179E+03  0.12500125524E+03 0.  0.
    9000005    1    3    3    0    0 -0.18701540561E+02 -0.20504899887E+02  0.14117719321E+02  0.31152986013E+02  0.10000000000E+01 0.  0.
    9000005    1    3    3    0    0  0.18701540561E+02  0.20504899887E+02  0.41163481838E+03  0.41257050578E+03  0.10000000000E+01 0.  0.
<mgrwt>
<rscale>  0 0.12500126E+03</rscale>
<asrwt>0</asrwt>
<pdfrwt beam="2">  1        4 0.13823815E-02 0.12500126E+03</pdfrwt>
<pdfrwt beam="1">  1       -4 0.66882753E-01 0.12500126E+03</pdfrwt>
<totfact> 0.60509747E+03</totfact>
</mgrwt>
</event>
<event>
 5    1  0.3277540E-002  0.1250072E+03  0.7818608E-02  0.1235058E+00
          4   -1    0    0  501    0  0.00000000000E+00  0.00000000000E+00  0.85578469474E+02  0.85587892470E+02  0.12700000000E+01 0.  1.
         -4   -1    0    0    0  501 -0.00000000000E+00 -0.00000000000E+00 -0.45629744507E+02  0.45647414864E+02  0.12700000000E+01 0.  1.
         25    2    1    2    0    0  0.00000000000E+00  0.00000000000E+00  0.39948724967E+02  0.13123530733E+03  0.12500722085E+03 0.  0.
    9000005    1    3    3    0    0 -0.72549434404E+00 -0.49814372092E+02 -0.19637507006E+02  0.53559590088E+02  0.10000000000E+01 0.  0.
    9000005    1    3    3    0    0  0.72549434404E+00  0.49814372092E+02  0.59586231972E+02  0.77675717246E+02  0.10000000000E+01 0.  0.
<mgrwt>
<rscale>  0 0.12500722E+03</rscale>
<asrwt>0</asrwt>
<pdfrwt beam="1">  1        4 0.13168002E-01 0.12500722E+03</pdfrwt>
<pdfrwt beam="2">  1       -4 0.70220449E-02 0.12500722E+03</pdfrwt>
<totfact> 0.10316367E+04</totfact>
</mgrwt>
</event>
<event>
 5    1  0.3277540E-002  0.1249949E+03  0.7818608E-02  0.1235077E+00
         -4   -1    0    0    0  501 -0.00000000000E+00  0.00000000000E+00  0.41495494284E+03  0.41495688630E+03  0.12700000000E+01 0.  1.
          4   -1    0    0  501    0  0.00000000000E+00 -0.00000000000E+00 -0.93680896513E+01  0.94537825083E+01  0.12700000000E+01 0.  1.
         25    2    1    2    0    0  0.00000000000E+00  0.00000000000E+00  0.40558685319E+03  0.42441066881E+03  0.12499488117E+03 0.  0.
    9000005    1    3    3    0    0 -0.54409978519E+02  0.29905172848E+02  0.22684227443E+03  0.23518754770E+03  0.10000000000E+01 0.  0.
    9000005    1    3    3    0    0  0.54409978519E+02 -0.29905172848E+02  0.17874457877E+03  0.18922312111E+03  0.10000000000E+01 0.  0.
<mgrwt>
<rscale>  0 0.12499488E+03</rscale>
<asrwt>0</asrwt>
<pdfrwt beam="2">  1        4 0.14479858E-02 0.12499488E+03</pdfrwt>
<pdfrwt beam="1">  1       -4 0.63845965E-01 0.12499488E+03</pdfrwt>
<totfact> 0.62252942E+03</totfact>
</mgrwt>
</event>
<event>
 5    1  0.3277540E-002  0.1249992E+03  0.7818608E-02  0.1235071E+00
          4   -1    0    0  501    0  0.00000000000E+00  0.00000000000E+00  0.16873636090E+02  0.16921362088E+02  0.12700000000E+01 0. -1.
         -4   -1    0    0    0  501 -0.00000000000E+00 -0.00000000000E+00 -0.23112080862E+03  0.23112429789E+03  0.12700000000E+01 0. -1.
         25    2    1    2    0    0  0.00000000000E+00  0.00000000000E+00 -0.21424717253E+03  0.24804565998E+03  0.12499919399E+03 0.  0.
    9000005    1    3    3    0    0  0.19846135303E+02 -0.30064979072E+02 -0.20845183734E+03  0.21154418107E+03  0.10000000000E+01 0.  0.
    9000005    1    3    3    0    0 -0.19846135303E+02  0.30064979072E+02 -0.57953351908E+01  0.36501478915E+02  0.10000000000E+01 0.  0.
<mgrwt>
<rscale>  0 0.12499919E+03</rscale>
<asrwt>0</asrwt>
<pdfrwt beam="1">  1        4 0.25998838E-02 0.12499919E+03</pdfrwt>
<pdfrwt beam="2">  1       -4 0.35560985E-01 0.12499919E+03</pdfrwt>
<totfact> 0.82614998E+03</totfact>
</mgrwt>
</event>
<event>
 5    1  0.3277540E-002  0.1249989E+03  0.7818608E-02  0.1235071E+00
         -4   -1    0    0    0  501 -0.00000000000E+00  0.00000000000E+00  0.43527103846E+03  0.43527289121E+03  0.12700000000E+01 0.  1.
          4   -1    0    0  501    0  0.00000000000E+00 -0.00000000000E+00 -0.89273245907E+01  0.90172071257E+01  0.12700000000E+01 0.  1.
         25    2    1    2    0    0  0.00000000000E+00  0.00000000000E+00  0.42634371387E+03  0.44429009834E+03  0.12499891649E+03 0.  0.
    9000005    1    3    3    0    0 -0.12034439514E+02 -0.35377455910E+02  0.35142118098E+02  0.51306535505E+02  0.10000000000E+01 0.  0.
    9000005    1    3    3    0    0  0.12034439514E+02  0.35377455910E+02  0.39120159577E+03  0.39298356283E+03  0.10000000000E+01 0.  0.
<mgrwt>
<rscale>  0 0.12499892E+03</rscale>
<asrwt>0</asrwt>
<pdfrwt beam="2">  1        4 0.13804916E-02 0.12499892E+03</pdfrwt>
<pdfrwt beam="1">  1       -4 0.66971806E-01 0.12499892E+03</pdfrwt>
<totfact> 0.60463111E+03</totfact>
</mgrwt>
</event>
<event>
 5    1  0.3277540E-002  0.1249999E+03  0.7818608E-02  0.1235069E+00
          4   -1    0    0  501    0  0.00000000000E+00  0.00000000000E+00  0.38926523342E+03  0.38926730514E+03  0.12700000000E+01 0.  1.
         -4   -1    0    0    0  501 -0.00000000000E+00 -0.00000000000E+00 -0.99926255497E+01  0.10073006769E+02  0.12700000000E+01 0.  1.
         25    2    1    2    0    0  0.00000000000E+00  0.00000000000E+00  0.37927260787E+03  0.39934031191E+03  0.12499989454E+03 0.  0.
    9000005    1    3    3    0    0  0.58447238198E+01  0.34254470941E+02  0.35556879979E+03  0.35726418930E+03  0.10000000000E+01 0.  0.
    9000005    1    3    3    0    0 -0.58447238198E+01 -0.34254470941E+02  0.23703808086E+02  0.42076122608E+02  0.10000000000E+01 0.  0.
<mgrwt>
<rscale>  0 0.12499989E+03</rscale>
<asrwt>0</asrwt>
<pdfrwt beam="1">  1        4 0.59893302E-01 0.12499989E+03</pdfrwt>
<pdfrwt beam="2">  1       -4 0.15436695E-02 0.12499989E+03</pdfrwt>
<totfact> 0.64617149E+03</totfact>
</mgrwt>
</event>
<event>
 5    1  0.3277540E-002  0.1250075E+03  0.7818608E-02  0.1235058E+00
          4   -1    0    0  501    0  0.00000000000E+00  0.00000000000E+00  0.25387823400E+04  0.25387826577E+04  0.12700000000E+01 0.  1.
         -4   -1    0    0    0  501 -0.00000000000E+00 -0.00000000000E+00 -0.12764075365E+01  0.18005877371E+01  0.12700000000E+01 0.  1.
         25    2    1    2    0    0  0.00000000000E+00  0.00000000000E+00  0.25375059325E+04  0.25405832454E+04  0.12500747764E+03 0.  0.
    9000005    1    3    3    0    0  0.47907679252E+02  0.14567230915E+02  0.50876260245E+03  0.51122180666E+03  0.10000000000E+01 0.  0.
    9000005    1    3    3    0    0 -0.47907679252E+02 -0.14567230915E+02  0.20287433300E+04  0.20293614387E+04  0.10000000000E+01 0.  0.
<mgrwt>
<rscale>  0 0.12500748E+03</rscale>
<asrwt>0</asrwt>
<pdfrwt beam="1">  1        4 0.39062204E+00 0.12500748E+03</pdfrwt>
<pdfrwt beam="2">  1       -4 0.23671650E-03 0.12500748E+03</pdfrwt>
<totfact> 0.43575765E+02</totfact>
</mgrwt>
</event>
<event>
 5    1  0.3277540E-002  0.1250071E+03  0.7818608E-02  0.1235058E+00
          4   -1    0    0  501    0  0.00000000000E+00  0.00000000000E+00  0.53511952564E+02  0.53527020908E+02  0.12700000000E+01 0. -1.
         -4   -1    0    0    0  501 -0.00000000000E+00 -0.00000000000E+00 -0.72975177596E+02  0.72986227777E+02  0.12700000000E+01 0. -1.
         25    2    1    2    0    0  0.00000000000E+00  0.00000000000E+00 -0.19463225032E+02  0.12651324868E+03  0.12500713965E+03 0.  0.
    9000005    1    3    3    0    0  0.17810142095E+01  0.24790375760E+02  0.48299988413E+02  0.54328847058E+02  0.10000000000E+01 0.  0.
    9000005    1    3    3    0    0 -0.17810142095E+01 -0.24790375760E+02 -0.67763213445E+02  0.72184401627E+02  0.10000000000E+01 0.  0.
<mgrwt>
<rscale>  0 0.12500714E+03</rscale>
<asrwt>0</asrwt>
<pdfrwt beam="1">  1        4 0.82346171E-02 0.12500714E+03</pdfrwt>
<pdfrwt beam="2">  1       -4 0.11228960E-01 0.12500714E+03</pdfrwt>
<totfact> 0.10418060E+04</totfact>
</mgrwt>
</event>
<event>
 5    1  0.3277540E-002  0.1250066E+03  0.7818608E-02  0.1235059E+00
         -4   -1    0    0    0  501 -0.00000000000E+00  0.00000000000E+00  0.22192371929E+02  0.22228681289E+02  0.12700000000E+01 0.  1.
          4   -1    0    0  501    0  0.00000000000E+00 -0.00000000000E+00 -0.17585365461E+03  0.17585824047E+03  0.12700000000E+01 0.  1.
         25    2    1    2    0    0  0.00000000000E+00  0.00000000000E+00 -0.15366128268E+03  0.19808692176E+03  0.12500655493E+03 0.  0.
    9000005    1    3    3    0    0 -0.51298350725E+02  0.34257110399E+02 -0.92723385653E+02  0.11137188445E+03  0.10000000000E+01 0.  0.
    9000005    1    3    3    0    0  0.51298350725E+02 -0.34257110399E+02 -0.60937897031E+02  0.86715037304E+02  0.10000000000E+01 0.  0.
<mgrwt>
<rscale>  0 0.12500655E+03</rscale>
<asrwt>0</asrwt>
<pdfrwt beam="2">  1        4 0.27057553E-01 0.12500655E+03</pdfrwt>
<pdfrwt beam="1">  1       -4 0.34173570E-02 0.12500655E+03</pdfrwt>
<totfact> 0.90445675E+03</totfact>
</mgrwt>
</event>
<event>
 5    1  0.3277540E-002  0.1250027E+03  0.7818608E-02  0.1235065E+00
         -4   -1    0    0    0  501 -0.00000000000E+00  0.00000000000E+00  0.26491041110E+02  0.26521466006E+02  0.12700000000E+01 0.  1.
          4   -1    0    0  501    0  0.00000000000E+00 -0.00000000000E+00 -0.14734416831E+03  0.14734964145E+03  0.12700000000E+01 0.  1.
         25    2    1    2    0    0  0.00000000000E+00  0.00000000000E+00 -0.12085312720E+03  0.17387110746E+03  0.12500273459E+03 0.  0.
    9000005    1    3    3    0    0  0.48178317226E+02 -0.10667581530E+02 -0.11376453425E+03  0.12400934158E+03  0.10000000000E+01 0.  0.
    9000005    1    3    3    0    0 -0.48178317226E+02  0.10667581530E+02 -0.70885929558E+01  0.49861765879E+02  0.10000000000E+01 0.  0.
<mgrwt>
<rscale>  0 0.12500273E+03</rscale>
<asrwt>0</asrwt>
<pdfrwt beam="2">  1        4 0.22671094E-01 0.12500273E+03</pdfrwt>
<pdfrwt beam="1">  1       -4 0.40783063E-02 0.12500273E+03</pdfrwt>
<totfact> 0.94726191E+03</totfact>
</mgrwt>
</event>
<event>
 5    1  0.3277540E-002  0.1249975E+03  0.7818608E-02  0.1235073E+00
         -4   -1    0    0    0  501 -0.00000000000E+00  0.00000000000E+00  0.75680387191E+02  0.75691042438E+02  0.12700000000E+01 0. -1.
          4   -1    0    0  501    0  0.00000000000E+00 -0.00000000000E+00 -0.51590957724E+02  0.51606586972E+02  0.12700000000E+01 0. -1.
         25    2    1    2    0    0  0.00000000000E+00  0.00000000000E+00  0.24089429467E+02  0.12729762941E+03  0.12499754334E+03 0.  0.
    9000005    1    3    3    0    0  0.18801799553E+02 -0.59518992612E+02  0.15113181334E+02  0.64229482311E+02  0.10000000000E+01 0.  0.
    9000005    1    3    3    0    0 -0.18801799553E+02  0.59518992612E+02  0.89762481327E+01  0.63068147099E+02  0.10000000000E+01 0.  0.
<mgrwt>
<rscale>  0 0.12499754E+03</rscale>
<asrwt>0</asrwt>
<pdfrwt beam="2">  1        4 0.79390923E-02 0.12499754E+03</pdfrwt>
<pdfrwt beam="1">  1       -4 0.11645158E-01 0.12499754E+03</pdfrwt>
<totfact> 0.10403263E+04</totfact>
</mgrwt>
</event>
<event>
 5    1  0.3277540E-002  0.1249904E+03  0.7818608E-02  0.1235084E+00
          4   -1    0    0  501    0  0.00000000000E+00  0.00000000000E+00  0.75475753206E+01  0.76536784111E+01  0.12700000000E+01 0.  1.
         -4   -1    0    0    0  501 -0.00000000000E+00 -0.00000000000E+00 -0.51375215995E+03  0.51375372967E+03  0.12700000000E+01 0.  1.
         25    2    1    2    0    0  0.00000000000E+00  0.00000000000E+00 -0.50620458462E+03  0.52140740808E+03  0.12499041445E+03 0.  0.
    9000005    1    3    3    0    0  0.50636789050E+02 -0.83523788819E+01 -0.40181217291E+03  0.40507760854E+03  0.10000000000E+01 0.  0.
    9000005    1    3    3    0    0 -0.50636789050E+02  0.83523788819E+01 -0.10439241171E+03  0.11632979954E+03  0.10000000000E+01 0.  0.
<mgrwt>
<rscale>  0 0.12499041E+03</rscale>
<asrwt>0</asrwt>
<pdfrwt beam="1">  1        4 0.11694484E-02 0.12499041E+03</pdfrwt>
<pdfrwt beam="2">  1       -4 0.79047049E-01 0.12499041E+03</pdfrwt>
<totfact> 0.54252284E+03</totfact>
</mgrwt>
</event>
<event>
 5    1  0.3277540E-002  0.1249999E+03  0.7818608E-02  0.1235069E+00
          4   -1    0    0  501    0  0.00000000000E+00  0.00000000000E+00  0.30130198274E+02  0.30156951902E+02  0.12700000000E+01 0. -1.
         -4   -1    0    0    0  501 -0.00000000000E+00 -0.00000000000E+00 -0.12955804711E+03  0.12956427158E+03  0.12700000000E+01 0. -1.
         25    2    1    2    0    0  0.00000000000E+00  0.00000000000E+00 -0.99427848836E+02  0.15972122348E+03  0.12499988843E+03 0.  0.
    9000005    1    3    3    0    0  0.56703073105E+01 -0.58392467514E+02 -0.77220459140E+02  0.96983668508E+02  0.10000000000E+01 0.  0.
    9000005    1    3    3    0    0 -0.56703073105E+01  0.58392467514E+02 -0.22207389696E+02  0.62737554977E+02  0.10000000000E+01 0.  0.
<mgrwt>
<rscale>  0 0.12499989E+03</rscale>
<asrwt>0</asrwt>
<pdfrwt beam="1">  1        4 0.46379520E-02 0.12499989E+03</pdfrwt>
<pdfrwt beam="2">  1       -4 0.19934544E-01 0.12499989E+03</pdfrwt>
<totfact> 0.97396802E+03</totfact>
</mgrwt>
</event>
<event>
 5    1  0.3277540E-002  0.1249997E+03  0.7818608E-02  0.1235070E+00
         -4   -1    0    0    0  501 -0.00000000000E+00  0.00000000000E+00  0.10385976889E+03  0.10386753340E+03  0.12700000000E+01 0. -1.
          4   -1    0    0  501    0  0.00000000000E+00 -0.00000000000E+00 -0.37590763913E+02  0.37612211203E+02  0.12700000000E+01 0. -1.
         25    2    1    2    0    0  0.00000000000E+00  0.00000000000E+00  0.66269004977E+02  0.14147974460E+03  0.12499974845E+03 0.  0.
    9000005    1    3    3    0    0  0.22084340287E+02  0.46713903348E+02  0.72915545890E+02  0.89373282832E+02  0.10000000000E+01 0.  0.
    9000005    1    3    3    0    0 -0.22084340287E+02 -0.46713903348E+02 -0.66465409124E+01  0.52106461768E+02  0.10000000000E+01 0.  0.
<mgrwt>
<rscale>  0 0.12499975E+03</rscale>
<asrwt>0</asrwt>
<pdfrwt beam="2">  1        4 0.57854415E-02 0.12499975E+03</pdfrwt>
<pdfrwt beam="1">  1       -4 0.15980673E-01 0.12499975E+03</pdfrwt>
<totfact> 0.10103066E+04</totfact>
</mgrwt>
</event>
<event>
 5    1  0.3277540E-002  0.1250009E+03  0.7818608E-02  0.1235068E+00
         -4   -1    0    0    0  501 -0.00000000000E+00  0.00000000000E+00  0.16870909066E+03  0.16871387072E+03  0.12700000000E+01 0.  1.
          4   -1    0    0  501    0  0.00000000000E+00 -0.00000000000E+00 -0.23131576825E+02  0.23166414190E+02  0.12700000000E+01 0.  1.
         25    2    1    2    0    0  0.00000000000E+00  0.00000000000E+00  0.14557751384E+03  0.19188028491E+03  0.12500092480E+03 0.  0.
    9000005    1    3    3    0    0  0.59334752850E+02  0.63591446673E+01  0.10126993856E+03  0.11754850944E+03  0.10000000000E+01 0.  0.
    9000005    1    3    3    0    0 -0.59334752850E+02 -0.63591446673E+01  0.44307575283E+02  0.74331775467E+02  0.10000000000E+01 0.  0.
<mgrwt>
<rscale>  0 0.12500092E+03</rscale>
<asrwt>0</asrwt>
<pdfrwt beam="2">  1        4 0.35617516E-02 0.12500092E+03</pdfrwt>
<pdfrwt beam="1">  1       -4 0.25958292E-01 0.12500092E+03</pdfrwt>
<totfact> 0.91519281E+03</totfact>
</mgrwt>
</event>
<event>
 5    1  0.3277540E-002  0.1250004E+03  0.7818608E-02  0.1235069E+00
         -4   -1    0    0    0  501 -0.00000000000E+00  0.00000000000E+00  0.70860067876E+01  0.71989160430E+01  0.12700000000E+01 0.  1.
          4   -1    0    0  501    0  0.00000000000E+00 -0.00000000000E+00 -0.54679531521E+03  0.54679679008E+03  0.12700000000E+01 0.  1.
         25    2    1    2    0    0  0.00000000000E+00  0.00000000000E+00 -0.53970930842E+03  0.55399570612E+03  0.12500041919E+03 0.  0.
    9000005    1    3    3    0    0 -0.34400196099E+02  0.47303891974E+02 -0.36738219717E+03  0.37201036341E+03  0.10000000000E+01 0.  0.
    9000005    1    3    3    0    0  0.34400196099E+02 -0.47303891974E+02 -0.17232711126E+03  0.18198534271E+03  0.10000000000E+01 0.  0.
<mgrwt>
<rscale>  0 0.12500042E+03</rscale>
<asrwt>0</asrwt>
<pdfrwt beam="2">  1        4 0.84131122E-01 0.12500042E+03</pdfrwt>
<pdfrwt beam="1">  1       -4 0.10989541E-02 0.12500042E+03</pdfrwt>
<totfact> 0.51906093E+03</totfact>
</mgrwt>
</event>
<event>
 5    1  0.3277540E-002  0.1250103E+03  0.7818608E-02  0.1235053E+00
          4   -1    0    0  501    0  0.00000000000E+00  0.00000000000E+00  0.14457073690E+04  0.14457079268E+04  0.12700000000E+01 0. -1.
         -4   -1    0    0    0  501 -0.00000000000E+00 -0.00000000000E+00 -0.25526125091E+01  0.28510928820E+01  0.12700000000E+01 0. -1.
         25    2    1    2    0    0  0.00000000000E+00  0.00000000000E+00  0.14431547565E+04  0.14485590197E+04  0.12501032913E+03 0.  0.
    9000005    1    3    3    0    0 -0.13550751081E+02  0.62036481482E+01  0.18282296138E+02  0.23608270951E+02  0.10000000000E+01 0.  0.
    9000005    1    3    3    0    0  0.13550751081E+02 -0.62036481482E+01  0.14248724603E+04  0.14249507487E+04  0.10000000000E+01 0.  0.
<mgrwt>
<rscale>  0 0.12501033E+03</rscale>
<asrwt>0</asrwt>
<pdfrwt beam="1">  1        4 0.22244012E+00 0.12501033E+03</pdfrwt>
<pdfrwt beam="2">  1       -4 0.41571144E-03 0.12501033E+03</pdfrwt>
<totfact> 0.18957906E+03</totfact>
</mgrwt>
</event>
<event>
 5    1  0.3277540E-002  0.1249996E+03  0.7818608E-02  0.1235070E+00
          4   -1    0    0  501    0  0.00000000000E+00  0.00000000000E+00  0.21239664233E+03  0.21240043920E+03  0.12700000000E+01 0. -1.
         -4   -1    0    0    0  501 -0.00000000000E+00 -0.00000000000E+00 -0.18365279795E+02  0.18409139088E+02  0.12700000000E+01 0. -1.
         25    2    1    2    0    0  0.00000000000E+00  0.00000000000E+00  0.19403136253E+03  0.23080957829E+03  0.12499956713E+03 0.  0.
    9000005    1    3    3    0    0  0.32661090898E+02 -0.68533011693E+01 -0.54274456473E+00  0.33391752982E+02  0.10000000000E+01 0.  0.
    9000005    1    3    3    0    0 -0.32661090898E+02  0.68533011693E+01  0.19457410710E+03  0.19741782531E+03  0.10000000000E+01 0.  0.
<mgrwt>
<rscale>  0 0.12499957E+03</rscale>
<asrwt>0</asrwt>
<pdfrwt beam="1">  1        4 0.32680073E-01 0.12499957E+03</pdfrwt>
<pdfrwt beam="2">  1       -4 0.28290935E-02 0.12499957E+03</pdfrwt>
<totfact> 0.85186262E+03</totfact>
</mgrwt>
</event>
<event>
 5    1  0.3277540E-002  0.1250083E+03  0.7818608E-02  0.1235056E+00
         -4   -1    0    0    0  501 -0.00000000000E+00  0.00000000000E+00  0.24917242230E+02  0.24949586376E+02  0.12700000000E+01 0. -1.
          4   -1    0    0  501    0  0.00000000000E+00 -0.00000000000E+00 -0.15665315742E+03  0.15665830533E+03  0.12700000000E+01 0. -1.
         25    2    1    2    0    0  0.00000000000E+00  0.00000000000E+00 -0.13173591519E+03  0.18160789171E+03  0.12500829964E+03 0.  0.
    9000005    1    3    3    0    0 -0.59907716339E+02 -0.15428166785E+02 -0.52971354360E+02  0.81448923811E+02  0.10000000000E+01 0.  0.
    9000005    1    3    3    0    0  0.59907716339E+02  0.15428166785E+02 -0.78764560828E+02  0.10015896789E+03  0.10000000000E+01 0.  0.
<mgrwt>
<rscale>  0 0.12500830E+03</rscale>
<asrwt>0</asrwt>
<pdfrwt beam="2">  1        4 0.24103369E-01 0.12500830E+03</pdfrwt>
<pdfrwt beam="1">  1       -4 0.38363060E-02 0.12500830E+03</pdfrwt>
<totfact> 0.93311013E+03</totfact>
</mgrwt>
</event>
<event>
 5    1  0.3277540E-002  0.1250009E+03  0.7818608E-02  0.1235068E+00
          4   -1    0    0  501    0  0.00000000000E+00  0.00000000000E+00  0.11893356588E+02  0.11960971153E+02  0.12700000000E+01 0.  1.
         -4   -1    0    0    0  501 -0.00000000000E+00 -0.00000000000E+00 -0.32744461131E+03  0.32744707416E+03  0.12700000000E+01 0.  1.
         25    2    1    2    0    0  0.00000000000E+00  0.00000000000E+00 -0.31555125472E+03  0.33940804531E+03  0.12500090746E+03 0.  0.
    9000005    1    3    3    0    0 -0.34043209594E+02  0.41048692148E+02 -0.69316495777E+02  0.87462631068E+02  0.10000000000E+01 0.  0.
    9000005    1    3    3    0    0  0.34043209594E+02 -0.41048692148E+02 -0.24623475894E+03  0.25194541425E+03  0.10000000000E+01 0.  0.
<mgrwt>
<rscale>  0 0.12500091E+03</rscale>
<asrwt>0</asrwt>
<pdfrwt beam="1">  1        4 0.18351380E-02 0.12500091E+03</pdfrwt>
<pdfrwt beam="2">  1       -4 0.50381478E-01 0.12500091E+03</pdfrwt>
<totfact> 0.70904315E+03</totfact>
</mgrwt>
</event>
<event>
 5    1  0.3277540E-002  0.1249800E+03  0.7818608E-02  0.1235100E+00
         -4   -1    0    0    0  501 -0.00000000000E+00  0.00000000000E+00  0.56086663805E+02  0.56101040603E+02  0.12700000000E+01 0.  1.
          4   -1    0    0  501    0  0.00000000000E+00 -0.00000000000E+00 -0.69595352780E+02  0.69606939514E+02  0.12700000000E+01 0.  1.
         25    2    1    2    0    0  0.00000000000E+00  0.00000000000E+00 -0.13508688975E+02  0.12570798012E+03  0.12498004476E+03 0.  0.
    9000005    1    3    3    0    0  0.52242819606E+02  0.31954936899E+02  0.57102796791E+01  0.61514530695E+02  0.10000000000E+01 0.  0.
    9000005    1    3    3    0    0 -0.52242819606E+02 -0.31954936899E+02 -0.19218968654E+02  0.64193449422E+02  0.10000000000E+01 0.  0.
<mgrwt>
<rscale>  0 0.12498004E+03</rscale>
<asrwt>0</asrwt>
<pdfrwt beam="2">  1        4 0.10708975E-01 0.12498004E+03</pdfrwt>
<pdfrwt beam="1">  1       -4 0.86307147E-02 0.12498004E+03</pdfrwt>
<totfact> 0.10442069E+04</totfact>
</mgrwt>
</event>
<event>
 5    1  0.3277540E-002  0.1250027E+03  0.7818608E-02  0.1235065E+00
          4   -1    0    0  501    0  0.00000000000E+00  0.00000000000E+00  0.48883611375E+02  0.48900105942E+02  0.12700000000E+01 0. -1.
         -4   -1    0    0    0  501 -0.00000000000E+00 -0.00000000000E+00 -0.79877647148E+02  0.79887742577E+02  0.12700000000E+01 0. -1.
         25    2    1    2    0    0  0.00000000000E+00  0.00000000000E+00 -0.30994035773E+02  0.12878784852E+03  0.12500271866E+03 0.  0.
    9000005    1    3    3    0    0  0.25458264637E+02  0.57016709793E+02 -0.18101709344E+02  0.65020768337E+02  0.10000000000E+01 0.  0.
    9000005    1    3    3    0    0 -0.25458264637E+02 -0.57016709793E+02 -0.12892326430E+02  0.63767080181E+02  0.10000000000E+01 0.  0.
<mgrwt>
<rscale>  0 0.12500272E+03</rscale>
<asrwt>0</asrwt>
<pdfrwt beam="1">  1        4 0.75226010E-02 0.12500272E+03</pdfrwt>
<pdfrwt beam="2">  1       -4 0.12290914E-01 0.12500272E+03</pdfrwt>
<totfact> 0.10369871E+04</totfact>
</mgrwt>
</event>
<event>
 5    1  0.3277540E-002  0.1249901E+03  0.7818608E-02  0.1235085E+00
          4   -1    0    0  501    0  0.00000000000E+00  0.00000000000E+00  0.34113406769E+03  0.34113643171E+03  0.12700000000E+01 0.  1.
         -4   -1    0    0    0  501 -0.00000000000E+00 -0.00000000000E+00 -0.11411335196E+02  0.11481788665E+02  0.12700000000E+01 0.  1.
         25    2    1    2    0    0  0.00000000000E+00  0.00000000000E+00  0.32972273249E+03  0.35261822037E+03  0.12499011567E+03 0.  0.
    9000005    1    3    3    0    0 -0.11107884855E+02 -0.58013416217E+02  0.22238075029E+03  0.23009376277E+03  0.10000000000E+01 0.  0.
    9000005    1    3    3    0    0  0.11107884855E+02  0.58013416217E+02  0.10734198221E+03  0.12252445760E+03  0.10000000000E+01 0.  0.
<mgrwt>
<rscale>  0 0.12499012E+03</rscale>
<asrwt>0</asrwt>
<pdfrwt beam="1">  1        4 0.52487762E-01 0.12499012E+03</pdfrwt>
<pdfrwt beam="2">  1       -4 0.17611915E-02 0.12499012E+03</pdfrwt>
<totfact> 0.69452667E+03</totfact>
</mgrwt>
</event>
<event>
 5    1  0.3277540E-002  0.1250246E+03  0.7818608E-02  0.1235031E+00
         -4   -1    0    0    0  501 -0.00000000000E+00  0.00000000000E+00  0.18335689502E+03  0.18336129322E+03  0.12700000000E+01 0.  1.
          4   -1    0    0  501    0  0.00000000000E+00 -0.00000000000E+00 -0.21288899125E+02  0.21326746727E+02  0.12700000000E+01 0.  1.
         25    2    1    2    0    0  0.00000000000E+00  0.00000000000E+00  0.16206799590E+03  0.20468803995E+03  0.12502463119E+03 0.  0.
    9000005    1    3    3    0    0  0.18000859015E+02  0.15331891887E+02  0.17576008925E+03  0.17734629065E+03  0.10000000000E+01 0.  0.
    9000005    1    3    3    0    0 -0.18000859015E+02 -0.15331891887E+02 -0.13692093356E+02  0.27341749296E+02  0.10000000000E+01 0.  0.
<mgrwt>
<rscale>  0 0.12502463E+03</rscale>
<asrwt>0</asrwt>
<pdfrwt beam="2">  1        4 0.32784649E-02 0.12502463E+03</pdfrwt>
<pdfrwt beam="1">  1       -4 0.28212003E-01 0.12502463E+03</pdfrwt>
<totfact> 0.89301599E+03</totfact>
</mgrwt>
</event>
<event>
 5    1  0.3277540E-002  0.1249979E+03  0.7818608E-02  0.1235072E+00
          4   -1    0    0  501    0  0.00000000000E+00  0.00000000000E+00  0.70667289340E+01  0.71799413526E+01  0.12700000000E+01 0. -1.
         -4   -1    0    0    0  501 -0.00000000000E+00 -0.00000000000E+00 -0.54824176714E+03  0.54824323811E+03  0.12700000000E+01 0. -1.
         25    2    1    2    0    0  0.00000000000E+00  0.00000000000E+00 -0.54117503820E+03  0.55542317946E+03  0.12499794523E+03 0.  0.
    9000005    1    3    3    0    0 -0.14814938932E+02  0.38088272231E+02 -0.48065188028E+03  0.48238721885E+03  0.10000000000E+01 0.  0.
    9000005    1    3    3    0    0  0.14814938932E+02 -0.38088272231E+02 -0.60523157924E+02  0.73035960610E+02  0.10000000000E+01 0.  0.
<mgrwt>
<rscale>  0 0.12499795E+03</rscale>
<asrwt>0</asrwt>
<pdfrwt beam="1">  1        4 0.10960113E-02 0.12499795E+03</pdfrwt>
<pdfrwt beam="2">  1       -4 0.84353676E-01 0.12499795E+03</pdfrwt>
<totfact> 0.51810361E+03</totfact>
</mgrwt>
</event>
<event>
 5    1  0.3277540E-002  0.1249989E+03  0.7818608E-02  0.1235071E+00
         -4   -1    0    0    0  501 -0.00000000000E+00  0.00000000000E+00  0.26850796836E+03  0.26851097179E+03  0.12700000000E+01 0. -1.
          4   -1    0    0  501    0  0.00000000000E+00 -0.00000000000E+00 -0.14516929008E+02  0.14572375504E+02  0.12700000000E+01 0. -1.
         25    2    1    2    0    0  0.00000000000E+00  0.00000000000E+00  0.25399103935E+03  0.28308334730E+03  0.12499893378E+03 0.  0.
    9000005    1    3    3    0    0 -0.54968512921E+02 -0.24853224934E+02  0.16392887421E+03  0.17467940921E+03  0.10000000000E+01 0.  0.
    9000005    1    3    3    0    0  0.54968512921E+02  0.24853224934E+02  0.90062165139E+02  0.10840393808E+03  0.10000000000E+01 0.  0.
<mgrwt>
<rscale>  0 0.12499893E+03</rscale>
<asrwt>0</asrwt>
<pdfrwt beam="2">  1        4 0.22378700E-02 0.12499893E+03</pdfrwt>
<pdfrwt beam="1">  1       -4 0.41313411E-01 0.12499893E+03</pdfrwt>
<totfact> 0.77772888E+03</totfact>
</mgrwt>
</event>
<event>
 5    1  0.3277540E-002  0.1249988E+03  0.7818608E-02  0.1235071E+00
          4   -1    0    0  501    0  0.00000000000E+00  0.00000000000E+00  0.24766133379E+03  0.24766459003E+03  0.12700000000E+01 0. -1.
         -4   -1    0    0    0  501 -0.00000000000E+00 -0.00000000000E+00 -0.15743303496E+02  0.15794445383E+02  0.12700000000E+01 0. -1.
         25    2    1    2    0    0  0.00000000000E+00  0.00000000000E+00  0.23191803029E+03  0.26345903541E+03  0.12499876225E+03 0.  0.
    9000005    1    3    3    0    0 -0.73057781672E+01  0.14602244673E+02  0.24309629432E+03  0.24364607170E+03  0.10000000000E+01 0.  0.
    9000005    1    3    3    0    0  0.73057781672E+01 -0.14602244673E+02 -0.11178264030E+02  0.19812963707E+02  0.10000000000E+01 0.  0.
<mgrwt>
<rscale>  0 0.12499876E+03</rscale>
<asrwt>0</asrwt>
<pdfrwt beam="1">  1        4 0.38105927E-01 0.12499876E+03</pdfrwt>
<pdfrwt beam="2">  1       -4 0.24262312E-02 0.12499876E+03</pdfrwt>
<totfact> 0.80425287E+03</totfact>
</mgrwt>
</event>
<event>
 5    1  0.3277540E-002  0.1250019E+03  0.7818608E-02  0.1235066E+00
          4   -1    0    0  501    0  0.00000000000E+00  0.00000000000E+00  0.23330944239E+04  0.23330947696E+04  0.12700000000E+01 0.  1.
         -4   -1    0    0    0  501 -0.00000000000E+00 -0.00000000000E+00 -0.14331074777E+01  0.19148621472E+01  0.12700000000E+01 0.  1.
         25    2    1    2    0    0  0.00000000000E+00  0.00000000000E+00  0.23316613165E+04  0.23350096317E+04  0.12500194259E+03 0.  0.
    9000005    1    3    3    0    0  0.44402945613E+02 -0.32598274544E+01  0.34665792966E+03  0.34950674994E+03  0.10000000000E+01 0.  0.
    9000005    1    3    3    0    0 -0.44402945613E+02  0.32598274544E+01  0.19850033868E+04  0.19855028818E+04  0.10000000000E+01 0.  0.
<mgrwt>
<rscale>  0 0.12500194E+03</rscale>
<asrwt>0</asrwt>
<pdfrwt beam="1">  1        4 0.35897593E+00 0.12500194E+03</pdfrwt>
<pdfrwt beam="2">  1       -4 0.25756182E-03 0.12500194E+03</pdfrwt>
<totfact> 0.60978467E+02</totfact>
</mgrwt>
</event>
<event>
 5    1  0.3277540E-002  0.1249922E+03  0.7818608E-02  0.1235082E+00
         -4   -1    0    0    0  501 -0.00000000000E+00  0.00000000000E+00  0.11389096755E+02  0.11459686945E+02  0.12700000000E+01 0. -1.
          4   -1    0    0  501    0  0.00000000000E+00 -0.00000000000E+00 -0.34180725469E+03  0.34180961406E+03  0.12700000000E+01 0. -1.
         25    2    1    2    0    0  0.00000000000E+00  0.00000000000E+00 -0.33041815794E+03  0.35326930100E+03  0.12499215949E+03 0.  0.
    9000005    1    3    3    0    0 -0.40482042608E+02 -0.30534502077E+02 -0.61995393072E+02  0.80097318013E+02  0.10000000000E+01 0.  0.
    9000005    1    3    3    0    0  0.40482042608E+02  0.30534502077E+02 -0.26842276487E+03  0.27317198299E+03  0.10000000000E+01 0.  0.
<mgrwt>
<rscale>  0 0.12499216E+03</rscale>
<asrwt>0</asrwt>
<pdfrwt beam="2">  1        4 0.52591335E-01 0.12499216E+03</pdfrwt>
<pdfrwt beam="1">  1       -4 0.17577805E-02 0.12499216E+03</pdfrwt>
<totfact> 0.69378423E+03</totfact>
</mgrwt>
</event>
<event>
 5    1  0.3277540E-002  0.1250000E+03  0.7818608E-02  0.1235069E+00
         -4   -1    0    0    0  501 -0.00000000000E+00  0.00000000000E+00  0.13590258519E+04  0.13590264453E+04  0.12700000000E+01 0.  1.
          4   -1    0    0  501    0  0.00000000000E+00 -0.00000000000E+00 -0.27333939501E+01  0.30140243009E+01  0.12700000000E+01 0.  1.
         25    2    1    2    0    0  0.00000000000E+00  0.00000000000E+00  0.13562924580E+04  0.13620404696E+04  0.12500003739E+03 0.  0.
    9000005    1    3    3    0    0  0.51501387759E+02  0.20423417003E+02  0.36314202099E+03  0.36734539104E+03  0.10000000000E+01 0.  0.
    9000005    1    3    3    0    0 -0.51501387759E+02 -0.20423417003E+02  0.99315043697E+03  0.99469507858E+03  0.10000000000E+01 0.  0.
<mgrwt>
<rscale>  0 0.12500004E+03</rscale>
<asrwt>0</asrwt>
<pdfrwt beam="2">  1        4 0.44215625E-03 0.12500004E+03</pdfrwt>
<pdfrwt beam="1">  1       -4 0.20910182E+00 0.12500004E+03</pdfrwt>
<totfact> 0.20809876E+03</totfact>
</mgrwt>
</event>
<event>
 5    1  0.3277540E-002  0.1250035E+03  0.7818608E-02  0.1235064E+00
         -4   -1    0    0    0  501 -0.00000000000E+00  0.00000000000E+00  0.52056268974E+02  0.52071758559E+02  0.12700000000E+01 0.  1.
          4   -1    0    0  501    0  0.00000000000E+00 -0.00000000000E+00 -0.75011128519E+02  0.75021878820E+02  0.12700000000E+01 0.  1.
         25    2    1    2    0    0  0.00000000000E+00  0.00000000000E+00 -0.22954859545E+02  0.12709363738E+03  0.12500346829E+03 0.  0.
    9000005    1    3    3    0    0  0.24184214325E+02 -0.32624056103E+02  0.36816935650E+02  0.54824191830E+02  0.10000000000E+01 0.  0.
    9000005    1    3    3    0    0 -0.24184214325E+02  0.32624056103E+02 -0.59771795196E+02  0.72269445550E+02  0.10000000000E+01 0.  0.
<mgrwt>
<rscale>  0 0.12500347E+03</rscale>
<asrwt>0</asrwt>
<pdfrwt beam="2">  1        4 0.11542192E-01 0.12500347E+03</pdfrwt>
<pdfrwt beam="1">  1       -4 0.80106752E-02 0.12500347E+03</pdfrwt>
<totfact> 0.10406297E+04</totfact>
</mgrwt>
</event>
<event>
 5    1  0.3277540E-002  0.1250008E+03  0.7818608E-02  0.1235068E+00
         -4   -1    0    0    0  501 -0.00000000000E+00  0.00000000000E+00  0.32598348883E+02  0.32623078486E+02  0.12700000000E+01 0.  1.
          4   -1    0    0  501    0  0.00000000000E+00 -0.00000000000E+00 -0.11975760560E+03  0.11976433943E+03  0.12700000000E+01 0.  1.
         25    2    1    2    0    0  0.00000000000E+00  0.00000000000E+00 -0.87159256720E+02  0.15238741792E+03  0.12500075643E+03 0.  0.
    9000005    1    3    3    0    0  0.35198280525E+02 -0.58755757560E+01 -0.10612101782E+03  0.11196477913E+03  0.10000000000E+01 0.  0.
    9000005    1    3    3    0    0 -0.35198280525E+02  0.58755757560E+01  0.18961761103E+02  0.40422638787E+02  0.10000000000E+01 0.  0.
<mgrwt>
<rscale>  0 0.12500076E+03</rscale>
<asrwt>0</asrwt>
<pdfrwt beam="2">  1        4 0.18426667E-01 0.12500076E+03</pdfrwt>
<pdfrwt beam="1">  1       -4 0.50175509E-02 0.12500076E+03</pdfrwt>
<totfact> 0.98828232E+03</totfact>
</mgrwt>
</event>
<event>
 5    1  0.3277540E-002  0.1250030E+03  0.7818608E-02  0.1235065E+00
          4   -1    0    0  501    0  0.00000000000E+00  0.00000000000E+00  0.38452290968E+03  0.38452500695E+03  0.12700000000E+01 0. -1.
         -4   -1    0    0    0  501 -0.00000000000E+00 -0.00000000000E+00 -0.10117357116E+02  0.10196755122E+02  0.12700000000E+01 0. -1.
         25    2    1    2    0    0  0.00000000000E+00  0.00000000000E+00  0.37440555256E+03  0.39472176207E+03  0.12500300661E+03 0.  0.
    9000005    1    3    3    0    0  0.20516038103E+02  0.51947106194E+02  0.27573261856E+03  0.28133411916E+03  0.10000000000E+01 0.  0.
    9000005    1    3    3    0    0 -0.20516038103E+02 -0.51947106194E+02  0.98672933997E+02  0.11338764291E+03  0.10000000000E+01 0.  0.
<mgrwt>
<rscale>  0 0.12500301E+03</rscale>
<asrwt>0</asrwt>
<pdfrwt beam="1">  1        4 0.59163641E-01 0.12500301E+03</pdfrwt>
<pdfrwt beam="2">  1       -4 0.15627853E-02 0.12500301E+03</pdfrwt>
<totfact> 0.65065079E+03</totfact>
</mgrwt>
</event>
<event>
 5    1  0.3277540E-002  0.1250040E+03  0.7818608E-02  0.1235063E+00
          4   -1    0    0  501    0  0.00000000000E+00  0.00000000000E+00  0.20302374384E+03  0.20302771600E+03  0.12700000000E+01 0.  1.
         -4   -1    0    0    0  501 -0.00000000000E+00 -0.00000000000E+00 -0.19216465878E+02  0.19258386767E+02  0.12700000000E+01 0.  1.
         25    2    1    2    0    0  0.00000000000E+00  0.00000000000E+00  0.18380727796E+03  0.22228610276E+03  0.12500398414E+03 0.  0.
    9000005    1    3    3    0    0  0.39387503352E+02  0.11013203883E+02  0.17593019645E+03  0.18062419578E+03  0.10000000000E+01 0.  0.
    9000005    1    3    3    0    0 -0.39387503352E+02 -0.11013203883E+02  0.78770815131E+01  0.41661906980E+02  0.10000000000E+01 0.  0.
<mgrwt>
<rscale>  0 0.12500398E+03</rscale>
<asrwt>0</asrwt>
<pdfrwt beam="1">  1        4 0.31237951E-01 0.12500398E+03</pdfrwt>
<pdfrwt beam="2">  1       -4 0.29599097E-02 0.12500398E+03</pdfrwt>
<totfact> 0.86500195E+03</totfact>
</mgrwt>
</event>
<event>
 5    1  0.3277540E-002  0.1250026E+03  0.7818608E-02  0.1235065E+00
          4   -1    0    0  501    0  0.00000000000E+00  0.00000000000E+00  0.31952152178E+03  0.31952404570E+03  0.12700000000E+01 0. -1.
         -4   -1    0    0    0  501 -0.00000000000E+00 -0.00000000000E+00 -0.12190261302E+02  0.12256238029E+02  0.12700000000E+01 0. -1.
         25    2    1    2    0    0  0.00000000000E+00  0.00000000000E+00  0.30733126048E+03  0.33178028373E+03  0.12500261199E+03 0.  0.
    9000005    1    3    3    0    0  0.14219351021E+02 -0.59898382469E+02  0.18217894592E+03  0.19230229979E+03  0.10000000000E+01 0.  0.
    9000005    1    3    3    0    0 -0.14219351021E+02  0.59898382469E+02  0.12515231455E+03  0.13947798394E+03  0.10000000000E+01 0.  0.
<mgrwt>
<rscale>  0 0.12500261E+03</rscale>
<asrwt>0</asrwt>
<pdfrwt beam="1">  1        4 0.49162425E-01 0.12500261E+03</pdfrwt>
<pdfrwt beam="2">  1       -4 0.18806941E-02 0.12500261E+03</pdfrwt>
<totfact> 0.71772427E+03</totfact>
</mgrwt>
</event>
<event>
 5    1  0.3277540E-002  0.1250018E+03  0.7818608E-02  0.1235066E+00
         -4   -1    0    0    0  501 -0.00000000000E+00  0.00000000000E+00  0.29558653551E+02  0.29585924014E+02  0.12700000000E+01 0.  1.
          4   -1    0    0  501    0  0.00000000000E+00 -0.00000000000E+00 -0.13206505703E+03  0.13207116335E+03  0.12700000000E+01 0.  1.
         25    2    1    2    0    0  0.00000000000E+00  0.00000000000E+00 -0.10250640348E+03  0.16165708736E+03  0.12500180455E+03 0.  0.
    9000005    1    3    3    0    0 -0.19118526547E+02 -0.26949902233E+02 -0.11985027595E+03  0.12432579753E+03  0.10000000000E+01 0.  0.
    9000005    1    3    3    0    0  0.19118526547E+02  0.26949902233E+02  0.17343872472E+02  0.37331289826E+02  0.10000000000E+01 0.  0.
<mgrwt>
<rscale>  0 0.12500180E+03</rscale>
<asrwt>0</asrwt>
<pdfrwt beam="2">  1        4 0.20320268E-01 0.12500180E+03</pdfrwt>
<pdfrwt beam="1">  1       -4 0.45500527E-02 0.12500180E+03</pdfrwt>
<totfact> 0.97020325E+03</totfact>
</mgrwt>
</event>
<event>
 5    1  0.3277540E-002  0.1249947E+03  0.7818608E-02  0.1235078E+00
          4   -1    0    0  501    0  0.00000000000E+00  0.00000000000E+00  0.20945895568E+03  0.20946280580E+03  0.12700000000E+01 0.  1.
         -4   -1    0    0    0  501 -0.00000000000E+00 -0.00000000000E+00 -0.18622007926E+02  0.18665263973E+02  0.12700000000E+01 0.  1.
         25    2    1    2    0    0  0.00000000000E+00  0.00000000000E+00  0.19083694775E+03  0.22812806978E+03  0.12499470225E+03 0.  0.
    9000005    1    3    3    0    0 -0.48887393925E+01 -0.62262873560E+02  0.99226644691E+02  0.11724970027E+03  0.10000000000E+01 0.  0.
    9000005    1    3    3    0    0  0.48887393925E+01  0.62262873560E+02  0.91610303063E+02  0.11087836950E+03  0.10000000000E+01 0.  0.
<mgrwt>
<rscale>  0 0.12499470E+03</rscale>
<asrwt>0</asrwt>
<pdfrwt beam="1">  1        4 0.32228078E-01 0.12499470E+03</pdfrwt>
<pdfrwt beam="2">  1       -4 0.28685478E-02 0.12499470E+03</pdfrwt>
<totfact> 0.85607984E+03</totfact>
</mgrwt>
</event>
<event>
 5    1  0.3277540E-002  0.1250108E+03  0.7818608E-02  0.1235052E+00
          4   -1    0    0  501    0  0.00000000000E+00  0.00000000000E+00  0.41167629603E+02  0.41187214365E+02  0.12700000000E+01 0.  1.
         -4   -1    0    0    0  501 -0.00000000000E+00 -0.00000000000E+00 -0.94856485411E+02  0.94864986821E+02  0.12700000000E+01 0.  1.
         25    2    1    2    0    0  0.00000000000E+00  0.00000000000E+00 -0.53688855808E+02  0.13605220119E+03  0.12501083237E+03 0.  0.
    9000005    1    3    3    0    0  0.36771997965E+02  0.17545596066E+02  0.24732214126E+02  0.47672950310E+02  0.10000000000E+01 0.  0.
    9000005    1    3    3    0    0 -0.36771997965E+02 -0.17545596066E+02 -0.78421069934E+02  0.88379250875E+02  0.10000000000E+01 0.  0.
<mgrwt>
<rscale>  0 0.12501083E+03</rscale>
<asrwt>0</asrwt>
<pdfrwt beam="1">  1        4 0.63356420E-02 0.12501083E+03</pdfrwt>
<pdfrwt beam="2">  1       -4 0.14595466E-01 0.12501083E+03</pdfrwt>
<totfact> 0.10213445E+04</totfact>
</mgrwt>
</event>
<event>
 5    1  0.3277540E-002  0.1249989E+03  0.7818608E-02  0.1235071E+00
         -4   -1    0    0    0  501 -0.00000000000E+00  0.00000000000E+00  0.18179527913E+03  0.18179971511E+03  0.12700000000E+01 0.  1.
          4   -1    0    0  501    0  0.00000000000E+00 -0.00000000000E+00 -0.21463225537E+02  0.21500766275E+02  0.12700000000E+01 0.  1.
         25    2    1    2    0    0  0.00000000000E+00  0.00000000000E+00  0.16033205359E+03  0.20330048138E+03  0.12499887328E+03 0.  0.
    9000005    1    3    3    0    0 -0.52708025107E+02 -0.31906724456E+02  0.63185360403E+02  0.88258510896E+02  0.10000000000E+01 0.  0.
    9000005    1    3    3    0    0  0.52708025107E+02  0.31906724456E+02  0.97146693189E+02  0.11504197049E+03  0.10000000000E+01 0.  0.
<mgrwt>
<rscale>  0 0.12499887E+03</rscale>
<asrwt>0</asrwt>
<pdfrwt beam="2">  1        4 0.33052638E-02 0.12499887E+03</pdfrwt>
<pdfrwt beam="1">  1       -4 0.27971733E-01 0.12499887E+03</pdfrwt>
<totfact> 0.89584082E+03</totfact>
</mgrwt>
</event>
<event>
 5    1  0.3277540E-002  0.1249921E+03  0.7818608E-02  0.1235082E+00
          4   -1    0    0  501    0  0.00000000000E+00  0.00000000000E+00  0.14057424450E+03  0.14057998121E+03  0.12700000000E+01 0.  1.
         -4   -1    0    0    0  501 -0.00000000000E+00 -0.00000000000E+00 -0.27763490601E+02  0.27792522562E+02  0.12700000000E+01 0.  1.
         25    2    1    2    0    0  0.00000000000E+00  0.00000000000E+00  0.11281075390E+03  0.16837250377E+03  0.12499213508E+03 0.  0.
    9000005    1    3    3    0    0 -0.58277783865E+02 -0.98190639331E+01  0.83749277428E+02  0.10250685625E+03  0.10000000000E+01 0.  0.
    9000005    1    3    3    0    0  0.58277783865E+02  0.98190639331E+01  0.29061476474E+02  0.65865647522E+02  0.10000000000E+01 0.  0.
<mgrwt>
<rscale>  0 0.12499214E+03</rscale>
<asrwt>0</asrwt>
<pdfrwt beam="1">  1        4 0.21629481E-01 0.12499214E+03</pdfrwt>
<pdfrwt beam="2">  1       -4 0.42739808E-02 0.12499214E+03</pdfrwt>
<totfact> 0.95769392E+03</totfact>
</mgrwt>
</event>
<event>
 5    1  0.3277540E-002  0.1250002E+03  0.7818608E-02  0.1235069E+00
         -4   -1    0    0    0  501 -0.00000000000E+00  0.00000000000E+00  0.19649214027E+03  0.19649624446E+03  0.12700000000E+01 0.  1.
          4   -1    0    0  501    0  0.00000000000E+00 -0.00000000000E+00 -0.19855397320E+02  0.19895972023E+02  0.12700000000E+01 0.  1.
         25    2    1    2    0    0  0.00000000000E+00  0.00000000000E+00  0.17663674295E+03  0.21639221648E+03  0.12500020958E+03 0.  0.
    9000005    1    3    3    0    0 -0.22179016428E+02 -0.57363504264E+02  0.69136123658E+02  0.92538013733E+02  0.10000000000E+01 0.  0.
    9000005    1    3    3    0    0  0.22179016428E+02  0.57363504264E+02  0.10750061929E+03  0.12385420275E+03  0.10000000000E+01 0.  0.
<mgrwt>
<rscale>  0 0.12500021E+03</rscale>
<asrwt>0</asrwt>
<pdfrwt beam="2">  1        4 0.30581133E-02 0.12500021E+03</pdfrwt>
<pdfrwt beam="1">  1       -4 0.30232998E-01 0.12500021E+03</pdfrwt>
<totfact> 0.87442062E+03</totfact>
</mgrwt>
</event>
<event>
 5    1  0.3277540E-002  0.1249944E+03  0.7818608E-02  0.1235078E+00
          4   -1    0    0  501    0  0.00000000000E+00  0.00000000000E+00  0.21792412802E+02  0.21829387434E+02  0.12700000000E+01 0. -1.
         -4   -1    0    0    0  501 -0.00000000000E+00 -0.00000000000E+00 -0.17904108835E+03  0.17904559257E+03  0.12700000000E+01 0. -1.
         25    2    1    2    0    0  0.00000000000E+00  0.00000000000E+00 -0.15724867555E+03  0.20087498000E+03  0.12499444639E+03 0.  0.
    9000005    1    3    3    0    0  0.53392672522E+02 -0.26293812488E+02 -0.10923306960E+03  0.12439857534E+03  0.10000000000E+01 0.  0.
    9000005    1    3    3    0    0 -0.53392672522E+02  0.26293812488E+02 -0.48015605950E+02  0.76476404655E+02  0.10000000000E+01 0.  0.
<mgrwt>
<rscale>  0 0.12499445E+03</rscale>
<asrwt>0</asrwt>
<pdfrwt beam="1">  1        4 0.33558697E-02 0.12499445E+03</pdfrwt>
<pdfrwt beam="2">  1       -4 0.27547973E-01 0.12499445E+03</pdfrwt>
<totfact> 0.89999327E+03</totfact>
</mgrwt>
</event>
<event>
 5    1  0.3277540E-002  0.1250011E+03  0.7818608E-02  0.1235068E+00
         -4   -1    0    0    0  501 -0.00000000000E+00  0.00000000000E+00  0.13975763224E+02  0.14033348057E+02  0.12700000000E+01 0.  1.
          4   -1    0    0  501    0  0.00000000000E+00 -0.00000000000E+00 -0.27887302152E+03  0.27887591332E+03  0.12700000000E+01 0.  1.
         25    2    1    2    0    0  0.00000000000E+00  0.00000000000E+00 -0.26489725830E+03  0.29290926138E+03  0.12500111179E+03 0.  0.
    9000005    1    3    3    0    0  0.39405992737E+02 -0.29569764776E+02 -0.22253799325E+03  0.22792841353E+03  0.10000000000E+01 0.  0.
    9000005    1    3    3    0    0 -0.39405992737E+02  0.29569764776E+02 -0.42359265044E+02  0.64980847852E+02  0.10000000000E+01 0.  0.
<mgrwt>
<rscale>  0 0.12500111E+03</rscale>
<asrwt>0</asrwt>
<pdfrwt beam="2">  1        4 0.42908190E-01 0.12500111E+03</pdfrwt>
<pdfrwt beam="1">  1       -4 0.21547697E-02 0.12500111E+03</pdfrwt>
<totfact> 0.76495097E+03</totfact>
</mgrwt>
</event>
<event>
 5    1  0.3277540E-002  0.1250017E+03  0.7818608E-02  0.1235067E+00
         -4   -1    0    0    0  501 -0.00000000000E+00  0.00000000000E+00  0.32121314011E+02  0.32146410590E+02  0.12700000000E+01 0. -1.
          4   -1    0    0  501    0  0.00000000000E+00 -0.00000000000E+00 -0.12153665837E+03  0.12154329364E+03  0.12700000000E+01 0. -1.
         25    2    1    2    0    0  0.00000000000E+00  0.00000000000E+00 -0.89415344362E+02  0.15368970423E+03  0.12500168550E+03 0.  0.
    9000005    1    3    3    0    0 -0.68755287097E+01  0.34163851898E+02 -0.10848683122E+03  0.11395101675E+03  0.10000000000E+01 0.  0.
    9000005    1    3    3    0    0  0.68755287097E+01 -0.34163851898E+02  0.19071486854E+02  0.39738687476E+02  0.10000000000E+01 0.  0.
<mgrwt>
<rscale>  0 0.12500169E+03</rscale>
<asrwt>0</asrwt>
<pdfrwt beam="2">  1        4 0.18700388E-01 0.12500169E+03</pdfrwt>
<pdfrwt beam="1">  1       -4 0.49441816E-02 0.12500169E+03</pdfrwt>
<totfact> 0.98569493E+03</totfact>
</mgrwt>
</event>
<event>
 5    1  0.3277540E-002  0.1249992E+03  0.7818608E-02  0.1235071E+00
         -4   -1    0    0    0  501 -0.00000000000E+00  0.00000000000E+00  0.42937529419E+03  0.42937717238E+03  0.12700000000E+01 0. -1.
          4   -1    0    0  501    0  0.00000000000E+00 -0.00000000000E+00 -0.90511671224E+01  0.91398318517E+01  0.12700000000E+01 0. -1.
         25    2    1    2    0    0  0.00000000000E+00  0.00000000000E+00  0.42032412707E+03  0.43851700423E+03  0.12499916482E+03 0.  0.
    9000005    1    3    3    0    0 -0.15625039599E+02 -0.31969421195E+02  0.39038083037E+03  0.39200048275E+03  0.10000000000E+01 0.  0.
    9000005    1    3    3    0    0  0.15625039599E+02  0.31969421195E+02  0.29943296703E+02  0.46516521489E+02  0.10000000000E+01 0.  0.
<mgrwt>
<rscale>  0 0.12499916E+03</rscale>
<asrwt>0</asrwt>
<pdfrwt beam="2">  1        4 0.13994523E-02 0.12499916E+03</pdfrwt>
<pdfrwt beam="1">  1       -4 0.66064693E-01 0.12499916E+03</pdfrwt>
<totfact> 0.60972618E+03</totfact>
</mgrwt>
</event>
<event>
 5    1  0.3277540E-002  0.1249995E+03  0.7818608E-02  0.1235070E+00
          4   -1    0    0  501    0  0.00000000000E+00  0.00000000000E+00  0.30271236001E+02  0.30297865090E+02  0.12700000000E+01 0.  1.
         -4   -1    0    0    0  501 -0.00000000000E+00 -0.00000000000E+00 -0.12895405391E+03  0.12896030754E+03  0.12700000000E+01 0.  1.
         25    2    1    2    0    0  0.00000000000E+00  0.00000000000E+00 -0.98682817913E+02  0.15925817263E+03  0.12499946799E+03 0.  0.
    9000005    1    3    3    0    0 -0.52948514163E+02  0.27419161117E+02 -0.25510453497E+02  0.64862460531E+02  0.10000000000E+01 0.  0.
    9000005    1    3    3    0    0  0.52948514163E+02 -0.27419161117E+02 -0.73172364417E+02  0.94395712100E+02  0.10000000000E+01 0.  0.
<mgrwt>
<rscale>  0 0.12499947E+03</rscale>
<asrwt>0</asrwt>
<pdfrwt beam="1">  1        4 0.46596427E-02 0.12499947E+03</pdfrwt>
<pdfrwt beam="2">  1       -4 0.19841614E-01 0.12499947E+03</pdfrwt>
<totfact> 0.97487160E+03</totfact>
</mgrwt>
</event>
<event>
 5    1  0.3277540E-002  0.1249982E+03  0.7818608E-02  0.1235072E+00
          4   -1    0    0  501    0  0.00000000000E+00  0.00000000000E+00  0.16127414732E+03  0.16127914773E+03  0.12700000000E+01 0. -1.
         -4   -1    0    0    0  501 -0.00000000000E+00 -0.00000000000E+00 -0.24198453546E+02  0.24231757138E+02  0.12700000000E+01 0. -1.
         25    2    1    2    0    0  0.00000000000E+00  0.00000000000E+00  0.13707569377E+03  0.18551090487E+03  0.12499820000E+03 0.  0.
    9000005    1    3    3    0    0 -0.53776430285E+02 -0.30255420607E+02  0.53857726694E+02  0.81908178193E+02  0.10000000000E+01 0.  0.
    9000005    1    3    3    0    0  0.53776430285E+02  0.30255420607E+02  0.83217967080E+02  0.10360272668E+03  0.10000000000E+01 0.  0.
<mgrwt>
<rscale>  0 0.12499820E+03</rscale>
<asrwt>0</asrwt>
<pdfrwt beam="1">  1        4 0.24814353E-01 0.12499820E+03</pdfrwt>
<pdfrwt beam="2">  1       -4 0.37257855E-02 0.12499820E+03</pdfrwt>
<totfact> 0.92638060E+03</totfact>
</mgrwt>
</event>
<event>
 5    1  0.3277540E-002  0.1249966E+03  0.7818608E-02  0.1235075E+00
          4   -1    0    0  501    0  0.00000000000E+00  0.00000000000E+00  0.54377445475E+02  0.54392274050E+02  0.12700000000E+01 0. -1.
         -4   -1    0    0    0  501 -0.00000000000E+00 -0.00000000000E+00 -0.71801742895E+02  0.71812973638E+02  0.12700000000E+01 0. -1.
         25    2    1    2    0    0  0.00000000000E+00  0.00000000000E+00 -0.17424297421E+02  0.12620524769E+03  0.12499663357E+03 0.  0.
    9000005    1    3    3    0    0  0.52435154009E+02  0.26449126593E+02 -0.30273678880E+02  0.66079477195E+02  0.10000000000E+01 0.  0.
    9000005    1    3    3    0    0 -0.52435154009E+02 -0.26449126593E+02  0.12849381459E+02  0.60125770493E+02  0.10000000000E+01 0.  0.
<mgrwt>
<rscale>  0 0.12499663E+03</rscale>
<asrwt>0</asrwt>
<pdfrwt beam="1">  1        4 0.83677654E-02 0.12499663E+03</pdfrwt>
<pdfrwt beam="2">  1       -4 0.11048427E-01 0.12499663E+03</pdfrwt>
<totfact> 0.10427256E+04</totfact>
</mgrwt>
</event>
<event>
 5    1  0.3277540E-002  0.1250013E+03  0.7818608E-02  0.1235067E+00
          4   -1    0    0  501    0  0.00000000000E+00  0.00000000000E+00  0.71799206845E+02  0.71810437985E+02  0.12700000000E+01 0. -1.
         -4   -1    0    0    0  501 -0.00000000000E+00 -0.00000000000E+00 -0.54383397034E+02  0.54398223987E+02  0.12700000000E+01 0. -1.
         25    2    1    2    0    0  0.00000000000E+00  0.00000000000E+00  0.17415809811E+02  0.12620866197E+03  0.12500126369E+03 0.  0.
    9000005    1    3    3    0    0  0.45753213851E+02 -0.42216435037E+02  0.14214483789E+02  0.63864195872E+02  0.10000000000E+01 0.  0.
    9000005    1    3    3    0    0 -0.45753213851E+02  0.42216435037E+02  0.32013260218E+01  0.62344466100E+02  0.10000000000E+01 0.  0.
<mgrwt>
<rscale>  0 0.12500126E+03</rscale>
<asrwt>0</asrwt>
<pdfrwt beam="1">  1        4 0.11048036E-01 0.12500126E+03</pdfrwt>
<pdfrwt beam="2">  1       -4 0.83686809E-02 0.12500126E+03</pdfrwt>
<totfact> 0.10426092E+04</totfact>
</mgrwt>
</event>
<event>
 5    1  0.3277540E-002  0.1249747E+03  0.7818608E-02  0.1235109E+00
          4   -1    0    0  501    0  0.00000000000E+00  0.00000000000E+00  0.14856013146E+03  0.14856555980E+03  0.12700000000E+01 0.  1.
         -4   -1    0    0    0  501 -0.00000000000E+00 -0.00000000000E+00 -0.26262161046E+02  0.26292850793E+02  0.12700000000E+01 0.  1.
         25    2    1    2    0    0  0.00000000000E+00  0.00000000000E+00  0.12229797041E+03  0.17485841059E+03  0.12497467819E+03 0.  0.
    9000005    1    3    3    0    0 -0.45987895108E+02 -0.22709238952E+02  0.11107086154E+03  0.12234513604E+03  0.10000000000E+01 0.  0.
    9000005    1    3    3    0    0  0.45987895108E+02  0.22709238952E+02  0.11227108872E+02  0.52513274549E+02  0.10000000000E+01 0.  0.
<mgrwt>
<rscale>  0 0.12497468E+03</rscale>
<asrwt>0</asrwt>
<pdfrwt beam="1">  1        4 0.22858184E-01 0.12497468E+03</pdfrwt>
<pdfrwt beam="2">  1       -4 0.40431107E-02 0.12497468E+03</pdfrwt>
<totfact> 0.94604509E+03</totfact>
</mgrwt>
</event>
<event>
 5    1  0.3277540E-002  0.1249939E+03  0.7818608E-02  0.1235079E+00
          4   -1    0    0  501    0  0.00000000000E+00  0.00000000000E+00  0.54616691625E+02  0.54631455262E+02  0.12700000000E+01 0.  1.
         -4   -1    0    0    0  501 -0.00000000000E+00 -0.00000000000E+00 -0.71484087877E+02  0.71495368518E+02  0.12700000000E+01 0.  1.
         25    2    1    2    0    0  0.00000000000E+00  0.00000000000E+00 -0.16867396251E+02  0.12612682378E+03  0.12499386633E+03 0.  0.
    9000005    1    3    3    0    0  0.20179621729E+02  0.27867452300E+01 -0.68044398781E+02  0.71035366457E+02  0.10000000000E+01 0.  0.
    9000005    1    3    3    0    0 -0.20179621729E+02 -0.27867452300E+01  0.51177002530E+02  0.55091457324E+02  0.10000000000E+01 0.  0.
<mgrwt>
<rscale>  0 0.12499387E+03</rscale>
<asrwt>0</asrwt>
<pdfrwt beam="1">  1        4 0.84045713E-02 0.12499387E+03</pdfrwt>
<pdfrwt beam="2">  1       -4 0.10999555E-01 0.12499387E+03</pdfrwt>
<totfact> 0.10429623E+04</totfact>
</mgrwt>
</event>
<event>
 5    1  0.3277540E-002  0.1249994E+03  0.7818608E-02  0.1235070E+00
         -4   -1    0    0    0  501 -0.00000000000E+00  0.00000000000E+00  0.18920783455E+02  0.18963357998E+02  0.12700000000E+01 0. -1.
          4   -1    0    0  501    0  0.00000000000E+00 -0.00000000000E+00 -0.20617420452E+03  0.20617811598E+03  0.12700000000E+01 0. -1.
         25    2    1    2    0    0  0.00000000000E+00  0.00000000000E+00 -0.18725342107E+03  0.22514147398E+03  0.12499935842E+03 0.  0.
    9000005    1    3    3    0    0 -0.33591152745E+02 -0.51115669798E+02 -0.70558554273E+02  0.93384617699E+02  0.10000000000E+01 0.  0.
    9000005    1    3    3    0    0  0.33591152745E+02  0.51115669798E+02 -0.11669486679E+03  0.13175685628E+03  0.10000000000E+01 0.  0.
<mgrwt>
<rscale>  0 0.12499936E+03</rscale>
<asrwt>0</asrwt>
<pdfrwt beam="2">  1        4 0.31722683E-01 0.12499936E+03</pdfrwt>
<pdfrwt beam="1">  1       -4 0.29144658E-02 0.12499936E+03</pdfrwt>
<totfact> 0.86062488E+03</totfact>
</mgrwt>
</event>
<event>
 5    1  0.3277540E-002  0.1250022E+03  0.7818608E-02  0.1235066E+00
         -4   -1    0    0    0  501 -0.00000000000E+00  0.00000000000E+00  0.10776752916E+04  0.10776760399E+04  0.12700000000E+01 0.  1.
          4   -1    0    0  501    0  0.00000000000E+00 -0.00000000000E+00 -0.35128144744E+01  0.37353400824E+01  0.12700000000E+01 0.  1.
         25    2    1    2    0    0  0.00000000000E+00  0.00000000000E+00  0.10741624771E+04  0.10814113800E+04  0.12500218215E+03 0.  0.
    9000005    1    3    3    0    0  0.17710203286E+02 -0.63893297655E+01  0.10525985672E+04  0.10527674095E+04  0.10000000000E+01 0.  0.
    9000005    1    3    3    0    0 -0.17710203286E+02  0.63893297655E+01  0.21563909943E+02  0.28643970523E+02  0.10000000000E+01 0.  0.
<mgrwt>
<rscale>  0 0.12500218E+03</rscale>
<asrwt>0</asrwt>
<pdfrwt beam="2">  1        4 0.55760714E-03 0.12500218E+03</pdfrwt>
<pdfrwt beam="1">  1       -4 0.16581361E+00 0.12500218E+03</pdfrwt>
<totfact> 0.28032512E+03</totfact>
</mgrwt>
</event>
<event>
 5    1  0.3277540E-002  0.1250014E+03  0.7818608E-02  0.1235067E+00
          4   -1    0    0  501    0  0.00000000000E+00  0.00000000000E+00  0.27608490783E+02  0.27637685564E+02  0.12700000000E+01 0.  1.
         -4   -1    0    0    0  501 -0.00000000000E+00 -0.00000000000E+00 -0.14138370166E+03  0.14138940552E+03  0.12700000000E+01 0.  1.
         25    2    1    2    0    0  0.00000000000E+00  0.00000000000E+00 -0.11377521087E+03  0.16902709109E+03  0.12500143564E+03 0.  0.
    9000005    1    3    3    0    0 -0.36807632995E+02 -0.18731240046E+02 -0.12030682952E+03  0.12720217934E+03  0.10000000000E+01 0.  0.
    9000005    1    3    3    0    0  0.36807632995E+02  0.18731240046E+02  0.65316186460E+01  0.41824911745E+02  0.10000000000E+01 0.  0.
<mgrwt>
<rscale>  0 0.12500144E+03</rscale>
<asrwt>0</asrwt>
<pdfrwt beam="1">  1        4 0.42501447E-02 0.12500144E+03</pdfrwt>
<pdfrwt beam="2">  1       -4 0.21754023E-01 0.12500144E+03</pdfrwt>
<totfact> 0.95627032E+03</totfact>
</mgrwt>
</event>
<event>
 5    1  0.3277540E-002  0.1249998E+03  0.7818608E-02  0.1235070E+00
         -4   -1    0    0    0  501 -0.00000000000E+00  0.00000000000E+00  0.40550183951E+02  0.40570066779E+02  0.12700000000E+01 0. -1.
          4   -1    0    0  501    0  0.00000000000E+00 -0.00000000000E+00 -0.96283308903E+02  0.96291684341E+02  0.12700000000E+01 0. -1.
         25    2    1    2    0    0  0.00000000000E+00  0.00000000000E+00 -0.55733124951E+02  0.13686175112E+03  0.12499983081E+03 0.  0.
    9000005    1    3    3    0    0 -0.39034658641E+02 -0.23617389923E+01 -0.81235918086E+02  0.90164054775E+02  0.10000000000E+01 0.  0.
    9000005    1    3    3    0    0  0.39034658641E+02  0.23617389923E+01  0.25502793135E+02  0.46697696345E+02  0.10000000000E+01 0.  0.
<mgrwt>
<rscale>  0 0.12499983E+03</rscale>
<asrwt>0</asrwt>
<pdfrwt beam="2">  1        4 0.14814990E-01 0.12499983E+03</pdfrwt>
<pdfrwt beam="1">  1       -4 0.62406636E-02 0.12499983E+03</pdfrwt>
<totfact> 0.10199016E+04</totfact>
</mgrwt>
</event>
<event>
 5    1  0.3277540E-002  0.1249986E+03  0.7818608E-02  0.1235072E+00
          4   -1    0    0  501    0  0.00000000000E+00  0.00000000000E+00  0.68697574126E+03  0.68697691517E+03  0.12700000000E+01 0. -1.
         -4   -1    0    0    0  501 -0.00000000000E+00 -0.00000000000E+00 -0.56139150454E+01  0.57557746774E+01  0.12700000000E+01 0. -1.
         25    2    1    2    0    0  0.00000000000E+00  0.00000000000E+00  0.68136182621E+03  0.69273268985E+03  0.12499856545E+03 0.  0.
    9000005    1    3    3    0    0  0.40983776295E+02  0.39171578227E+02  0.19499278947E+03  0.20306961960E+03  0.10000000000E+01 0.  0.
    9000005    1    3    3    0    0 -0.40983776295E+02 -0.39171578227E+02  0.48636903674E+03  0.48966307024E+03  0.10000000000E+01 0.  0.
<mgrwt>
<rscale>  0 0.12499857E+03</rscale>
<asrwt>0</asrwt>
<pdfrwt beam="1">  1        4 0.10569964E+00 0.12499857E+03</pdfrwt>
<pdfrwt beam="2">  1       -4 0.87468133E-03 0.12499857E+03</pdfrwt>
<totfact> 0.43474450E+03</totfact>
</mgrwt>
</event>
<event>
 5    1  0.3277540E-002  0.1249984E+03  0.7818608E-02  0.1235072E+00
          4   -1    0    0  501    0  0.00000000000E+00  0.00000000000E+00  0.20631960090E+04  0.20631963999E+04  0.12700000000E+01 0.  1.
         -4   -1    0    0    0  501 -0.00000000000E+00 -0.00000000000E+00 -0.16798381154E+01  0.21058860591E+01  0.12700000000E+01 0.  1.
         25    2    1    2    0    0  0.00000000000E+00  0.00000000000E+00  0.20615161709E+04  0.20653022859E+04  0.12499843784E+03 0.  0.
    9000005    1    3    3    0    0  0.54853778793E+02  0.19628714297E+02  0.65728503276E+03  0.65986274161E+03  0.10000000000E+01 0.  0.
    9000005    1    3    3    0    0 -0.54853778793E+02 -0.19628714297E+02  0.14042311381E+04  0.14054395443E+04  0.10000000000E+01 0.  0.
<mgrwt>
<rscale>  0 0.12499844E+03</rscale>
<asrwt>0</asrwt>
<pdfrwt beam="1">  1        4 0.31744869E+00 0.12499844E+03</pdfrwt>
<pdfrwt beam="2">  1       -4 0.29123860E-03 0.12499844E+03</pdfrwt>
<totfact> 0.90330608E+02</totfact>
</mgrwt>
</event>
<event>
 5    1  0.3277540E-002  0.1250004E+03  0.7818608E-02  0.1235069E+00
         -4   -1    0    0    0  501 -0.00000000000E+00  0.00000000000E+00  0.24109105952E+02  0.24142532796E+02  0.12700000000E+01 0.  1.
          4   -1    0    0  501    0  0.00000000000E+00 -0.00000000000E+00 -0.16187674745E+03  0.16188172925E+03  0.12700000000E+01 0.  1.
         25    2    1    2    0    0  0.00000000000E+00  0.00000000000E+00 -0.13776764150E+03  0.18602426205E+03  0.12500041211E+03 0.  0.
    9000005    1    3    3    0    0  0.16932595709E+02  0.33661332567E+02 -0.14307684543E+03  0.14795871655E+03  0.10000000000E+01 0.  0.
    9000005    1    3    3    0    0 -0.16932595709E+02 -0.33661332567E+02  0.53092039236E+01  0.38065545496E+02  0.10000000000E+01 0.  0.
<mgrwt>
<rscale>  0 0.12500041E+03</rscale>
<asrwt>0</asrwt>
<pdfrwt beam="2">  1        4 0.24907069E-01 0.12500041E+03</pdfrwt>
<pdfrwt beam="1">  1       -4 0.37120478E-02 0.12500041E+03</pdfrwt>
<totfact> 0.92542864E+03</totfact>
</mgrwt>
</event>
<event>
 5    1  0.3277540E-002  0.1250012E+03  0.7818608E-02  0.1235067E+00
          4   -1    0    0  501    0  0.00000000000E+00  0.00000000000E+00  0.16977694636E+03  0.16978169635E+03  0.12700000000E+01 0.  1.
         -4   -1    0    0    0  501 -0.00000000000E+00 -0.00000000000E+00 -0.22985967583E+02  0.23021025297E+02  0.12700000000E+01 0.  1.
         25    2    1    2    0    0  0.00000000000E+00  0.00000000000E+00  0.14679097877E+03  0.19280272164E+03  0.12500119209E+03 0.  0.
    9000005    1    3    3    0    0 -0.50484394669E+02  0.32213698821E+02  0.10094065173E+03  0.11737295970E+03  0.10000000000E+01 0.  0.
    9000005    1    3    3    0    0  0.50484394669E+02 -0.32213698821E+02  0.45850327043E+02  0.75429761943E+02  0.10000000000E+01 0.  0.
<mgrwt>
<rscale>  0 0.12500119E+03</rscale>
<asrwt>0</asrwt>
<pdfrwt beam="1">  1        4 0.26122593E-01 0.12500119E+03</pdfrwt>
<pdfrwt beam="2">  1       -4 0.35393648E-02 0.12500119E+03</pdfrwt>
<totfact> 0.91359485E+03</totfact>
</mgrwt>
</event>
<event>
 5    1  0.3277540E-002  0.1249991E+03  0.7818608E-02  0.1235071E+00
         -4   -1    0    0    0  501 -0.00000000000E+00  0.00000000000E+00  0.15705161902E+04  0.15705167037E+04  0.12700000000E+01 0.  1.
          4   -1    0    0  501    0  0.00000000000E+00 -0.00000000000E+00 -0.23245349721E+01  0.26488417915E+01  0.12700000000E+01 0.  1.
         25    2    1    2    0    0  0.00000000000E+00  0.00000000000E+00  0.15681916552E+04  0.15731655455E+04  0.12499906390E+03 0.  0.
    9000005    1    3    3    0    0  0.48908389350E+00  0.51976941932E+02  0.12206756002E+04  0.12217822075E+04  0.10000000000E+01 0.  0.
    9000005    1    3    3    0    0 -0.48908389350E+00 -0.51976941932E+02  0.34751605508E+03  0.35138333802E+03  0.10000000000E+01 0.  0.
<mgrwt>
<rscale>  0 0.12499906E+03</rscale>
<asrwt>0</asrwt>
<pdfrwt beam="2">  1        4 0.38260720E-03 0.12499906E+03</pdfrwt>
<pdfrwt beam="1">  1       -4 0.24164270E+00 0.12499906E+03</pdfrwt>
<totfact> 0.16536547E+03</totfact>
</mgrwt>
</event>
<event>
 5    1  0.3277540E-002  0.1250004E+03  0.7818608E-02  0.1235069E+00
         -4   -1    0    0    0  501 -0.00000000000E+00  0.00000000000E+00  0.56055367425E+01  0.57476031675E+01  0.12700000000E+01 0. -1.
          4   -1    0    0  501    0  0.00000000000E+00 -0.00000000000E+00 -0.68799788490E+03  0.68799905707E+03  0.12700000000E+01 0. -1.
         25    2    1    2    0    0  0.00000000000E+00  0.00000000000E+00 -0.68239234816E+03  0.69374666024E+03  0.12500044706E+03 0.  0.
    9000005    1    3    3    0    0  0.15470518852E+02  0.74004838975E+01 -0.76825833996E+01  0.18818241235E+02  0.10000000000E+01 0.  0.
    9000005    1    3    3    0    0 -0.15470518852E+02 -0.74004838975E+01 -0.67470976476E+03  0.67492841900E+03  0.10000000000E+01 0.  0.
<mgrwt>
<rscale>  0 0.12500045E+03</rscale>
<asrwt>0</asrwt>
<pdfrwt beam="2">  1        4 0.10585678E+00 0.12500045E+03</pdfrwt>
<pdfrwt beam="1">  1       -4 0.87340917E-03 0.12500045E+03</pdfrwt>
<totfact> 0.43418453E+03</totfact>
</mgrwt>
</event>
<event>
 5    1  0.3277540E-002  0.1249987E+03  0.7818608E-02  0.1235071E+00
         -4   -1    0    0    0  501 -0.00000000000E+00  0.00000000000E+00  0.48751116160E+02  0.48767655540E+02  0.12700000000E+01 0. -1.
          4   -1    0    0  501    0  0.00000000000E+00 -0.00000000000E+00 -0.80089510567E+02  0.80099579292E+02  0.12700000000E+01 0. -1.
         25    2    1    2    0    0  0.00000000000E+00  0.00000000000E+00 -0.31338394407E+02  0.12886723483E+03  0.12499867699E+03 0.  0.
    9000005    1    3    3    0    0  0.34682586964E+01  0.53652155046E+02  0.17169147635E+02  0.56447871438E+02  0.10000000000E+01 0.  0.
    9000005    1    3    3    0    0 -0.34682586964E+01 -0.53652155046E+02 -0.48507542042E+02  0.72419363394E+02  0.10000000000E+01 0.  0.
<mgrwt>
<rscale>  0 0.12499868E+03</rscale>
<asrwt>0</asrwt>
<pdfrwt beam="2">  1        4 0.12323510E-01 0.12499868E+03</pdfrwt>
<pdfrwt beam="1">  1       -4 0.75022185E-02 0.12499868E+03</pdfrwt>
<totfact> 0.10369110E+04</totfact>
</mgrwt>
</event>
<event>
 4    1  0.3277540E-002  0.1249150E+03  0.7818608E-02  0.1235202E+00
         -4   -1    0    0    0  501 -0.00000000000E+00  0.00000000000E+00  0.39378517335E+03  0.39378722128E+03  0.12700000000E+01 0. -1.
          4   -1    0    0  501    0  0.00000000000E+00 -0.00000000000E+00 -0.98634809306E+01  0.99449060362E+01  0.12700000000E+01 0. -1.
    9000005    1    1    2    0    0  0.49175725768E+02 -0.49610188531E+00  0.31636105098E+03  0.32016216625E+03  0.10000000000E+01 0.  0.
    9000005    1    1    2    0    0 -0.49175725768E+02  0.49610188531E+00  0.67560641435E+02  0.83569961068E+02  0.10000000000E+01 0.  0.
<mgrwt>
<rscale>  0 0.12491503E+03</rscale>
<asrwt>0</asrwt>
<pdfrwt beam="2">  1        4 0.15238798E-02 0.12491503E+03</pdfrwt>
<pdfrwt beam="1">  1       -4 0.60588749E-01 0.12491503E+03</pdfrwt>
<totfact> 0.64311964E+03</totfact>
</mgrwt>
</event>
<event>
 5    1  0.3277540E-002  0.1250016E+03  0.7818608E-02  0.1235067E+00
          4   -1    0    0  501    0  0.00000000000E+00  0.00000000000E+00  0.27473311439E+02  0.27502649717E+02  0.12700000000E+01 0.  1.
         -4   -1    0    0    0  501 -0.00000000000E+00 -0.00000000000E+00 -0.14207895421E+03  0.14208463017E+03  0.12700000000E+01 0.  1.
         25    2    1    2    0    0  0.00000000000E+00  0.00000000000E+00 -0.11460564277E+03  0.16958727988E+03  0.12500156856E+03 0.  0.
    9000005    1    3    3    0    0  0.34339393569E+02  0.52150892454E+02 -0.53860351045E+02  0.82467247736E+02  0.10000000000E+01 0.  0.
    9000005    1    3    3    0    0 -0.34339393569E+02 -0.52150892454E+02 -0.60745291727E+02  0.87120032148E+02  0.10000000000E+01 0.  0.
<mgrwt>
<rscale>  0 0.12500157E+03</rscale>
<asrwt>0</asrwt>
<pdfrwt beam="1">  1        4 0.42293568E-02 0.12500157E+03</pdfrwt>
<pdfrwt beam="2">  1       -4 0.21860994E-01 0.12500157E+03</pdfrwt>
<totfact> 0.95522254E+03</totfact>
</mgrwt>
</event>
<event>
 5    1  0.3277540E-002  0.1249992E+03  0.7818608E-02  0.1235070E+00
          4   -1    0    0  501    0  0.00000000000E+00  0.00000000000E+00  0.63552460412E+03  0.63552587307E+03  0.12700000000E+01 0.  1.
         -4   -1    0    0    0  501 -0.00000000000E+00 -0.00000000000E+00 -0.60795306196E+01  0.62107642488E+01  0.12700000000E+01 0.  1.
         25    2    1    2    0    0  0.00000000000E+00  0.00000000000E+00  0.62944507350E+03  0.64173663732E+03  0.12499924449E+03 0.  0.
    9000005    1    3    3    0    0 -0.42161719000E+02  0.25938823772E+02  0.11890726365E+03  0.12880361205E+03  0.10000000000E+01 0.  0.
    9000005    1    3    3    0    0  0.42161719000E+02 -0.25938823772E+02  0.51053780985E+03  0.51293302527E+03  0.10000000000E+01 0.  0.
<mgrwt>
<rscale>  0 0.12499924E+03</rscale>
<asrwt>0</asrwt>
<pdfrwt beam="1">  1        4 0.97783228E-01 0.12499924E+03</pdfrwt>
<pdfrwt beam="2">  1       -4 0.94550472E-03 0.12499924E+03</pdfrwt>
<totfact> 0.46335463E+03</totfact>
</mgrwt>
</event>
<event>
 5    1  0.3277540E-002  0.1249986E+03  0.7818608E-02  0.1235071E+00
          4   -1    0    0  501    0  0.00000000000E+00  0.00000000000E+00  0.49613410363E+02  0.49629662379E+02  0.12700000000E+01 0.  1.
         -4   -1    0    0    0  501 -0.00000000000E+00 -0.00000000000E+00 -0.78697707660E+02  0.78707954432E+02  0.12700000000E+01 0.  1.
         25    2    1    2    0    0  0.00000000000E+00  0.00000000000E+00 -0.29084297297E+02  0.12833761681E+03  0.12499859015E+03 0.  0.
    9000005    1    3    3    0    0 -0.31780079262E+02  0.49511629813E+02 -0.36171132893E+02  0.69070440706E+02  0.10000000000E+01 0.  0.
    9000005    1    3    3    0    0  0.31780079262E+02 -0.49511629813E+02  0.70868355960E+01  0.59267176104E+02  0.10000000000E+01 0.  0.
<mgrwt>
<rscale>  0 0.12499859E+03</rscale>
<asrwt>0</asrwt>
<pdfrwt beam="1">  1        4 0.76348707E-02 0.12499859E+03</pdfrwt>
<pdfrwt beam="2">  1       -4 0.12109378E-01 0.12499859E+03</pdfrwt>
<totfact> 0.10380533E+04</totfact>
</mgrwt>
</event>
<event>
 5    1  0.3277540E-002  0.1250101E+03  0.7818608E-02  0.1235054E+00
         -4   -1    0    0    0  501 -0.00000000000E+00  0.00000000000E+00  0.50026196287E+03  0.50026357492E+03  0.12700000000E+01 0. -1.
          4   -1    0    0  501    0  0.00000000000E+00 -0.00000000000E+00 -0.77564030205E+01  0.78596875139E+01  0.12700000000E+01 0. -1.
         25    2    1    2    0    0  0.00000000000E+00  0.00000000000E+00  0.49250555985E+03  0.50812326244E+03  0.12501009298E+03 0.  0.
    9000005    1    3    3    0    0  0.20621478964E+02  0.57729638541E+02  0.19681673414E+03  0.20614505426E+03  0.10000000000E+01 0.  0.
    9000005    1    3    3    0    0 -0.20621478964E+02 -0.57729638541E+02  0.29568882571E+03  0.30197820817E+03  0.10000000000E+01 0.  0.
<mgrwt>
<rscale>  0 0.12501009E+03</rscale>
<asrwt>0</asrwt>
<pdfrwt beam="2">  1        4 0.12013617E-02 0.12501009E+03</pdfrwt>
<pdfrwt beam="1">  1       -4 0.76971449E-01 0.12501009E+03</pdfrwt>
<totfact> 0.55227308E+03</totfact>
</mgrwt>
</event>
<event>
 5    1  0.3277540E-002  0.1249999E+03  0.7818608E-02  0.1235070E+00
          4   -1    0    0  501    0  0.00000000000E+00  0.00000000000E+00  0.98466333804E+02  0.98474523573E+02  0.12700000000E+01 0.  1.
         -4   -1    0    0    0  501 -0.00000000000E+00 -0.00000000000E+00 -0.39650818468E+02  0.39671152053E+02  0.12700000000E+01 0.  1.
         25    2    1    2    0    0  0.00000000000E+00  0.00000000000E+00  0.58815515336E+02  0.13814567563E+03  0.12499985140E+03 0.  0.
    9000005    1    3    3    0    0  0.53189174606E+02  0.15211937748E+02  0.61528955749E+02  0.82748436487E+02  0.10000000000E+01 0.  0.
    9000005    1    3    3    0    0 -0.53189174606E+02 -0.15211937748E+02 -0.27134404136E+01  0.55397239139E+02  0.10000000000E+01 0.  0.
<mgrwt>
<rscale>  0 0.12499985E+03</rscale>
<asrwt>0</asrwt>
<pdfrwt beam="1">  1        4 0.15150861E-01 0.12499985E+03</pdfrwt>
<pdfrwt beam="2">  1       -4 0.61023201E-02 0.12499985E+03</pdfrwt>
<totfact> 0.10172197E+04</totfact>
</mgrwt>
</event>
<event>
 5    1  0.3277540E-002  0.1249961E+03  0.7818608E-02  0.1235075E+00
         -4   -1    0    0    0  501 -0.00000000000E+00  0.00000000000E+00  0.68750030565E+03  0.68750147866E+03  0.12700000000E+01 0.  1.
          4   -1    0    0  501    0  0.00000000000E+00 -0.00000000000E+00 -0.56093001510E+01  0.57512736141E+01  0.12700000000E+01 0.  1.
         25    2    1    2    0    0  0.00000000000E+00  0.00000000000E+00  0.68189100550E+03  0.69325275228E+03  0.12499614060E+03 0.  0.
    9000005    1    3    3    0    0 -0.45192711877E+02  0.24909709612E+02  0.14547590697E+03  0.15436033930E+03  0.10000000000E+01 0.  0.
    9000005    1    3    3    0    0  0.45192711877E+02 -0.24909709612E+02  0.53641509852E+03  0.53889241298E+03  0.10000000000E+01 0.  0.
<mgrwt>
<rscale>  0 0.12499614E+03</rscale>
<asrwt>0</asrwt>
<pdfrwt beam="2">  1        4 0.87398030E-03 0.12499614E+03</pdfrwt>
<pdfrwt beam="1">  1       -4 0.10578032E+00 0.12499614E+03</pdfrwt>
<totfact> 0.43448926E+03</totfact>
</mgrwt>
</event>
<event>
 5    1  0.3277540E-002  0.1250009E+03  0.7818608E-02  0.1235068E+00
          4   -1    0    0  501    0  0.00000000000E+00  0.00000000000E+00  0.13648420778E+03  0.13649011639E+03  0.12700000000E+01 0. -1.
         -4   -1    0    0    0  501 -0.00000000000E+00 -0.00000000000E+00 -0.28600333938E+02  0.28628517275E+02  0.12700000000E+01 0. -1.
         25    2    1    2    0    0  0.00000000000E+00  0.00000000000E+00  0.10788387384E+03  0.16511863367E+03  0.12500093179E+03 0.  0.
    9000005    1    3    3    0    0  0.60202697603E+02 -0.71544831644E+01  0.73964378338E+02  0.95641417236E+02  0.10000000000E+01 0.  0.
    9000005    1    3    3    0    0 -0.60202697603E+02  0.71544831644E+01  0.33919495504E+02  0.69477216432E+02  0.10000000000E+01 0.  0.
<mgrwt>
<rscale>  0 0.12500093E+03</rscale>
<asrwt>0</asrwt>
<pdfrwt beam="1">  1        4 0.21000193E-01 0.12500093E+03</pdfrwt>
<pdfrwt beam="2">  1       -4 0.44026737E-02 0.12500093E+03</pdfrwt>
<totfact> 0.96362912E+03</totfact>
</mgrwt>
</event>
<event>
 5    1  0.3277540E-002  0.1250014E+03  0.7818608E-02  0.1235067E+00
         -4   -1    0    0    0  501 -0.00000000000E+00  0.00000000000E+00  0.44560248480E+02  0.44578342776E+02  0.12700000000E+01 0.  1.
          4   -1    0    0  501    0  0.00000000000E+00 -0.00000000000E+00 -0.87623639517E+02  0.87632842600E+02  0.12700000000E+01 0.  1.
         25    2    1    2    0    0  0.00000000000E+00  0.00000000000E+00 -0.43063391037E+02  0.13221118538E+03  0.12500136756E+03 0.  0.
    9000005    1    3    3    0    0 -0.34265615719E+02  0.32095007022E+02 -0.65155153637E+02  0.80314481520E+02  0.10000000000E+01 0.  0.
    9000005    1    3    3    0    0  0.34265615719E+02 -0.32095007022E+02  0.22091762600E+02  0.51896703856E+02  0.10000000000E+01 0.  0.
<mgrwt>
<rscale>  0 0.12500137E+03</rscale>
<asrwt>0</asrwt>
<pdfrwt beam="2">  1        4 0.13482660E-01 0.12500137E+03</pdfrwt>
<pdfrwt beam="1">  1       -4 0.68575226E-02 0.12500137E+03</pdfrwt>
<totfact> 0.10296875E+04</totfact>
</mgrwt>
</event>
<event>
 5    1  0.3277540E-002  0.1249959E+03  0.7818608E-02  0.1235076E+00
         -4   -1    0    0    0  501 -0.00000000000E+00  0.00000000000E+00  0.10808458628E+03  0.10809204731E+03  0.12700000000E+01 0. -1.
          4   -1    0    0  501    0  0.00000000000E+00 -0.00000000000E+00 -0.36118410258E+02  0.36140731309E+02  0.12700000000E+01 0. -1.
         25    2    1    2    0    0  0.00000000000E+00  0.00000000000E+00  0.71966176019E+02  0.14423277861E+03  0.12499585568E+03 0.  0.
    9000005    1    3    3    0    0 -0.55550865113E+02 -0.23024255659E+02  0.55598582432E+02  0.81903707682E+02  0.10000000000E+01 0.  0.
    9000005    1    3    3    0    0  0.55550865113E+02  0.23024255659E+02  0.16367593587E+02  0.62329070933E+02  0.10000000000E+01 0.  0.
<mgrwt>
<rscale>  0 0.12499586E+03</rscale>
<asrwt>0</asrwt>
<pdfrwt beam="2">  1        4 0.55589695E-02 0.12499586E+03</pdfrwt>
<pdfrwt beam="1">  1       -4 0.16630689E-01 0.12499586E+03</pdfrwt>
<totfact> 0.10047538E+04</totfact>
</mgrwt>
</event>
<event>
 5    1  0.3277540E-002  0.1250167E+03  0.7818608E-02  0.1235043E+00
         -4   -1    0    0    0  501 -0.00000000000E+00  0.00000000000E+00  0.37962638242E+03  0.37962850674E+03  0.12700000000E+01 0. -1.
          4   -1    0    0  501    0  0.00000000000E+00 -0.00000000000E+00 -0.10251141632E+02  0.10329511352E+02  0.12700000000E+01 0. -1.
         25    2    1    2    0    0  0.00000000000E+00  0.00000000000E+00  0.36937524079E+03  0.38995801809E+03  0.12501674834E+03 0.  0.
    9000005    1    3    3    0    0  0.36309526134E+02  0.26215917851E+02  0.32067533656E+03  0.32378901697E+03  0.10000000000E+01 0.  0.
    9000005    1    3    3    0    0 -0.36309526134E+02 -0.26215917851E+02  0.48699904232E+02  0.66169001118E+02  0.10000000000E+01 0.  0.
<mgrwt>
<rscale>  0 0.12501675E+03</rscale>
<asrwt>0</asrwt>
<pdfrwt beam="2">  1        4 0.15832907E-02 0.12501675E+03</pdfrwt>
<pdfrwt beam="1">  1       -4 0.58410246E-01 0.12501675E+03</pdfrwt>
<totfact> 0.65517082E+03</totfact>
</mgrwt>
</event>
<event>
 5    1  0.3277540E-002  0.1249957E+03  0.7818608E-02  0.1235076E+00
         -4   -1    0    0    0  501 -0.00000000000E+00  0.00000000000E+00  0.36148496051E+01  0.38314537277E+01  0.12700000000E+01 0.  1.
          4   -1    0    0  501    0  0.00000000000E+00 -0.00000000000E+00 -0.10488888851E+04  0.10488896540E+04  0.12700000000E+01 0.  1.
         25    2    1    2    0    0  0.00000000000E+00  0.00000000000E+00 -0.10452740355E+04  0.10527211077E+04  0.12499568510E+03 0.  0.
    9000005    1    3    3    0    0  0.45328425658E+02 -0.85049801145E+01 -0.16751166356E+03  0.17374739793E+03  0.10000000000E+01 0.  0.
    9000005    1    3    3    0    0 -0.45328425658E+02  0.85049801145E+01 -0.87776237198E+03  0.87897370980E+03  0.10000000000E+01 0.  0.
<mgrwt>
<rscale>  0 0.12499569E+03</rscale>
<asrwt>0</asrwt>
<pdfrwt beam="2">  1        4 0.16138401E+00 0.12499569E+03</pdfrwt>
<pdfrwt beam="1">  1       -4 0.57285254E-03 0.12499569E+03</pdfrwt>
<totfact> 0.28912723E+03</totfact>
</mgrwt>
</event>
<event>
 5    1  0.3277540E-002  0.1250019E+03  0.7818608E-02  0.1235066E+00
         -4   -1    0    0    0  501 -0.00000000000E+00  0.00000000000E+00  0.22253355612E+03  0.22253718004E+03  0.12700000000E+01 0.  1.
          4   -1    0    0  501    0  0.00000000000E+00 -0.00000000000E+00 -0.17527329193E+02  0.17573279962E+02  0.12700000000E+01 0.  1.
         25    2    1    2    0    0  0.00000000000E+00  0.00000000000E+00  0.20500622693E+03  0.24011046000E+03  0.12500191968E+03 0.  0.
    9000005    1    3    3    0    0  0.41165343023E+02 -0.37548190161E+02  0.15686423464E+03  0.16646873629E+03  0.10000000000E+01 0.  0.
    9000005    1    3    3    0    0 -0.41165343023E+02  0.37548190161E+02  0.48141992283E+02  0.73641723714E+02  0.10000000000E+01 0.  0.
<mgrwt>
<rscale>  0 0.12500192E+03</rscale>
<asrwt>0</asrwt>
<pdfrwt beam="2">  1        4 0.27003256E-02 0.12500192E+03</pdfrwt>
<pdfrwt beam="1">  1       -4 0.34239745E-01 0.12500192E+03</pdfrwt>
<totfact> 0.83777333E+03</totfact>
</mgrwt>
</event>
<event>
 5    1  0.3277540E-002  0.1249995E+03  0.7818608E-02  0.1235070E+00
         -4   -1    0    0    0  501 -0.00000000000E+00  0.00000000000E+00  0.16913064273E+02  0.16960679323E+02  0.12700000000E+01 0.  1.
          4   -1    0    0  501    0  0.00000000000E+00 -0.00000000000E+00 -0.23058451509E+03  0.23058801248E+03  0.12700000000E+01 0.  1.
         25    2    1    2    0    0  0.00000000000E+00  0.00000000000E+00 -0.21367145082E+03  0.24754869181E+03  0.12499946368E+03 0.  0.
    9000005    1    3    3    0    0  0.39835381619E+02 -0.22886347520E+02 -0.22941288125E+02  0.51360930993E+02  0.10000000000E+01 0.  0.
    9000005    1    3    3    0    0 -0.39835381619E+02  0.22886347520E+02 -0.19073016269E+03  0.19618776081E+03  0.10000000000E+01 0.  0.
<mgrwt>
<rscale>  0 0.12499946E+03</rscale>
<asrwt>0</asrwt>
<pdfrwt beam="2">  1        4 0.35478470E-01 0.12499946E+03</pdfrwt>
<pdfrwt beam="1">  1       -4 0.26059418E-02 0.12499946E+03</pdfrwt>
<totfact> 0.82686803E+03</totfact>
</mgrwt>
</event>
<event>
 5    1  0.3277540E-002  0.1249977E+03  0.7818608E-02  0.1235073E+00
          4   -1    0    0  501    0  0.00000000000E+00  0.00000000000E+00  0.92886312843E+02  0.92894994556E+02  0.12700000000E+01 0. -1.
         -4   -1    0    0    0  501 -0.00000000000E+00 -0.00000000000E+00 -0.42032324237E+02  0.42051506284E+02  0.12700000000E+01 0. -1.
         25    2    1    2    0    0  0.00000000000E+00  0.00000000000E+00  0.50853988606E+02  0.13494650084E+03  0.12499771971E+03 0.  0.
    9000005    1    3    3    0    0  0.50466956059E+02 -0.12121020150E+02  0.63000425835E+02  0.81632630968E+02  0.10000000000E+01 0.  0.
    9000005    1    3    3    0    0 -0.50466956059E+02  0.12121020150E+02 -0.12146437229E+02  0.53313869872E+02  0.10000000000E+01 0.  0.
<mgrwt>
<rscale>  0 0.12499772E+03</rscale>
<asrwt>0</asrwt>
<pdfrwt beam="1">  1        4 0.14292345E-01 0.12499772E+03</pdfrwt>
<pdfrwt beam="2">  1       -4 0.64686548E-02 0.12499772E+03</pdfrwt>
<totfact> 0.10239725E+04</totfact>
</mgrwt>
</event>
<event>
 4    1  0.3277540E-002  0.1251424E+03  0.7818608E-02  0.1234847E+00
         -4   -1    0    0    0  501 -0.00000000000E+00  0.00000000000E+00  0.16807979890E+03  0.16808459685E+03  0.12700000000E+01 0.  1.
          4   -1    0    0  501    0  0.00000000000E+00 -0.00000000000E+00 -0.23270984265E+02  0.23305613244E+02  0.12700000000E+01 0.  1.
    9000005    1    1    2    0    0 -0.51674734297E+02 -0.27863654617E+02  0.10547203536E+03  0.12071458759E+03  0.10000000000E+01 0.  0.
    9000005    1    1    2    0    0  0.51674734297E+02  0.27863654617E+02  0.39336779279E+02  0.70675622511E+02  0.10000000000E+01 0.  0.
<mgrwt>
<rscale>  0 0.12514240E+03</rscale>
<asrwt>0</asrwt>
<pdfrwt beam="2">  1        4 0.35831843E-02 0.12514240E+03</pdfrwt>
<pdfrwt beam="1">  1       -4 0.25861463E-01 0.12514240E+03</pdfrwt>
<totfact> 0.91314441E+03</totfact>
</mgrwt>
</event>
<event>
 5    1  0.3277540E-002  0.1250003E+03  0.7818608E-02  0.1235069E+00
         -4   -1    0    0    0  501 -0.00000000000E+00  0.00000000000E+00  0.10217868859E+03  0.10218658083E+03  0.12700000000E+01 0.  1.
          4   -1    0    0  501    0  0.00000000000E+00 -0.00000000000E+00 -0.38209885522E+02  0.38230985491E+02  0.12700000000E+01 0.  1.
         25    2    1    2    0    0  0.00000000000E+00  0.00000000000E+00  0.63968803072E+02  0.14041756633E+03  0.12500034066E+03 0.  0.
    9000005    1    3    3    0    0 -0.19720846145E+02  0.19310424197E+02 -0.30997345079E+02  0.41516739483E+02  0.10000000000E+01 0.  0.
    9000005    1    3    3    0    0  0.19720846145E+02 -0.19310424197E+02  0.94966148151E+02  0.98900826842E+02  0.10000000000E+01 0.  0.
<mgrwt>
<rscale>  0 0.12500034E+03</rscale>
<asrwt>0</asrwt>
<pdfrwt beam="2">  1        4 0.58806741E-02 0.12500034E+03</pdfrwt>
<pdfrwt beam="1">  1       -4 0.15722028E-01 0.12500034E+03</pdfrwt>
<totfact> 0.10124861E+04</totfact>
</mgrwt>
</event>
<event>
 5    1  0.3277540E-002  0.1249949E+03  0.7818608E-02  0.1235077E+00
         -4   -1    0    0    0  501 -0.00000000000E+00  0.00000000000E+00  0.21377714621E+02  0.21415405259E+02  0.12700000000E+01 0. -1.
          4   -1    0    0  501    0  0.00000000000E+00 -0.00000000000E+00 -0.18250963701E+03  0.18251405563E+03  0.12700000000E+01 0. -1.
         25    2    1    2    0    0  0.00000000000E+00  0.00000000000E+00 -0.16113192239E+03  0.20392946088E+03  0.12499491432E+03 0.  0.
    9000005    1    3    3    0    0  0.10707131062E+02  0.53420425008E+02 -0.13049492762E+03  0.14141538317E+03  0.10000000000E+01 0.  0.
    9000005    1    3    3    0    0 -0.10707131062E+02 -0.53420425008E+02 -0.30636994766E+02  0.62514077710E+02  0.10000000000E+01 0.  0.
<mgrwt>
<rscale>  0 0.12499491E+03</rscale>
<asrwt>0</asrwt>
<pdfrwt beam="2">  1        4 0.28081644E-01 0.12499491E+03</pdfrwt>
<pdfrwt beam="1">  1       -4 0.32921185E-02 0.12499491E+03</pdfrwt>
<totfact> 0.89487157E+03</totfact>
</mgrwt>
</event>
<event>
 5    1  0.3277540E-002  0.1249978E+03  0.7818608E-02  0.1235073E+00
         -4   -1    0    0    0  501 -0.00000000000E+00  0.00000000000E+00  0.19837243422E+01  0.23554325008E+01  0.12700000000E+01 0. -1.
          4   -1    0    0  501    0  0.00000000000E+00 -0.00000000000E+00 -0.18000309138E+04  0.18000313618E+04  0.12700000000E+01 0. -1.
         25    2    1    2    0    0  0.00000000000E+00  0.00000000000E+00 -0.17980471894E+04  0.18023867943E+04  0.12499784328E+03 0.  0.
    9000005    1    3    3    0    0 -0.37739649563E+01  0.62347307301E+02 -0.87134120846E+03  0.87357766174E+03  0.10000000000E+01 0.  0.
    9000005    1    3    3    0    0  0.37739649563E+01 -0.62347307301E+02 -0.92670598096E+03  0.92880913254E+03  0.10000000000E+01 0.  0.
<mgrwt>
<rscale>  0 0.12499784E+03</rscale>
<asrwt>0</asrwt>
<pdfrwt beam="2">  1        4 0.27695527E+00 0.12499784E+03</pdfrwt>
<pdfrwt beam="1">  1       -4 0.33381720E-03 0.12499784E+03</pdfrwt>
<totfact> 0.12667471E+03</totfact>
</mgrwt>
</event>
<event>
 5    1  0.3277540E-002  0.1249747E+03  0.7818608E-02  0.1235109E+00
         -4   -1    0    0    0  501 -0.00000000000E+00  0.00000000000E+00  0.44624642998E+02  0.44642711194E+02  0.12700000000E+01 0. -1.
          4   -1    0    0  501    0  0.00000000000E+00 -0.00000000000E+00 -0.87459824393E+02  0.87469044713E+02  0.12700000000E+01 0. -1.
         25    2    1    2    0    0  0.00000000000E+00  0.00000000000E+00 -0.42835181395E+02  0.13211175591E+03  0.12497465056E+03 0.  0.
    9000005    1    3    3    0    0  0.25525934094E+02  0.92236835617E+01 -0.80907687304E+02  0.85344616203E+02  0.10000000000E+01 0.  0.
    9000005    1    3    3    0    0 -0.25525934094E+02 -0.92236835617E+01  0.38072505909E+02  0.46767139704E+02  0.10000000000E+01 0.  0.
<mgrwt>
<rscale>  0 0.12497465E+03</rscale>
<asrwt>0</asrwt>
<pdfrwt beam="2">  1        4 0.13457457E-01 0.12497465E+03</pdfrwt>
<pdfrwt beam="1">  1       -4 0.68674288E-02 0.12497465E+03</pdfrwt>
<totfact> 0.10305205E+04</totfact>
</mgrwt>
</event>
<event>
 5    1  0.3277540E-002  0.1249992E+03  0.7818608E-02  0.1235070E+00
          4   -1    0    0  501    0  0.00000000000E+00  0.00000000000E+00  0.94961679847E+02  0.94970171840E+02  0.12700000000E+01 0.  1.
         -4   -1    0    0    0  501 -0.00000000000E+00 -0.00000000000E+00 -0.41114367391E+02  0.41133977512E+02  0.12700000000E+01 0.  1.
         25    2    1    2    0    0  0.00000000000E+00  0.00000000000E+00  0.53847312456E+02  0.13610414935E+03  0.12499922565E+03 0.  0.
    9000005    1    3    3    0    0 -0.13395850898E+02  0.18855225815E+02 -0.36287541851E+02  0.43043629673E+02  0.10000000000E+01 0.  0.
    9000005    1    3    3    0    0  0.13395850898E+02 -0.18855225815E+02  0.90134854308E+02  0.93060519679E+02  0.10000000000E+01 0.  0.
<mgrwt>
<rscale>  0 0.12499923E+03</rscale>
<asrwt>0</asrwt>
<pdfrwt beam="1">  1        4 0.14611651E-01 0.12499923E+03</pdfrwt>
<pdfrwt beam="2">  1       -4 0.63274490E-02 0.12499923E+03</pdfrwt>
<totfact> 0.10215029E+04</totfact>
</mgrwt>
</event>
<event>
 5    1  0.3277540E-002  0.1250250E+03  0.7818608E-02  0.1235030E+00
          4   -1    0    0  501    0  0.00000000000E+00  0.00000000000E+00  0.13037963677E+03  0.13038582202E+03  0.12700000000E+01 0.  1.
         -4   -1    0    0    0  501 -0.00000000000E+00 -0.00000000000E+00 -0.29952218988E+02  0.29979131447E+02  0.12700000000E+01 0.  1.
         25    2    1    2    0    0  0.00000000000E+00  0.00000000000E+00  0.10042741778E+03  0.16036495347E+03  0.12502500573E+03 0.  0.
    9000005    1    3    3    0    0 -0.58746280764E+02  0.18519813398E+02  0.63830735570E+02  0.88710043374E+02  0.10000000000E+01 0.  0.
    9000005    1    3    3    0    0  0.58746280764E+02 -0.18519813398E+02  0.36596682214E+02  0.71654910097E+02  0.10000000000E+01 0.  0.
<mgrwt>
<rscale>  0 0.12502501E+03</rscale>
<asrwt>0</asrwt>
<pdfrwt beam="1">  1        4 0.20060952E-01 0.12502501E+03</pdfrwt>
<pdfrwt beam="2">  1       -4 0.46105796E-02 0.12502501E+03</pdfrwt>
<totfact> 0.97217820E+03</totfact>
</mgrwt>
</event>
<event>
 5    1  0.3277540E-002  0.1249966E+03  0.7818608E-02  0.1235075E+00
         -4   -1    0    0    0  501 -0.00000000000E+00  0.00000000000E+00  0.12497102716E+03  0.12497748009E+03  0.12700000000E+01 0.  1.
          4   -1    0    0  501    0  0.00000000000E+00 -0.00000000000E+00 -0.31235383801E+02  0.31261191615E+02  0.12700000000E+01 0.  1.
         25    2    1    2    0    0  0.00000000000E+00  0.00000000000E+00  0.93735643357E+02  0.15623867170E+03  0.12499660675E+03 0.  0.
    9000005    1    3    3    0    0  0.25660698337E+02 -0.96154164745E+01  0.11706646995E+03  0.12023512823E+03  0.10000000000E+01 0.  0.
    9000005    1    3    3    0    0 -0.25660698337E+02  0.96154164745E+01 -0.23330826595E+02  0.36003543474E+02  0.10000000000E+01 0.  0.
<mgrwt>
<rscale>  0 0.12499661E+03</rscale>
<asrwt>0</asrwt>
<pdfrwt beam="2">  1        4 0.48079254E-02 0.12499661E+03</pdfrwt>
<pdfrwt beam="1">  1       -4 0.19228793E-01 0.12499661E+03</pdfrwt>
<totfact> 0.98080364E+03</totfact>
</mgrwt>
</event>
<event>
 5    1  0.3277540E-002  0.1249986E+03  0.7818608E-02  0.1235071E+00
          4   -1    0    0  501    0  0.00000000000E+00  0.00000000000E+00  0.90149913431E+01  0.91040083983E+01  0.12700000000E+01 0. -1.
         -4   -1    0    0    0  501 -0.00000000000E+00 -0.00000000000E+00 -0.43107790839E+03  0.43107977916E+03  0.12700000000E+01 0. -1.
         25    2    1    2    0    0  0.00000000000E+00  0.00000000000E+00 -0.42206291704E+03  0.44018378756E+03  0.12499864353E+03 0.  0.
    9000005    1    3    3    0    0  0.35628178399E+02 -0.12184086842E+01 -0.30288044928E+02  0.46789072243E+02  0.10000000000E+01 0.  0.
    9000005    1    3    3    0    0 -0.35628178399E+02  0.12184086842E+01 -0.39177487211E+03  0.39339471531E+03  0.10000000000E+01 0.  0.
<mgrwt>
<rscale>  0 0.12499864E+03</rscale>
<asrwt>0</asrwt>
<pdfrwt beam="1">  1        4 0.13939134E-02 0.12499864E+03</pdfrwt>
<pdfrwt beam="2">  1       -4 0.66326654E-01 0.12499864E+03</pdfrwt>
<totfact> 0.60825443E+03</totfact>
</mgrwt>
</event>
<event>
 5    1  0.3277540E-002  0.1250012E+03  0.7818608E-02  0.1235067E+00
         -4   -1    0    0    0  501 -0.00000000000E+00  0.00000000000E+00  0.67342875760E+03  0.67342995513E+03  0.12700000000E+01 0. -1.
          4   -1    0    0  501    0  0.00000000000E+00 -0.00000000000E+00 -0.57299229913E+01  0.58689792542E+01  0.12700000000E+01 0. -1.
         25    2    1    2    0    0  0.00000000000E+00  0.00000000000E+00  0.66769883461E+03  0.67929893438E+03  0.12500123405E+03 0.  0.
    9000005    1    3    3    0    0 -0.36446373242E+02  0.33219592005E+02  0.12524956466E+03  0.13461178575E+03  0.10000000000E+01 0.  0.
    9000005    1    3    3    0    0  0.36446373242E+02 -0.33219592005E+02  0.54244926995E+03  0.54468714863E+03  0.10000000000E+01 0.  0.
<mgrwt>
<rscale>  0 0.12500123E+03</rscale>
<asrwt>0</asrwt>
<pdfrwt beam="2">  1        4 0.89231599E-03 0.12500123E+03</pdfrwt>
<pdfrwt beam="1">  1       -4 0.10361514E+00 0.12500123E+03</pdfrwt>
<totfact> 0.44201071E+03</totfact>
</mgrwt>
</event>
<event>
 5    1  0.3277540E-002  0.1249997E+03  0.7818608E-02  0.1235070E+00
         -4   -1    0    0    0  501 -0.00000000000E+00  0.00000000000E+00  0.99327330627E+01  0.10013595063E+02  0.12700000000E+01 0.  1.
          4   -1    0    0  501    0  0.00000000000E+00 -0.00000000000E+00 -0.39159208519E+03  0.39159414460E+03  0.12700000000E+01 0.  1.
         25    2    1    2    0    0  0.00000000000E+00  0.00000000000E+00 -0.38165935213E+03  0.40160773966E+03  0.12499966196E+03 0.  0.
    9000005    1    3    3    0    0  0.46870198013E+02 -0.23771476712E+02 -0.82192343672E+02  0.97562697406E+02  0.10000000000E+01 0.  0.
    9000005    1    3    3    0    0 -0.46870198013E+02  0.23771476712E+02 -0.29946700845E+03  0.30404504225E+03  0.10000000000E+01 0.  0.
<mgrwt>
<rscale>  0 0.12499966E+03</rscale>
<asrwt>0</asrwt>
<pdfrwt beam="2">  1        4 0.60251303E-01 0.12499966E+03</pdfrwt>
<pdfrwt beam="1">  1       -4 0.15344917E-02 0.12499966E+03</pdfrwt>
<totfact> 0.64397208E+03</totfact>
</mgrwt>
</event>
<event>
 5    1  0.3277540E-002  0.1250032E+03  0.7818608E-02  0.1235064E+00
         -4   -1    0    0    0  501 -0.00000000000E+00  0.00000000000E+00  0.23014951592E+03  0.23015301992E+03  0.12700000000E+01 0. -1.
          4   -1    0    0  501    0  0.00000000000E+00 -0.00000000000E+00 -0.16946128930E+02  0.16993651336E+02  0.12700000000E+01 0. -1.
         25    2    1    2    0    0  0.00000000000E+00  0.00000000000E+00  0.21320338699E+03  0.24714667125E+03  0.12500317151E+03 0.  0.
    9000005    1    3    3    0    0 -0.37014311673E+01 -0.31873505833E+02  0.57502113737E+00  0.32108435279E+02  0.10000000000E+01 0.  0.
    9000005    1    3    3    0    0  0.37014311673E+01  0.31873505833E+02  0.21262836585E+03  0.21503823597E+03  0.10000000000E+01 0.  0.
<mgrwt>
<rscale>  0 0.12500317E+03</rscale>
<asrwt>0</asrwt>
<pdfrwt beam="2">  1        4 0.26110220E-02 0.12500317E+03</pdfrwt>
<pdfrwt beam="1">  1       -4 0.35411541E-01 0.12500317E+03</pdfrwt>
<totfact> 0.82738533E+03</totfact>
</mgrwt>
</event>
<event>
 5    1  0.3277540E-002  0.1250014E+03  0.7818608E-02  0.1235067E+00
          4   -1    0    0  501    0  0.00000000000E+00  0.00000000000E+00  0.26337824638E+02  0.26368426321E+02  0.12700000000E+01 0. -1.
         -4   -1    0    0    0  501 -0.00000000000E+00 -0.00000000000E+00 -0.14819710346E+03  0.14820254509E+03  0.12700000000E+01 0. -1.
         25    2    1    2    0    0  0.00000000000E+00  0.00000000000E+00 -0.12185927882E+03  0.17457097142E+03  0.12500136090E+03 0.  0.
    9000005    1    3    3    0    0 -0.61909066975E+02  0.69163054099E+01 -0.67879814808E+02  0.92137056132E+02  0.10000000000E+01 0.  0.
    9000005    1    3    3    0    0  0.61909066975E+02 -0.69163054099E+01 -0.53979464009E+02  0.82433915284E+02  0.10000000000E+01 0.  0.
<mgrwt>
<rscale>  0 0.12500136E+03</rscale>
<asrwt>0</asrwt>
<pdfrwt beam="1">  1        4 0.40547457E-02 0.12500136E+03</pdfrwt>
<pdfrwt beam="2">  1       -4 0.22802326E-01 0.12500136E+03</pdfrwt>
<totfact> 0.94600587E+03</totfact>
</mgrwt>
</event>
<event>
 5    1  0.3277540E-002  0.1249986E+03  0.7818608E-02  0.1235071E+00
          4   -1    0    0  501    0  0.00000000000E+00  0.00000000000E+00  0.50673273225E+03  0.50673432372E+03  0.12700000000E+01 0. -1.
         -4   -1    0    0    0  501 -0.00000000000E+00 -0.00000000000E+00 -0.76546045256E+01  0.77592441928E+01  0.12700000000E+01 0. -1.
         25    2    1    2    0    0  0.00000000000E+00  0.00000000000E+00  0.49907812773E+03  0.51449356791E+03  0.12499861539E+03 0.  0.
    9000005    1    3    3    0    0 -0.41492850891E+02 -0.25713399733E+02  0.41013288999E+03  0.41302884046E+03  0.10000000000E+01 0.  0.
    9000005    1    3    3    0    0  0.41492850891E+02  0.25713399733E+02  0.88945237738E+02  0.10146472745E+03  0.10000000000E+01 0.  0.
<mgrwt>
<rscale>  0 0.12499862E+03</rscale>
<asrwt>0</asrwt>
<pdfrwt beam="1">  1        4 0.77967065E-01 0.12499862E+03</pdfrwt>
<pdfrwt beam="2">  1       -4 0.11858029E-02 0.12499862E+03</pdfrwt>
<totfact> 0.54758781E+03</totfact>
</mgrwt>
</event>
<event>
 5    1  0.3277540E-002  0.1250007E+03  0.7818608E-02  0.1235068E+00
          4   -1    0    0  501    0  0.00000000000E+00  0.00000000000E+00  0.30225739170E+03  0.30226005978E+03  0.12700000000E+01 0. -1.
         -4   -1    0    0    0  501 -0.00000000000E+00 -0.00000000000E+00 -0.12889791404E+02  0.12952205312E+02  0.12700000000E+01 0. -1.
         25    2    1    2    0    0  0.00000000000E+00  0.00000000000E+00  0.28936760030E+03  0.31521226509E+03  0.12500065585E+03 0.  0.
    9000005    1    3    3    0    0  0.15255327737E+02 -0.54898330774E+02  0.20940515274E+03  0.21702089701E+03  0.10000000000E+01 0.  0.
    9000005    1    3    3    0    0 -0.15255327737E+02  0.54898330774E+02  0.79962447559E+02  0.98191368082E+02  0.10000000000E+01 0.  0.
<mgrwt>
<rscale>  0 0.12500066E+03</rscale>
<asrwt>0</asrwt>
<pdfrwt beam="1">  1        4 0.46506142E-01 0.12500066E+03</pdfrwt>
<pdfrwt beam="2">  1       -4 0.19880512E-02 0.12500066E+03</pdfrwt>
<totfact> 0.73728132E+03</totfact>
</mgrwt>
</event>
<event>
 5    1  0.3277540E-002  0.1249994E+03  0.7818608E-02  0.1235070E+00
          4   -1    0    0  501    0  0.00000000000E+00  0.00000000000E+00  0.76960284922E+03  0.76960389710E+03  0.12700000000E+01 0. -1.
         -4   -1    0    0    0  501 -0.00000000000E+00 -0.00000000000E+00 -0.49951062753E+01  0.51540262613E+01  0.12700000000E+01 0. -1.
         25    2    1    2    0    0  0.00000000000E+00  0.00000000000E+00  0.76460774294E+03  0.77475792336E+03  0.12499935694E+03 0.  0.
    9000005    1    3    3    0    0 -0.21664024331E+01  0.61094583207E+02  0.46263281518E+03  0.46665550793E+03  0.10000000000E+01 0.  0.
    9000005    1    3    3    0    0  0.21664024331E+01 -0.61094583207E+02  0.30197492776E+03  0.30810241543E+03  0.10000000000E+01 0.  0.
<mgrwt>
<rscale>  0 0.12499936E+03</rscale>
<asrwt>0</asrwt>
<pdfrwt beam="1">  1        4 0.11841267E+00 0.12499936E+03</pdfrwt>
<pdfrwt beam="2">  1       -4 0.78078357E-03 0.12499936E+03</pdfrwt>
<totfact> 0.39417292E+03</totfact>
</mgrwt>
</event>
<event>
 5    1  0.3277540E-002  0.1250009E+03  0.7818608E-02  0.1235068E+00
         -4   -1    0    0    0  501 -0.00000000000E+00  0.00000000000E+00  0.16496501054E+02  0.16545314957E+02  0.12700000000E+01 0. -1.
          4   -1    0    0  501    0  0.00000000000E+00 -0.00000000000E+00 -0.23639577970E+03  0.23639919112E+03  0.12700000000E+01 0. -1.
         25    2    1    2    0    0  0.00000000000E+00  0.00000000000E+00 -0.21989927865E+03  0.25294450608E+03  0.12500092161E+03 0.  0.
    9000005    1    3    3    0    0  0.22180381063E+02  0.56516516643E+02 -0.13991046312E+03  0.15251892882E+03  0.10000000000E+01 0.  0.
    9000005    1    3    3    0    0 -0.22180381063E+02 -0.56516516643E+02 -0.79988815527E+02  0.10042557726E+03  0.10000000000E+01 0.  0.
<mgrwt>
<rscale>  0 0.12500092E+03</rscale>
<asrwt>0</asrwt>
<pdfrwt beam="2">  1        4 0.36372596E-01 0.12500092E+03</pdfrwt>
<pdfrwt beam="1">  1       -4 0.25419407E-02 0.12500092E+03</pdfrwt>
<totfact> 0.81904829E+03</totfact>
</mgrwt>
</event>
<event>
 5    1  0.3277540E-002  0.1249967E+03  0.7818608E-02  0.1235074E+00
          4   -1    0    0  501    0  0.00000000000E+00  0.00000000000E+00  0.17610573006E+03  0.17611030935E+03  0.12700000000E+01 0. -1.
         -4   -1    0    0    0  501 -0.00000000000E+00 -0.00000000000E+00 -0.22157064029E+02  0.22193431154E+02  0.12700000000E+01 0. -1.
         25    2    1    2    0    0  0.00000000000E+00  0.00000000000E+00  0.15394866603E+03  0.19830374051E+03  0.12499672686E+03 0.  0.
    9000005    1    3    3    0    0 -0.58521149399E+02 -0.11981982795E+02  0.47861280787E+02  0.76550604421E+02  0.10000000000E+01 0.  0.
    9000005    1    3    3    0    0  0.58521149399E+02  0.11981982795E+02  0.10608738525E+03  0.12175313609E+03  0.10000000000E+01 0.  0.
<mgrwt>
<rscale>  0 0.12499673E+03</rscale>
<asrwt>0</asrwt>
<pdfrwt beam="1">  1        4 0.27096340E-01 0.12499673E+03</pdfrwt>
<pdfrwt beam="2">  1       -4 0.34119287E-02 0.12499673E+03</pdfrwt>
<totfact> 0.90428851E+03</totfact>
</mgrwt>
</event>
<event>
 5    1  0.3277540E-002  0.1250069E+03  0.7818608E-02  0.1235059E+00
         -4   -1    0    0    0  501 -0.00000000000E+00  0.00000000000E+00  0.24637697444E+01  0.27718335724E+01  0.12700000000E+01 0. -1.
          4   -1    0    0  501    0  0.00000000000E+00 -0.00000000000E+00 -0.14920427036E+04  0.14920432441E+04  0.12700000000E+01 0. -1.
         25    2    1    2    0    0  0.00000000000E+00  0.00000000000E+00 -0.14895789338E+04  0.14948150776E+04  0.12500686482E+03 0.  0.
    9000005    1    3    3    0    0 -0.34782167891E+02  0.40143539118E+02 -0.35101860117E+03  0.35501600148E+03  0.10000000000E+01 0.  0.
    9000005    1    3    3    0    0  0.34782167891E+02 -0.40143539118E+02 -0.11385603326E+04  0.11397990762E+04  0.10000000000E+01 0.  0.
<mgrwt>
<rscale>  0 0.12500686E+03</rscale>
<asrwt>0</asrwt>
<pdfrwt beam="2">  1        4 0.22956809E+00 0.12500686E+03</pdfrwt>
<pdfrwt beam="1">  1       -4 0.40278149E-03 0.12500686E+03</pdfrwt>
<totfact> 0.18029995E+03</totfact>
</mgrwt>
</event>
<event>
 5    1  0.3277540E-002  0.1250070E+03  0.7818608E-02  0.1235058E+00
          4   -1    0    0  501    0  0.00000000000E+00  0.00000000000E+00  0.75128598603E+02  0.75139332097E+02  0.12700000000E+01 0. -1.
         -4   -1    0    0    0  501 -0.00000000000E+00 -0.00000000000E+00 -0.51977801336E+02  0.51993314298E+02  0.12700000000E+01 0. -1.
         25    2    1    2    0    0  0.00000000000E+00  0.00000000000E+00  0.23150797267E+02  0.12713264640E+03  0.12500700127E+03 0.  0.
    9000005    1    3    3    0    0 -0.27099432681E+01 -0.57655112457E+02  0.35946007088E+02  0.68004199947E+02  0.10000000000E+01 0.  0.
    9000005    1    3    3    0    0  0.27099432681E+01  0.57655112457E+02 -0.12795209820E+02  0.59128446448E+02  0.10000000000E+01 0.  0.
<mgrwt>
<rscale>  0 0.12500700E+03</rscale>
<asrwt>0</asrwt>
<pdfrwt beam="1">  1        4 0.11560265E-01 0.12500700E+03</pdfrwt>
<pdfrwt beam="2">  1       -4 0.79986038E-02 0.12500700E+03</pdfrwt>
<totfact> 0.10404621E+04</totfact>
</mgrwt>
</event>
<event>
 5    1  0.3277540E-002  0.1250056E+03  0.7818608E-02  0.1235061E+00
         -4   -1    0    0    0  501 -0.00000000000E+00  0.00000000000E+00  0.31197362641E+03  0.31197621140E+03  0.12700000000E+01 0.  1.
          4   -1    0    0  501    0  0.00000000000E+00 -0.00000000000E+00 -0.12487361902E+02  0.12551777056E+02  0.12700000000E+01 0.  1.
         25    2    1    2    0    0  0.00000000000E+00  0.00000000000E+00  0.29948626451E+03  0.32452798845E+03  0.12500557051E+03 0.  0.
    9000005    1    3    3    0    0 -0.17619461057E+01 -0.54378585325E+02  0.69916997866E+02  0.88597525849E+02  0.10000000000E+01 0.  0.
    9000005    1    3    3    0    0  0.17619461057E+01  0.54378585325E+02  0.22956926665E+03  0.23593046260E+03  0.10000000000E+01 0.  0.
<mgrwt>
<rscale>  0 0.12500557E+03</rscale>
<asrwt>0</asrwt>
<pdfrwt beam="2">  1        4 0.19262868E-02 0.12500557E+03</pdfrwt>
<pdfrwt beam="1">  1       -4 0.48001088E-01 0.12500557E+03</pdfrwt>
<totfact> 0.72611838E+03</totfact>
</mgrwt>
</event>
<event>
 5    1  0.3277540E-002  0.1249999E+03  0.7818608E-02  0.1235069E+00
          4   -1    0    0  501    0  0.00000000000E+00  0.00000000000E+00  0.20577680342E+03  0.20578072244E+03  0.12700000000E+01 0. -1.
         -4   -1    0    0    0  501 -0.00000000000E+00 -0.00000000000E+00 -0.18957583303E+02  0.19000075387E+02  0.12700000000E+01 0. -1.
         25    2    1    2    0    0  0.00000000000E+00  0.00000000000E+00  0.18681922012E+03  0.22478079782E+03  0.12499994426E+03 0.  0.
    9000005    1    3    3    0    0  0.61467919998E+02 -0.11969246405E+01  0.11355549282E+03  0.12913399152E+03  0.10000000000E+01 0.  0.
    9000005    1    3    3    0    0 -0.61467919998E+02  0.11969246405E+01  0.73263727302E+02  0.95646806301E+02  0.10000000000E+01 0.  0.
<mgrwt>
<rscale>  0 0.12499994E+03</rscale>
<asrwt>0</asrwt>
<pdfrwt beam="1">  1        4 0.31661541E-01 0.12499994E+03</pdfrwt>
<pdfrwt beam="2">  1       -4 0.29201213E-02 0.12499994E+03</pdfrwt>
<totfact> 0.86117564E+03</totfact>
</mgrwt>
</event>
<event>
 5    1  0.3277540E-002  0.1249918E+03  0.7818608E-02  0.1235082E+00
         -4   -1    0    0    0  501 -0.00000000000E+00  0.00000000000E+00  0.24798491881E+03  0.24798817080E+03  0.12700000000E+01 0.  1.
          4   -1    0    0  501    0  0.00000000000E+00 -0.00000000000E+00 -0.15720942654E+02  0.15772157047E+02  0.12700000000E+01 0.  1.
         25    2    1    2    0    0  0.00000000000E+00  0.00000000000E+00  0.23226397616E+03  0.26376032785E+03  0.12499182344E+03 0.  0.
    9000005    1    3    3    0    0  0.26382369214E+02  0.12663241229E+02  0.23264124171E+03  0.23447672471E+03  0.10000000000E+01 0.  0.
    9000005    1    3    3    0    0 -0.26382369214E+02 -0.12663241229E+02 -0.37726555390E+00  0.29283603144E+02  0.10000000000E+01 0.  0.
<mgrwt>
<rscale>  0 0.12499182E+03</rscale>
<asrwt>0</asrwt>
<pdfrwt beam="2">  1        4 0.24227965E-02 0.12499182E+03</pdfrwt>
<pdfrwt beam="1">  1       -4 0.38155712E-01 0.12499182E+03</pdfrwt>
<totfact> 0.80395862E+03</totfact>
</mgrwt>
</event>
<event>
 5    1  0.3277540E-002  0.1249998E+03  0.7818608E-02  0.1235070E+00
          4   -1    0    0  501    0  0.00000000000E+00  0.00000000000E+00  0.22940402094E+02  0.22975529335E+02  0.12700000000E+01 0. -1.
         -4   -1    0    0    0  501 -0.00000000000E+00 -0.00000000000E+00 -0.17010997012E+03  0.17011471081E+03  0.12700000000E+01 0. -1.
         25    2    1    2    0    0  0.00000000000E+00  0.00000000000E+00 -0.14716956803E+03  0.19309024015E+03  0.12499983635E+03 0.  0.
    9000005    1    3    3    0    0 -0.39549131536E+02 -0.48024679121E+02 -0.64480583953E+02  0.89606078571E+02  0.10000000000E+01 0.  0.
    9000005    1    3    3    0    0  0.39549131536E+02  0.48024679121E+02 -0.82688984075E+02  0.10348416158E+03  0.10000000000E+01 0.  0.
<mgrwt>
<rscale>  0 0.12499984E+03</rscale>
<asrwt>0</asrwt>
<pdfrwt beam="1">  1        4 0.35323595E-02 0.12499984E+03</pdfrwt>
<pdfrwt beam="2">  1       -4 0.26173831E-01 0.12499984E+03</pdfrwt>
<totfact> 0.91312721E+03</totfact>
</mgrwt>
</event>
<event>
 5    1  0.3277540E-002  0.1249976E+03  0.7818608E-02  0.1235073E+00
         -4   -1    0    0    0  501 -0.00000000000E+00  0.00000000000E+00  0.42259304191E+03  0.42259495024E+03  0.12700000000E+01 0.  1.
          4   -1    0    0  501    0  0.00000000000E+00 -0.00000000000E+00 -0.91976023713E+01  0.92848688403E+01  0.12700000000E+01 0.  1.
         25    2    1    2    0    0  0.00000000000E+00  0.00000000000E+00  0.41339543954E+03  0.43187981909E+03  0.12499755478E+03 0.  0.
    9000005    1    3    3    0    0  0.54698276022E+02 -0.24628833321E+02  0.26719823096E+03  0.27385100960E+03  0.10000000000E+01 0.  0.
    9000005    1    3    3    0    0 -0.54698276022E+02  0.24628833321E+02  0.14619720858E+03  0.15802880948E+03  0.10000000000E+01 0.  0.
<mgrwt>
<rscale>  0 0.12499755E+03</rscale>
<asrwt>0</asrwt>
<pdfrwt beam="2">  1        4 0.14218756E-02 0.12499755E+03</pdfrwt>
<pdfrwt beam="1">  1       -4 0.65021163E-01 0.12499755E+03</pdfrwt>
<totfact> 0.61569289E+03</totfact>
</mgrwt>
</event>
<event>
 5    1  0.3277540E-002  0.1250059E+03  0.7818608E-02  0.1235060E+00
          4   -1    0    0  501    0  0.00000000000E+00  0.00000000000E+00  0.24355023775E+04  0.24355027086E+04  0.12700000000E+01 0. -1.
         -4   -1    0    0    0  501 -0.00000000000E+00 -0.00000000000E+00 -0.13522638978E+01  0.18551327848E+01  0.12700000000E+01 0. -1.
         25    2    1    2    0    0  0.00000000000E+00  0.00000000000E+00  0.24341501136E+04  0.24373578414E+04  0.12500588594E+03 0.  0.
    9000005    1    3    3    0    0  0.10779978014E+02  0.61084640092E+02  0.13656651291E+04  0.13670734384E+04  0.10000000000E+01 0.  0.
    9000005    1    3    3    0    0 -0.10779978014E+02 -0.61084640092E+02  0.10684849845E+04  0.10702844030E+04  0.10000000000E+01 0.  0.
<mgrwt>
<rscale>  0 0.12500589E+03</rscale>
<asrwt>0</asrwt>
<pdfrwt beam="1">  1        4 0.37473052E+00 0.12500589E+03</pdfrwt>
<pdfrwt beam="2">  1       -4 0.24674886E-03 0.12500589E+03</pdfrwt>
<totfact> 0.51797444E+02</totfact>
</mgrwt>
</event>
<event>
 5    1  0.3277540E-002  0.1250032E+03  0.7818608E-02  0.1235064E+00
         -4   -1    0    0    0  501 -0.00000000000E+00  0.00000000000E+00  0.36968927980E+02  0.36990735813E+02  0.12700000000E+01 0.  1.
          4   -1    0    0  501    0  0.00000000000E+00 -0.00000000000E+00 -0.10561160985E+03  0.10561924557E+03  0.12700000000E+01 0.  1.
         25    2    1    2    0    0  0.00000000000E+00  0.00000000000E+00 -0.68642681873E+02  0.14260998139E+03  0.12500315603E+03 0.  0.
    9000005    1    3    3    0    0  0.23323347503E+02 -0.28249338060E+02  0.23440473866E+02  0.43502407458E+02  0.10000000000E+01 0.  0.
    9000005    1    3    3    0    0 -0.23323347503E+02  0.28249338060E+02 -0.92083155739E+02  0.99107573930E+02  0.10000000000E+01 0.  0.
<mgrwt>
<rscale>  0 0.12500316E+03</rscale>
<asrwt>0</asrwt>
<pdfrwt beam="2">  1        4 0.16250205E-01 0.12500316E+03</pdfrwt>
<pdfrwt beam="1">  1       -4 0.56897923E-02 0.12500316E+03</pdfrwt>
<totfact> 0.10079060E+04</totfact>
</mgrwt>
</event>
<event>
 5    1  0.3277540E-002  0.1250005E+03  0.7818608E-02  0.1235069E+00
          4   -1    0    0  501    0  0.00000000000E+00  0.00000000000E+00  0.61224008726E+01  0.62527347973E+01  0.12700000000E+01 0. -1.
         -4   -1    0    0    0  501 -0.00000000000E+00 -0.00000000000E+00 -0.63117986451E+03  0.63118114220E+03  0.12700000000E+01 0. -1.
         25    2    1    2    0    0  0.00000000000E+00  0.00000000000E+00 -0.62505746364E+03  0.63743387699E+03  0.12500045875E+03 0.  0.
    9000005    1    3    3    0    0 -0.35494356299E+01  0.17728065901E+02 -0.61757641092E+03  0.61784181320E+03  0.10000000000E+01 0.  0.
    9000005    1    3    3    0    0  0.35494356299E+01 -0.17728065901E+02 -0.74810527182E+01  0.19592063793E+02  0.10000000000E+01 0.  0.
<mgrwt>
<rscale>  0 0.12500046E+03</rscale>
<asrwt>0</asrwt>
<pdfrwt beam="1">  1        4 0.95203230E-03 0.12500046E+03</pdfrwt>
<pdfrwt beam="2">  1       -4 0.97114668E-01 0.12500046E+03</pdfrwt>
<totfact> 0.46586366E+03</totfact>
</mgrwt>
</event>
<event>
 5    1  0.3277540E-002  0.1250012E+03  0.7818608E-02  0.1235067E+00
          4   -1    0    0  501    0  0.00000000000E+00  0.00000000000E+00  0.72181273229E+03  0.72181384954E+03  0.12700000000E+01 0. -1.
         -4   -1    0    0    0  501 -0.00000000000E+00 -0.00000000000E+00 -0.53361802785E+01  0.54852274305E+01  0.12700000000E+01 0. -1.
         25    2    1    2    0    0  0.00000000000E+00  0.00000000000E+00  0.71647655201E+03  0.72729907697E+03  0.12500119115E+03 0.  0.
    9000005    1    3    3    0    0  0.16701122574E+02 -0.26048098385E+02  0.42334525990E+02  0.52446572963E+02  0.10000000000E+01 0.  0.
    9000005    1    3    3    0    0 -0.16701122574E+02  0.26048098385E+02  0.67414202602E+03  0.67485250401E+03  0.10000000000E+01 0.  0.
<mgrwt>
<rscale>  0 0.12500119E+03</rscale>
<asrwt>0</asrwt>
<pdfrwt beam="1">  1        4 0.11105975E+00 0.12500119E+03</pdfrwt>
<pdfrwt beam="2">  1       -4 0.83250125E-03 0.12500119E+03</pdfrwt>
<totfact> 0.41683044E+03</totfact>
</mgrwt>
</event>
<event>
 5    1  0.3277540E-002  0.1249838E+03  0.7818608E-02  0.1235095E+00
          4   -1    0    0  501    0  0.00000000000E+00  0.00000000000E+00  0.36279068313E+02  0.36301290578E+02  0.12700000000E+01 0.  1.
         -4   -1    0    0    0  501 -0.00000000000E+00 -0.00000000000E+00 -0.10758545127E+03  0.10759294691E+03  0.12700000000E+01 0.  1.
         25    2    1    2    0    0  0.00000000000E+00  0.00000000000E+00 -0.71306382955E+02  0.14389423749E+03  0.12498380428E+03 0.  0.
    9000005    1    3    3    0    0 -0.26592559827E+02  0.45314656873E+02 -0.74587930477E+02  0.91241118683E+02  0.10000000000E+01 0.  0.
    9000005    1    3    3    0    0  0.26592559827E+02 -0.45314656873E+02  0.32815475217E+01  0.52653118804E+02  0.10000000000E+01 0.  0.
<mgrwt>
<rscale>  0 0.12498380E+03</rscale>
<asrwt>0</asrwt>
<pdfrwt beam="1">  1        4 0.55836812E-02 0.12498380E+03</pdfrwt>
<pdfrwt beam="2">  1       -4 0.16553894E-01 0.12498380E+03</pdfrwt>
<totfact> 0.10057171E+04</totfact>
</mgrwt>
</event>
<event>
 5    1  0.3277540E-002  0.1249987E+03  0.7818608E-02  0.1235071E+00
          4   -1    0    0  501    0  0.00000000000E+00  0.00000000000E+00  0.19023144919E+03  0.19023568845E+03  0.12700000000E+01 0. -1.
         -4   -1    0    0    0  501 -0.00000000000E+00 -0.00000000000E+00 -0.20509654948E+02  0.20548937834E+02  0.12700000000E+01 0. -1.
         25    2    1    2    0    0  0.00000000000E+00  0.00000000000E+00  0.16972179424E+03  0.21078462628E+03  0.12499868494E+03 0.  0.
    9000005    1    3    3    0    0 -0.97763812888E+01  0.60923866944E+02  0.10154351045E+03  0.11882499615E+03  0.10000000000E+01 0.  0.
    9000005    1    3    3    0    0  0.97763812888E+01 -0.60923866944E+02  0.68178283783E+02  0.91959630132E+02  0.10000000000E+01 0.  0.
<mgrwt>
<rscale>  0 0.12499868E+03</rscale>
<asrwt>0</asrwt>
<pdfrwt beam="1">  1        4 0.29269724E-01 0.12499868E+03</pdfrwt>
<pdfrwt beam="2">  1       -4 0.31586795E-02 0.12499868E+03</pdfrwt>
<totfact> 0.88350499E+03</totfact>
</mgrwt>
</event>
<event>
 5    1  0.3277540E-002  0.1249999E+03  0.7818608E-02  0.1235069E+00
         -4   -1    0    0    0  501 -0.00000000000E+00  0.00000000000E+00  0.84786054625E+01  0.85731937216E+01  0.12700000000E+01 0.  1.
          4   -1    0    0  501    0  0.00000000000E+00 -0.00000000000E+00 -0.45806668356E+03  0.45806844411E+03  0.12700000000E+01 0.  1.
         25    2    1    2    0    0  0.00000000000E+00  0.00000000000E+00 -0.44958807810E+03  0.46664163783E+03  0.12499991276E+03 0.  0.
    9000005    1    3    3    0    0 -0.18457871735E+02 -0.25383394890E+02 -0.23058384132E+02  0.38957654497E+02  0.10000000000E+01 0.  0.
    9000005    1    3    3    0    0  0.18457871735E+02  0.25383394890E+02 -0.42652969397E+03  0.42768398334E+03  0.10000000000E+01 0.  0.
<mgrwt>
<rscale>  0 0.12499991E+03</rscale>
<asrwt>0</asrwt>
<pdfrwt beam="2">  1        4 0.70479190E-01 0.12499991E+03</pdfrwt>
<pdfrwt beam="1">  1       -4 0.13118126E-02 0.12499991E+03</pdfrwt>
<totfact> 0.58548882E+03</totfact>
</mgrwt>
</event>
<event>
 5    1  0.3277540E-002  0.1250093E+03  0.7818608E-02  0.1235055E+00
          4   -1    0    0  501    0  0.00000000000E+00  0.00000000000E+00  0.49764035477E+02  0.49780238318E+02  0.12700000000E+01 0.  1.
         -4   -1    0    0    0  501 -0.00000000000E+00 -0.00000000000E+00 -0.78473003853E+02  0.78483279963E+02  0.12700000000E+01 0.  1.
         25    2    1    2    0    0  0.00000000000E+00  0.00000000000E+00 -0.28708968376E+02  0.12826351828E+03  0.12500930068E+03 0.  0.
    9000005    1    3    3    0    0 -0.34532815209E+02 -0.13974436795E+02 -0.65840746859E+02  0.75655826986E+02  0.10000000000E+01 0.  0.
    9000005    1    3    3    0    0  0.34532815209E+02  0.13974436795E+02  0.37131778483E+02  0.52607691294E+02  0.10000000000E+01 0.  0.
<mgrwt>
<rscale>  0 0.12500930E+03</rscale>
<asrwt>0</asrwt>
<pdfrwt beam="1">  1        4 0.76580423E-02 0.12500930E+03</pdfrwt>
<pdfrwt beam="2">  1       -4 0.12074807E-01 0.12500930E+03</pdfrwt>
<totfact> 0.10379621E+04</totfact>
</mgrwt>
</event>
<event>
 5    1  0.3277540E-002  0.1249953E+03  0.7818608E-02  0.1235077E+00
          4   -1    0    0  501    0  0.00000000000E+00  0.00000000000E+00  0.12827974607E+02  0.12890687822E+02  0.12700000000E+01 0.  1.
         -4   -1    0    0    0  501 -0.00000000000E+00 -0.00000000000E+00 -0.30368087947E+03  0.30368353504E+03  0.12700000000E+01 0.  1.
         25    2    1    2    0    0  0.00000000000E+00  0.00000000000E+00 -0.29085290487E+03  0.31657422287E+03  0.12499530517E+03 0.  0.
    9000005    1    3    3    0    0 -0.36293690667E+02 -0.35691072080E+02 -0.53623135683E+02  0.73942716267E+02  0.10000000000E+01 0.  0.
    9000005    1    3    3    0    0  0.36293690667E+02  0.35691072080E+02 -0.23722976918E+03  0.24263150660E+03  0.10000000000E+01 0.  0.
<mgrwt>
<rscale>  0 0.12499531E+03</rscale>
<asrwt>0</asrwt>
<pdfrwt beam="1">  1        4 0.19785632E-02 0.12499531E+03</pdfrwt>
<pdfrwt beam="2">  1       -4 0.46725158E-01 0.12499531E+03</pdfrwt>
<totfact> 0.73573097E+03</totfact>
</mgrwt>
</event>
<event>
 5    1  0.3277540E-002  0.1250024E+03  0.7818608E-02  0.1235066E+00
          4   -1    0    0  501    0  0.00000000000E+00  0.00000000000E+00  0.40603594414E+02  0.40623451100E+02  0.12700000000E+01 0.  1.
         -4   -1    0    0    0  501 -0.00000000000E+00 -0.00000000000E+00 -0.96160636301E+02  0.96169022423E+02  0.12700000000E+01 0.  1.
         25    2    1    2    0    0  0.00000000000E+00  0.00000000000E+00 -0.55557041887E+02  0.13679247352E+03  0.12500238361E+03 0.  0.
    9000005    1    3    3    0    0 -0.39655601268E+02 -0.29901276752E+02  0.13729875867E+02  0.51537971969E+02  0.10000000000E+01 0.  0.
    9000005    1    3    3    0    0  0.39655601268E+02  0.29901276752E+02 -0.69286917754E+02  0.85254501554E+02  0.10000000000E+01 0.  0.
<mgrwt>
<rscale>  0 0.12500238E+03</rscale>
<asrwt>0</asrwt>
<pdfrwt beam="1">  1        4 0.62488794E-02 0.12500238E+03</pdfrwt>
<pdfrwt beam="2">  1       -4 0.14796116E-01 0.12500238E+03</pdfrwt>
<totfact> 0.10199879E+04</totfact>
</mgrwt>
</event>
<event>
 5    1  0.3277540E-002  0.1249962E+03  0.7818608E-02  0.1235075E+00
         -4   -1    0    0    0  501 -0.00000000000E+00  0.00000000000E+00  0.78503393016E+02  0.78513665148E+02  0.12700000000E+01 0. -1.
          4   -1    0    0  501    0  0.00000000000E+00 -0.00000000000E+00 -0.49734298693E+02  0.49750511219E+02  0.12700000000E+01 0. -1.
         25    2    1    2    0    0  0.00000000000E+00  0.00000000000E+00  0.28769094322E+02  0.12826417637E+03  0.12499615254E+03 0.  0.
    9000005    1    3    3    0    0 -0.49556980971E+01  0.36511411328E+02  0.66175574732E+02  0.75748589372E+02  0.10000000000E+01 0.  0.
    9000005    1    3    3    0    0  0.49556980971E+01 -0.36511411328E+02 -0.37406480409E+02  0.52515586995E+02  0.10000000000E+01 0.  0.
<mgrwt>
<rscale>  0 0.12499615E+03</rscale>
<asrwt>0</asrwt>
<pdfrwt beam="2">  1        4 0.76534678E-02 0.12499615E+03</pdfrwt>
<pdfrwt beam="1">  1       -4 0.12079482E-01 0.12499615E+03</pdfrwt>
<totfact> 0.10382688E+04</totfact>
</mgrwt>
</event>
<event>
 5    1  0.3277540E-002  0.1249980E+03  0.7818608E-02  0.1235072E+00
          4   -1    0    0  501    0  0.00000000000E+00  0.00000000000E+00  0.96616616693E+03  0.96616700162E+03  0.12700000000E+01 0.  1.
         -4   -1    0    0    0  501 -0.00000000000E+00 -0.00000000000E+00 -0.39423160130E+01  0.41418299756E+01  0.12700000000E+01 0.  1.
         25    2    1    2    0    0  0.00000000000E+00  0.00000000000E+00  0.96222385092E+03  0.97030883160E+03  0.12499795758E+03 0.  0.
    9000005    1    3    3    0    0 -0.36758264964E+01 -0.37084622533E+02  0.91715598480E+02  0.99002686496E+02  0.10000000000E+01 0.  0.
    9000005    1    3    3    0    0  0.36758264964E+01  0.37084622533E+02  0.87050825244E+03  0.87130614510E+03  0.10000000000E+01 0.  0.
<mgrwt>
<rscale>  0 0.12499796E+03</rscale>
<asrwt>0</asrwt>
<pdfrwt beam="1">  1        4 0.14865631E+00 0.12499796E+03</pdfrwt>
<pdfrwt beam="2">  1       -4 0.62192180E-03 0.12499796E+03</pdfrwt>
<totfact> 0.31607144E+03</totfact>
</mgrwt>
</event>
<event>
 5    1  0.3277540E-002  0.1250031E+03  0.7818608E-02  0.1235064E+00
          4   -1    0    0  501    0  0.00000000000E+00  0.00000000000E+00  0.51702689783E+03  0.51702845761E+03  0.12700000000E+01 0. -1.
         -4   -1    0    0    0  501 -0.00000000000E+00 -0.00000000000E+00 -0.75006422063E+01  0.76073999177E+01  0.12700000000E+01 0. -1.
         25    2    1    2    0    0  0.00000000000E+00  0.00000000000E+00  0.50952625562E+03  0.52463585753E+03  0.12500311130E+03 0.  0.
    9000005    1    3    3    0    0 -0.56519046013E+01 -0.50112923171E+02  0.40966506412E+03  0.41275866297E+03  0.10000000000E+01 0.  0.
    9000005    1    3    3    0    0  0.56519046013E+01  0.50112923171E+02  0.99861191502E+02  0.11187719456E+03  0.10000000000E+01 0.  0.
<mgrwt>
<rscale>  0 0.12500311E+03</rscale>
<asrwt>0</asrwt>
<pdfrwt beam="1">  1        4 0.79550909E-01 0.12500311E+03</pdfrwt>
<pdfrwt beam="2">  1       -4 0.11622774E-02 0.12500311E+03</pdfrwt>
<totfact> 0.53998657E+03</totfact>
</mgrwt>
</event>
<event>
 5    1  0.3277540E-002  0.1250212E+03  0.7818608E-02  0.1235036E+00
          4   -1    0    0  501    0  0.00000000000E+00  0.00000000000E+00  0.49744778961E+01  0.51340364567E+01  0.12700000000E+01 0. -1.
         -4   -1    0    0    0  501 -0.00000000000E+00 -0.00000000000E+00 -0.77296495611E+03  0.77296599943E+03  0.12700000000E+01 0. -1.
         25    2    1    2    0    0  0.00000000000E+00  0.00000000000E+00 -0.76799047821E+03  0.77810003588E+03  0.12502116308E+03 0.  0.
    9000005    1    3    3    0    0  0.14708173867E+01  0.52398419256E+02 -0.59586012556E+03  0.59816222455E+03  0.10000000000E+01 0.  0.
    9000005    1    3    3    0    0 -0.14708173867E+01 -0.52398419256E+02 -0.17213035265E+03  0.17993781134E+03  0.10000000000E+01 0.  0.
<mgrwt>
<rscale>  0 0.12502116E+03</rscale>
<asrwt>0</asrwt>
<pdfrwt beam="1">  1        4 0.77765889E-03 0.12502116E+03</pdfrwt>
<pdfrwt beam="2">  1       -4 0.11892995E+00 0.12502116E+03</pdfrwt>
<totfact> 0.39243159E+03</totfact>
</mgrwt>
</event>
<event>
 5    1  0.3277540E-002  0.1249965E+03  0.7818608E-02  0.1235075E+00
          4   -1    0    0  501    0  0.00000000000E+00  0.00000000000E+00  0.23397023988E+02  0.23431466695E+02  0.12700000000E+01 0. -1.
         -4   -1    0    0    0  501 -0.00000000000E+00 -0.00000000000E+00 -0.16678608214E+03  0.16679091731E+03  0.12700000000E+01 0. -1.
         25    2    1    2    0    0  0.00000000000E+00  0.00000000000E+00 -0.14338905816E+03  0.19022238400E+03  0.12499653346E+03 0.  0.
    9000005    1    3    3    0    0  0.33240985793E+02  0.52321126986E+02 -0.59656751671E+02  0.86037151775E+02  0.10000000000E+01 0.  0.
    9000005    1    3    3    0    0 -0.33240985793E+02 -0.52321126986E+02 -0.83732306485E+02  0.10418523223E+03  0.10000000000E+01 0.  0.
<mgrwt>
<rscale>  0 0.12499653E+03</rscale>
<asrwt>0</asrwt>
<pdfrwt beam="1">  1        4 0.36025636E-02 0.12499653E+03</pdfrwt>
<pdfrwt beam="2">  1       -4 0.25662418E-01 0.12499653E+03</pdfrwt>
<totfact> 0.91815764E+03</totfact>
</mgrwt>
</event>
<event>
 5    1  0.3277540E-002  0.1249769E+03  0.7818608E-02  0.1235105E+00
          4   -1    0    0  501    0  0.00000000000E+00  0.00000000000E+00  0.11117322868E+03  0.11118048244E+03  0.12700000000E+01 0.  1.
         -4   -1    0    0    0  501 -0.00000000000E+00 -0.00000000000E+00 -0.35103723839E+02  0.35126689673E+02  0.12700000000E+01 0.  1.
         25    2    1    2    0    0  0.00000000000E+00  0.00000000000E+00  0.76069504840E+02  0.14630717211E+03  0.12497687404E+03 0.  0.
    9000005    1    3    3    0    0 -0.45288089756E+02 -0.22305942916E+02 -0.50619299983E+01  0.50746323004E+02  0.10000000000E+01 0.  0.
    9000005    1    3    3    0    0  0.45288089756E+02  0.22305942916E+02  0.81131434838E+02  0.95560849107E+02  0.10000000000E+01 0.  0.
<mgrwt>
<rscale>  0 0.12497687E+03</rscale>
<asrwt>0</asrwt>
<pdfrwt beam="1">  1        4 0.17105898E-01 0.12497687E+03</pdfrwt>
<pdfrwt beam="2">  1       -4 0.54028975E-02 0.12497687E+03</pdfrwt>
<totfact> 0.10009708E+04</totfact>
</mgrwt>
</event>
<event>
 5    1  0.3277540E-002  0.1249940E+03  0.7818608E-02  0.1235079E+00
          4   -1    0    0  501    0  0.00000000000E+00  0.00000000000E+00  0.37330630363E+01  0.39431788741E+01  0.12700000000E+01 0.  1.
         -4   -1    0    0    0  501 -0.00000000000E+00 -0.00000000000E+00 -0.10174424700E+04  0.10174432627E+04  0.12700000000E+01 0.  1.
         25    2    1    2    0    0  0.00000000000E+00  0.00000000000E+00 -0.10137094070E+04  0.10213864415E+04  0.12499400430E+03 0.  0.
    9000005    1    3    3    0    0 -0.86460667984E+01 -0.11315852613E+02 -0.96635937769E+01  0.17239142558E+02  0.10000000000E+01 0.  0.
    9000005    1    3    3    0    0  0.86460667984E+01  0.11315852613E+02 -0.10040458132E+04  0.10041472990E+04  0.10000000000E+01 0.  0.
<mgrwt>
<rscale>  0 0.12499400E+03</rscale>
<asrwt>0</asrwt>
<pdfrwt beam="1">  1        4 0.59054193E-03 0.12499400E+03</pdfrwt>
<pdfrwt beam="2">  1       -4 0.15654562E+00 0.12499400E+03</pdfrwt>
<totfact> 0.29909225E+03</totfact>
</mgrwt>
</event>
<event>
 5    1  0.3277540E-002  0.1250007E+03  0.7818608E-02  0.1235068E+00
          4   -1    0    0  501    0  0.00000000000E+00  0.00000000000E+00  0.25313641822E+02  0.25345480116E+02  0.12700000000E+01 0. -1.
         -4   -1    0    0    0  501 -0.00000000000E+00 -0.00000000000E+00 -0.15418425269E+03  0.15418948303E+03  0.12700000000E+01 0. -1.
         25    2    1    2    0    0  0.00000000000E+00  0.00000000000E+00 -0.12887061087E+03  0.17953496315E+03  0.12500067459E+03 0.  0.
    9000005    1    3    3    0    0 -0.56407176298E+02  0.26320038999E+02 -0.56467144737E+02  0.84047917438E+02  0.10000000000E+01 0.  0.
    9000005    1    3    3    0    0  0.56407176298E+02 -0.26320038999E+02 -0.72403466133E+02  0.95487045712E+02  0.10000000000E+01 0.  0.
<mgrwt>
<rscale>  0 0.12500067E+03</rscale>
<asrwt>0</asrwt>
<pdfrwt beam="1">  1        4 0.38972579E-02 0.12500067E+03</pdfrwt>
<pdfrwt beam="2">  1       -4 0.23723505E-01 0.12500067E+03</pdfrwt>
<totfact> 0.93699361E+03</totfact>
</mgrwt>
</event>
<event>
 5    1  0.3277540E-002  0.1249996E+03  0.7818608E-02  0.1235070E+00
         -4   -1    0    0    0  501 -0.00000000000E+00  0.00000000000E+00  0.68367913101E+02  0.68379707822E+02  0.12700000000E+01 0.  1.
          4   -1    0    0  501    0  0.00000000000E+00 -0.00000000000E+00 -0.57111593543E+02  0.57125712399E+02  0.12700000000E+01 0.  1.
         25    2    1    2    0    0  0.00000000000E+00  0.00000000000E+00  0.11256319558E+02  0.12550542022E+03  0.12499962310E+03 0.  0.
    9000005    1    3    3    0    0 -0.36570964992E+02  0.40608032853E+02 -0.24805853203E+02  0.60023146917E+02  0.10000000000E+01 0.  0.
    9000005    1    3    3    0    0  0.36570964992E+02 -0.40608032853E+02  0.36062172761E+02  0.65482273303E+02  0.10000000000E+01 0.  0.
<mgrwt>
<rscale>  0 0.12499962E+03</rscale>
<asrwt>0</asrwt>
<pdfrwt beam="2">  1        4 0.87883924E-02 0.12499962E+03</pdfrwt>
<pdfrwt beam="1">  1       -4 0.10520134E-01 0.12499962E+03</pdfrwt>
<totfact> 0.10441923E+04</totfact>
</mgrwt>
</event>
<event>
 5    1  0.3277540E-002  0.1250003E+03  0.7818608E-02  0.1235069E+00
          4   -1    0    0  501    0  0.00000000000E+00  0.00000000000E+00  0.27527574052E+03  0.27527867012E+03  0.12700000000E+01 0.  1.
         -4   -1    0    0    0  501 -0.00000000000E+00 -0.00000000000E+00 -0.14158955572E+02  0.14215798356E+02  0.12700000000E+01 0.  1.
         25    2    1    2    0    0  0.00000000000E+00  0.00000000000E+00  0.26111678495E+03  0.28949446847E+03  0.12500028757E+03 0.  0.
    9000005    1    3    3    0    0  0.24908337527E+02 -0.81730955588E+01 -0.82037792913E+00  0.26246862466E+02  0.10000000000E+01 0.  0.
    9000005    1    3    3    0    0 -0.24908337527E+02  0.81730955588E+01  0.26193716288E+03  0.26324760600E+03  0.10000000000E+01 0.  0.
<mgrwt>
<rscale>  0 0.12500029E+03</rscale>
<asrwt>0</asrwt>
<pdfrwt beam="1">  1        4 0.42354708E-01 0.12500029E+03</pdfrwt>
<pdfrwt beam="2">  1       -4 0.21828989E-02 0.12500029E+03</pdfrwt>
<totfact> 0.76935327E+03</totfact>
</mgrwt>
</event>
<event>
 5    1  0.3277540E-002  0.1250013E+03  0.7818608E-02  0.1235067E+00
          4   -1    0    0  501    0  0.00000000000E+00  0.00000000000E+00  0.16115997738E+02  0.16165960630E+02  0.12700000000E+01 0.  1.
         -4   -1    0    0    0  501 -0.00000000000E+00 -0.00000000000E+00 -0.24196175932E+03  0.24196509226E+03  0.12700000000E+01 0.  1.
         25    2    1    2    0    0  0.00000000000E+00  0.00000000000E+00 -0.22584576158E+03  0.25813105289E+03  0.12500132976E+03 0.  0.
    9000005    1    3    3    0    0 -0.20374659670E+02  0.53728101154E+02 -0.62193056556E+02  0.84680646514E+02  0.10000000000E+01 0.  0.
    9000005    1    3    3    0    0  0.20374659670E+02 -0.53728101154E+02 -0.16365270503E+03  0.17345040638E+03  0.10000000000E+01 0.  0.
<mgrwt>
<rscale>  0 0.12500133E+03</rscale>
<asrwt>0</asrwt>
<pdfrwt beam="1">  1        4 0.24834841E-02 0.12500133E+03</pdfrwt>
<pdfrwt beam="2">  1       -4 0.37228983E-01 0.12500133E+03</pdfrwt>
<totfact> 0.81166656E+03</totfact>
</mgrwt>
</event>
<event>
 5    1  0.3277540E-002  0.1249997E+03  0.7818608E-02  0.1235070E+00
          4   -1    0    0  501    0  0.00000000000E+00  0.00000000000E+00  0.16882998196E+04  0.16883002973E+04  0.12700000000E+01 0.  1.
         -4   -1    0    0    0  501 -0.00000000000E+00 -0.00000000000E+00 -0.21389149355E+01  0.24875403718E+01  0.12700000000E+01 0.  1.
         25    2    1    2    0    0  0.00000000000E+00  0.00000000000E+00  0.16861609047E+04  0.16907878377E+04  0.12499966199E+03 0.  0.
    9000005    1    3    3    0    0  0.57236784883E+02  0.56817017914E+01  0.51261185948E+03  0.51582967127E+03  0.10000000000E+01 0.  0.
    9000005    1    3    3    0    0 -0.57236784883E+02 -0.56817017914E+01  0.11735490452E+04  0.11749581664E+04  0.10000000000E+01 0.  0.
<mgrwt>
<rscale>  0 0.12499966E+03</rscale>
<asrwt>0</asrwt>
<pdfrwt beam="1">  1        4 0.25976574E+00 0.12499966E+03</pdfrwt>
<pdfrwt beam="2">  1       -4 0.35591731E-03 0.12499966E+03</pdfrwt>
<totfact> 0.14462250E+03</totfact>
</mgrwt>
</event>
<event>
 5    1  0.3277540E-002  0.1249997E+03  0.7818608E-02  0.1235070E+00
         -4   -1    0    0    0  501 -0.00000000000E+00  0.00000000000E+00  0.27973748371E+01  0.30721663333E+01  0.12700000000E+01 0.  1.
          4   -1    0    0  501    0  0.00000000000E+00 -0.00000000000E+00 -0.13307420458E+04  0.13307426518E+04  0.12700000000E+01 0.  1.
         25    2    1    2    0    0  0.00000000000E+00  0.00000000000E+00 -0.13279446710E+04  0.13338148182E+04  0.12499967989E+03 0.  0.
    9000005    1    3    3    0    0  0.42186642406E+02 -0.45734699179E+02 -0.72605848915E+03  0.72872032027E+03  0.10000000000E+01 0.  0.
    9000005    1    3    3    0    0 -0.42186642406E+02  0.45734699179E+02 -0.60188618184E+03  0.60509449790E+03  0.10000000000E+01 0.  0.
<mgrwt>
<rscale>  0 0.12499968E+03</rscale>
<asrwt>0</asrwt>
<pdfrwt beam="2">  1        4 0.20475025E+00 0.12499968E+03</pdfrwt>
<pdfrwt beam="1">  1       -4 0.45155085E-03 0.12499968E+03</pdfrwt>
<totfact> 0.21444442E+03</totfact>
</mgrwt>
</event>
<event>
 5    1  0.3277540E-002  0.1249976E+03  0.7818608E-02  0.1235073E+00
          4   -1    0    0  501    0  0.00000000000E+00  0.00000000000E+00  0.71618481973E+02  0.71629741450E+02  0.12700000000E+01 0. -1.
         -4   -1    0    0    0  501 -0.00000000000E+00 -0.00000000000E+00 -0.54517435022E+02  0.54532225532E+02  0.12700000000E+01 0. -1.
         25    2    1    2    0    0  0.00000000000E+00  0.00000000000E+00  0.17101046951E+02  0.12616196698E+03  0.12499758440E+03 0.  0.
    9000005    1    3    3    0    0  0.20724962677E+02  0.49192466684E+02  0.41344357197E+02  0.67526133670E+02  0.10000000000E+01 0.  0.
    9000005    1    3    3    0    0 -0.20724962677E+02 -0.49192466684E+02 -0.24243310246E+02  0.58635833311E+02  0.10000000000E+01 0.  0.
<mgrwt>
<rscale>  0 0.12499758E+03</rscale>
<asrwt>0</asrwt>
<pdfrwt beam="1">  1        4 0.11020232E-01 0.12499758E+03</pdfrwt>
<pdfrwt beam="2">  1       -4 0.83893016E-02 0.12499758E+03</pdfrwt>
<totfact> 0.10427979E+04</totfact>
</mgrwt>
</event>
<event>
 4    1  0.3277540E-002  0.1246579E+03  0.7818608E-02  0.1235605E+00
          4   -1    0    0  501    0  0.00000000000E+00  0.00000000000E+00  0.38396587611E+02  0.38417585038E+02  0.12700000000E+01 0.  1.
         -4   -1    0    0    0  501 -0.00000000000E+00 -0.00000000000E+00 -0.10112551897E+03  0.10113349339E+03  0.12700000000E+01 0.  1.
    9000005    1    1    2    0    0 -0.53153048940E+02 -0.25052657917E+00 -0.67787550792E+02  0.86147904313E+02  0.10000000000E+01 0.  0.
    9000005    1    1    2    0    0  0.53153048940E+02  0.25052657917E+00  0.50586194374E+01  0.53403174118E+02  0.10000000000E+01 0.  0.
<mgrwt>
<rscale>  0 0.12465787E+03</rscale>
<asrwt>0</asrwt>
<pdfrwt beam="1">  1        4 0.59093960E-02 0.12465787E+03</pdfrwt>
<pdfrwt beam="2">  1       -4 0.15560001E-01 0.12465787E+03</pdfrwt>
<totfact> 0.10221481E+04</totfact>
</mgrwt>
</event>
<event>
 5    1  0.3277540E-002  0.1250000E+03  0.7818608E-02  0.1235069E+00
          4   -1    0    0  501    0  0.00000000000E+00  0.00000000000E+00  0.23207193605E+02  0.23241917628E+02  0.12700000000E+01 0. -1.
         -4   -1    0    0    0  501 -0.00000000000E+00 -0.00000000000E+00 -0.16815775105E+03  0.16816254678E+03  0.12700000000E+01 0. -1.
         25    2    1    2    0    0  0.00000000000E+00  0.00000000000E+00 -0.14495055745E+03  0.19140446440E+03  0.12500001956E+03 0.  0.
    9000005    1    3    3    0    0 -0.49036805044E+02  0.17632055597E+02 -0.12529188522E+03  0.13570023631E+03  0.10000000000E+01 0.  0.
    9000005    1    3    3    0    0  0.49036805044E+02 -0.17632055597E+02 -0.19658672226E+02  0.55704228091E+02  0.10000000000E+01 0.  0.
<mgrwt>
<rscale>  0 0.12500002E+03</rscale>
<asrwt>0</asrwt>
<pdfrwt beam="1">  1        4 0.35733776E-02 0.12500002E+03</pdfrwt>
<pdfrwt beam="2">  1       -4 0.25873462E-01 0.12500002E+03</pdfrwt>
<totfact> 0.91603475E+03</totfact>
</mgrwt>
</event>
<event>
 5    1  0.3277540E-002  0.1249904E+03  0.7818608E-02  0.1235084E+00
          4   -1    0    0  501    0  0.00000000000E+00  0.00000000000E+00  0.10081833017E+03  0.10082632889E+03  0.12700000000E+01 0. -1.
         -4   -1    0    0    0  501 -0.00000000000E+00 -0.00000000000E+00 -0.38719564048E+02  0.38740386422E+02  0.12700000000E+01 0. -1.
         25    2    1    2    0    0  0.00000000000E+00  0.00000000000E+00  0.62098766118E+02  0.13956671531E+03  0.12499044471E+03 0.  0.
    9000005    1    3    3    0    0  0.42950240230E+02 -0.43734927719E+02  0.17502544052E+02  0.63755831786E+02  0.10000000000E+01 0.  0.
    9000005    1    3    3    0    0 -0.42950240230E+02  0.43734927719E+02  0.44596222066E+02  0.75810883526E+02  0.10000000000E+01 0.  0.
<mgrwt>
<rscale>  0 0.12499044E+03</rscale>
<asrwt>0</asrwt>
<pdfrwt beam="1">  1        4 0.15512729E-01 0.12499044E+03</pdfrwt>
<pdfrwt beam="2">  1       -4 0.59590731E-02 0.12499044E+03</pdfrwt>
<totfact> 0.10144758E+04</totfact>
</mgrwt>
</event>
<event>
 5    1  0.3277540E-002  0.1250001E+03  0.7818608E-02  0.1235069E+00
         -4   -1    0    0    0  501 -0.00000000000E+00  0.00000000000E+00  0.22749987804E+02  0.22785408600E+02  0.12700000000E+01 0. -1.
          4   -1    0    0  501    0  0.00000000000E+00 -0.00000000000E+00 -0.17153245072E+03  0.17153715210E+03  0.12700000000E+01 0. -1.
         25    2    1    2    0    0  0.00000000000E+00  0.00000000000E+00 -0.14878246292E+03  0.19432256070E+03  0.12500014530E+03 0.  0.
    9000005    1    3    3    0    0 -0.44197399681E+02 -0.43051166847E+02 -0.58966710277E+02  0.85351543784E+02  0.10000000000E+01 0.  0.
    9000005    1    3    3    0    0  0.44197399681E+02  0.43051166847E+02 -0.89815752642E+02  0.10897101692E+03  0.10000000000E+01 0.  0.
<mgrwt>
<rscale>  0 0.12500015E+03</rscale>
<asrwt>0</asrwt>
<pdfrwt beam="2">  1        4 0.26392693E-01 0.12500015E+03</pdfrwt>
<pdfrwt beam="1">  1       -4 0.35030846E-02 0.12500015E+03</pdfrwt>
<totfact> 0.91100300E+03</totfact>
</mgrwt>
</event>
<event>
 5    1  0.3277540E-002  0.1249953E+03  0.7818608E-02  0.1235077E+00
          4   -1    0    0  501    0  0.00000000000E+00  0.00000000000E+00  0.55499068120E+03  0.55499213429E+03  0.12700000000E+01 0.  1.
         -4   -1    0    0    0  501 -0.00000000000E+00 -0.00000000000E+00 -0.69791056958E+01  0.70937166784E+01  0.12700000000E+01 0.  1.
         25    2    1    2    0    0  0.00000000000E+00  0.00000000000E+00  0.54801157551E+03  0.56208585097E+03  0.12499526778E+03 0.  0.
    9000005    1    3    3    0    0  0.47373092145E+02  0.33622647727E+02  0.37755679105E+03  0.38200107691E+03  0.10000000000E+01 0.  0.
    9000005    1    3    3    0    0 -0.47373092145E+02 -0.33622647727E+02  0.17045478446E+03  0.18008477405E+03  0.10000000000E+01 0.  0.
<mgrwt>
<rscale>  0 0.12499527E+03</rscale>
<asrwt>0</asrwt>
<pdfrwt beam="1">  1        4 0.85392138E-01 0.12499527E+03</pdfrwt>
<pdfrwt beam="2">  1       -4 0.10826362E-02 0.12499527E+03</pdfrwt>
<totfact> 0.51357112E+03</totfact>
</mgrwt>
</event>
<event>
 5    1  0.3277540E-002  0.1250016E+03  0.7818608E-02  0.1235067E+00
          4   -1    0    0  501    0  0.00000000000E+00  0.00000000000E+00  0.10654563458E+02  0.10729987068E+02  0.12700000000E+01 0.  1.
         -4   -1    0    0    0  501 -0.00000000000E+00 -0.00000000000E+00 -0.36526680863E+03  0.36526901646E+03  0.12700000000E+01 0.  1.
         25    2    1    2    0    0  0.00000000000E+00  0.00000000000E+00 -0.35461224517E+03  0.37599900353E+03  0.12500162491E+03 0.  0.
    9000005    1    3    3    0    0 -0.47076598406E+02  0.28518532628E+02 -0.26632520433E+03  0.27195519352E+03  0.10000000000E+01 0.  0.
    9000005    1    3    3    0    0  0.47076598406E+02 -0.28518532628E+02 -0.88287040840E+02  0.10404381001E+03  0.10000000000E+01 0.  0.
<mgrwt>
<rscale>  0 0.12500162E+03</rscale>
<asrwt>0</asrwt>
<pdfrwt beam="1">  1        4 0.16451355E-02 0.12500162E+03</pdfrwt>
<pdfrwt beam="2">  1       -4 0.56200856E-01 0.12500162E+03</pdfrwt>
<totfact> 0.66953564E+03</totfact>
</mgrwt>
</event>
<event>
 5    1  0.3277540E-002  0.1250003E+03  0.7818608E-02  0.1235069E+00
          4   -1    0    0  501    0  0.00000000000E+00  0.00000000000E+00  0.14228262804E+03  0.14228829587E+03  0.12700000000E+01 0. -1.
         -4   -1    0    0    0  501 -0.00000000000E+00 -0.00000000000E+00 -0.27433397454E+02  0.27462778371E+02  0.12700000000E+01 0. -1.
         25    2    1    2    0    0  0.00000000000E+00  0.00000000000E+00  0.11484923058E+03  0.16975107424E+03  0.12500032576E+03 0.  0.
    9000005    1    3    3    0    0 -0.25552006615E+00 -0.38157086859E+02 -0.97828036857E+01  0.39404718195E+02  0.10000000000E+01 0.  0.
    9000005    1    3    3    0    0  0.25552006615E+00  0.38157086859E+02  0.12463203427E+03  0.13034635604E+03  0.10000000000E+01 0.  0.
<mgrwt>
<rscale>  0 0.12500033E+03</rscale>
<asrwt>0</asrwt>
<pdfrwt beam="1">  1        4 0.21892331E-01 0.12500033E+03</pdfrwt>
<pdfrwt beam="2">  1       -4 0.42232187E-02 0.12500033E+03</pdfrwt>
<totfact> 0.95494355E+03</totfact>
</mgrwt>
</event>
<event>
 5    1  0.3277540E-002  0.1249984E+03  0.7818608E-02  0.1235072E+00
         -4   -1    0    0    0  501 -0.00000000000E+00  0.00000000000E+00  0.11779462028E+03  0.11780146632E+03  0.12700000000E+01 0. -1.
          4   -1    0    0  501    0  0.00000000000E+00 -0.00000000000E+00 -0.33140705436E+02  0.33165030632E+02  0.12700000000E+01 0. -1.
         25    2    1    2    0    0  0.00000000000E+00  0.00000000000E+00  0.84653914848E+02  0.15096649695E+03  0.12499839160E+03 0.  0.
    9000005    1    3    3    0    0  0.28450474809E+02 -0.18102798925E+02  0.10586881003E+03  0.11111411154E+03  0.10000000000E+01 0.  0.
    9000005    1    3    3    0    0 -0.28450474809E+02  0.18102798925E+02 -0.21214895182E+02  0.39852385416E+02  0.10000000000E+01 0.  0.
<mgrwt>
<rscale>  0 0.12499839E+03</rscale>
<asrwt>0</asrwt>
<pdfrwt beam="2">  1        4 0.51009679E-02 0.12499839E+03</pdfrwt>
<pdfrwt beam="1">  1       -4 0.18124647E-01 0.12499839E+03</pdfrwt>
<totfact> 0.99114977E+03</totfact>
</mgrwt>
</event>
<event>
 4    1  0.3277540E-002  0.1250805E+03  0.7818608E-02  0.1234944E+00
         -4   -1    0    0    0  501 -0.00000000000E+00  0.00000000000E+00  0.26533371046E+03  0.26533674983E+03  0.12700000000E+01 0. -1.
          4   -1    0    0  501    0  0.00000000000E+00 -0.00000000000E+00 -0.14710509134E+02  0.14765228714E+02  0.12700000000E+01 0. -1.
    9000005    1    1    2    0    0  0.46612385422E+02  0.41017214011E+02  0.14194277959E+03  0.15493185276E+03  0.10000000000E+01 0.  0.
    9000005    1    1    2    0    0 -0.46612385422E+02 -0.41017214011E+02  0.10868042174E+03  0.12517012578E+03  0.10000000000E+01 0.  0.
<mgrwt>
<rscale>  0 0.12508049E+03</rscale>
<asrwt>0</asrwt>
<pdfrwt beam="2">  1        4 0.22675983E-02 0.12508049E+03</pdfrwt>
<pdfrwt beam="1">  1       -4 0.40825012E-01 0.12508049E+03</pdfrwt>
<totfact> 0.78024900E+03</totfact>
</mgrwt>
</event>
<event>
 5    1  0.3277540E-002  0.1250002E+03  0.7818608E-02  0.1235069E+00
         -4   -1    0    0    0  501 -0.00000000000E+00  0.00000000000E+00  0.12512380228E+02  0.12576667244E+02  0.12700000000E+01 0. -1.
          4   -1    0    0  501    0  0.00000000000E+00 -0.00000000000E+00 -0.31132641902E+03  0.31132900938E+03  0.12700000000E+01 0. -1.
         25    2    1    2    0    0  0.00000000000E+00  0.00000000000E+00 -0.29881403879E+03  0.32390567662E+03  0.12500023027E+03 0.  0.
    9000005    1    3    3    0    0  0.48537381771E+02  0.39237849480E+02 -0.15750982977E+03  0.16942795736E+03  0.10000000000E+01 0.  0.
    9000005    1    3    3    0    0 -0.48537381771E+02 -0.39237849480E+02 -0.14130420902E+03  0.15447771926E+03  0.10000000000E+01 0.  0.
<mgrwt>
<rscale>  0 0.12500023E+03</rscale>
<asrwt>0</asrwt>
<pdfrwt beam="2">  1        4 0.47901511E-01 0.12500023E+03</pdfrwt>
<pdfrwt beam="1">  1       -4 0.19301262E-02 0.12500023E+03</pdfrwt>
<totfact> 0.72693624E+03</totfact>
</mgrwt>
</event>
<event>
 5    1  0.3277540E-002  0.1249976E+03  0.7818608E-02  0.1235073E+00
          4   -1    0    0  501    0  0.00000000000E+00  0.00000000000E+00  0.80768425980E+02  0.80778410082E+02  0.12700000000E+01 0.  1.
         -4   -1    0    0    0  501 -0.00000000000E+00 -0.00000000000E+00 -0.48340429461E+02  0.48357109306E+02  0.12700000000E+01 0.  1.
         25    2    1    2    0    0  0.00000000000E+00  0.00000000000E+00  0.32427996519E+02  0.12913551939E+03  0.12499762961E+03 0.  0.
    9000005    1    3    3    0    0  0.59418811639E+02 -0.20439108885E+01  0.36094981467E+02  0.69560192893E+02  0.10000000000E+01 0.  0.
    9000005    1    3    3    0    0 -0.59418811639E+02  0.20439108885E+01 -0.36669849477E+01  0.59575326494E+02  0.10000000000E+01 0.  0.
<mgrwt>
<rscale>  0 0.12499763E+03</rscale>
<asrwt>0</asrwt>
<pdfrwt beam="1">  1        4 0.12427963E-01 0.12499763E+03</pdfrwt>
<pdfrwt beam="2">  1       -4 0.74390402E-02 0.12499763E+03</pdfrwt>
<totfact> 0.10363590E+04</totfact>
</mgrwt>
</event>
<event>
 5    1  0.3277540E-002  0.1250024E+03  0.7818608E-02  0.1235066E+00
         -4   -1    0    0    0  501 -0.00000000000E+00  0.00000000000E+00  0.14893550136E+02  0.14947599662E+02  0.12700000000E+01 0.  1.
          4   -1    0    0  501    0  0.00000000000E+00 -0.00000000000E+00 -0.26175734906E+03  0.26176042995E+03  0.12700000000E+01 0.  1.
         25    2    1    2    0    0  0.00000000000E+00  0.00000000000E+00 -0.24686379893E+03  0.27670802961E+03  0.12500239371E+03 0.  0.
    9000005    1    3    3    0    0 -0.38646484957E+02 -0.25762851652E+02 -0.30879094529E+02  0.55783454570E+02  0.10000000000E+01 0.  0.
    9000005    1    3    3    0    0  0.38646484957E+02  0.25762851652E+02 -0.21598470440E+03  0.22092457504E+03  0.10000000000E+01 0.  0.
<mgrwt>
<rscale>  0 0.12500239E+03</rscale>
<asrwt>0</asrwt>
<pdfrwt beam="2">  1        4 0.40274753E-01 0.12500239E+03</pdfrwt>
<pdfrwt beam="1">  1       -4 0.22957102E-02 0.12500239E+03</pdfrwt>
<totfact> 0.78612449E+03</totfact>
</mgrwt>
</event>
<event>
 5    1  0.3277540E-002  0.1249994E+03  0.7818608E-02  0.1235070E+00
         -4   -1    0    0    0  501 -0.00000000000E+00  0.00000000000E+00  0.97250147788E+03  0.97250230713E+03  0.12700000000E+01 0. -1.
          4   -1    0    0  501    0  0.00000000000E+00 -0.00000000000E+00 -0.39154281194E+01  0.41162455416E+01  0.12700000000E+01 0. -1.
         25    2    1    2    0    0  0.00000000000E+00  0.00000000000E+00  0.96858604976E+03  0.97661855267E+03  0.12499944655E+03 0.  0.
    9000005    1    3    3    0    0 -0.73860698577E+01  0.86829272616E+01  0.42382624207E+01  0.12202873519E+02  0.10000000000E+01 0.  0.
    9000005    1    3    3    0    0  0.73860698577E+01 -0.86829272616E+01  0.96434778734E+03  0.96441567915E+03  0.10000000000E+01 0.  0.
<mgrwt>
<rscale>  0 0.12499945E+03</rscale>
<asrwt>0</asrwt>
<pdfrwt beam="2">  1        4 0.61788471E-03 0.12499945E+03</pdfrwt>
<pdfrwt beam="1">  1       -4 0.14963115E+00 0.12499945E+03</pdfrwt>
<totfact> 0.31389729E+03</totfact>
</mgrwt>
</event>
<event>
 5    1  0.3277540E-002  0.1249986E+03  0.7818608E-02  0.1235071E+00
         -4   -1    0    0    0  501 -0.00000000000E+00  0.00000000000E+00  0.57907067852E+03  0.57907207118E+03  0.12700000000E+01 0. -1.
          4   -1    0    0  501    0  0.00000000000E+00 -0.00000000000E+00 -0.66843812662E+01  0.68039586207E+01  0.12700000000E+01 0. -1.
         25    2    1    2    0    0  0.00000000000E+00  0.00000000000E+00  0.57238629725E+03  0.58587602980E+03  0.12499859604E+03 0.  0.
    9000005    1    3    3    0    0 -0.59514896097E+02 -0.43594121227E+01  0.37314222390E+03  0.37788509707E+03  0.10000000000E+01 0.  0.
    9000005    1    3    3    0    0  0.59514896097E+02  0.43594121227E+01  0.19924407336E+03  0.20799093274E+03  0.10000000000E+01 0.  0.
<mgrwt>
<rscale>  0 0.12499860E+03</rscale>
<asrwt>0</asrwt>
<pdfrwt beam="2">  1        4 0.10376713E-02 0.12499860E+03</pdfrwt>
<pdfrwt beam="1">  1       -4 0.89097138E-01 0.12499860E+03</pdfrwt>
<totfact> 0.49772985E+03</totfact>
</mgrwt>
</event>
<event>
 5    1  0.3277540E-002  0.1250001E+03  0.7818608E-02  0.1235069E+00
         -4   -1    0    0    0  501 -0.00000000000E+00  0.00000000000E+00  0.13145061758E+02  0.13206269292E+02  0.12700000000E+01 0.  1.
          4   -1    0    0  501    0  0.00000000000E+00 -0.00000000000E+00 -0.29641270500E+03  0.29641542569E+03  0.12700000000E+01 0.  1.
         25    2    1    2    0    0  0.00000000000E+00  0.00000000000E+00 -0.28326764324E+03  0.30962169498E+03  0.12500014518E+03 0.  0.
    9000005    1    3    3    0    0 -0.33401093762E+02 -0.46205809558E+02 -0.20500987311E+03  0.21279252330E+03  0.10000000000E+01 0.  0.
    9000005    1    3    3    0    0  0.33401093762E+02  0.46205809558E+02 -0.78257770136E+02  0.96829171679E+02  0.10000000000E+01 0.  0.
<mgrwt>
<rscale>  0 0.12500015E+03</rscale>
<asrwt>0</asrwt>
<pdfrwt beam="2">  1        4 0.45606867E-01 0.12500015E+03</pdfrwt>
<pdfrwt beam="1">  1       -4 0.20272350E-02 0.12500015E+03</pdfrwt>
<totfact> 0.74407309E+03</totfact>
</mgrwt>
</event>
<event>
 5    1  0.3277540E-002  0.1250009E+03  0.7818608E-02  0.1235068E+00
          4   -1    0    0  501    0  0.00000000000E+00  0.00000000000E+00  0.93576371901E+01  0.94434248968E+01  0.12700000000E+01 0. -1.
         -4   -1    0    0    0  501 -0.00000000000E+00 -0.00000000000E+00 -0.41545426103E+03  0.41545620215E+03  0.12700000000E+01 0. -1.
         25    2    1    2    0    0  0.00000000000E+00  0.00000000000E+00 -0.40609662384E+03  0.42489962705E+03  0.12500090069E+03 0.  0.
    9000005    1    3    3    0    0 -0.14521303916E+02 -0.54876956374E+02 -0.29188044807E+03  0.29735087788E+03  0.10000000000E+01 0.  0.
    9000005    1    3    3    0    0  0.14521303916E+02  0.54876956374E+02 -0.11421617577E+03  0.12754874917E+03  0.10000000000E+01 0.  0.
<mgrwt>
<rscale>  0 0.12500090E+03</rscale>
<asrwt>0</asrwt>
<pdfrwt beam="1">  1        4 0.14463852E-02 0.12500090E+03</pdfrwt>
<pdfrwt beam="2">  1       -4 0.63922774E-01 0.12500090E+03</pdfrwt>
<totfact> 0.62199816E+03</totfact>
</mgrwt>
</event>
<event>
 5    1  0.3277540E-002  0.1249974E+03  0.7818608E-02  0.1235073E+00
         -4   -1    0    0    0  501 -0.00000000000E+00  0.00000000000E+00  0.33885681292E+01  0.36187420420E+01  0.12700000000E+01 0.  1.
          4   -1    0    0  501    0  0.00000000000E+00 -0.00000000000E+00 -0.11146296931E+04  0.11146304167E+04  0.12700000000E+01 0.  1.
         25    2    1    2    0    0  0.00000000000E+00  0.00000000000E+00 -0.11112411250E+04  0.11182491587E+04  0.12499737201E+03 0.  0.
    9000005    1    3    3    0    0 -0.28179095356E+02  0.38195358310E+02 -0.91925163056E+03  0.92047678249E+03  0.10000000000E+01 0.  0.
    9000005    1    3    3    0    0  0.28179095356E+02 -0.38195358310E+02 -0.19198949445E+03  0.19777237621E+03  0.10000000000E+01 0.  0.
<mgrwt>
<rscale>  0 0.12499737E+03</rscale>
<asrwt>0</asrwt>
<pdfrwt beam="2">  1        4 0.17149897E+00 0.12499737E+03</pdfrwt>
<pdfrwt beam="1">  1       -4 0.53908040E-03 0.12499737E+03</pdfrwt>
<totfact> 0.26956939E+03</totfact>
</mgrwt>
</event>
<event>
 5    1  0.3277540E-002  0.1249993E+03  0.7818608E-02  0.1235070E+00
          4   -1    0    0  501    0  0.00000000000E+00  0.00000000000E+00  0.56660323165E+03  0.56660465495E+03  0.12700000000E+01 0. -1.
         -4   -1    0    0    0  501 -0.00000000000E+00 -0.00000000000E+00 -0.68341391895E+01  0.69511408028E+01  0.12700000000E+01 0. -1.
         25    2    1    2    0    0  0.00000000000E+00  0.00000000000E+00  0.55976909246E+03  0.57355579575E+03  0.12499925589E+03 0.  0.
    9000005    1    3    3    0    0 -0.35125557176E+02  0.50135182477E+02  0.22223348232E+03  0.23051260693E+03  0.10000000000E+01 0.  0.
    9000005    1    3    3    0    0  0.35125557176E+02 -0.50135182477E+02  0.33753561014E+03  0.34304318883E+03  0.10000000000E+01 0.  0.
<mgrwt>
<rscale>  0 0.12499926E+03</rscale>
<asrwt>0</asrwt>
<pdfrwt beam="1">  1        4 0.87178857E-01 0.12499926E+03</pdfrwt>
<pdfrwt beam="2">  1       -4 0.10605154E-02 0.12499926E+03</pdfrwt>
<totfact> 0.50581371E+03</totfact>
</mgrwt>
</event>
<event>
 5    1  0.3277540E-002  0.1249985E+03  0.7818608E-02  0.1235072E+00
         -4   -1    0    0    0  501 -0.00000000000E+00  0.00000000000E+00  0.21064331982E+03  0.21064714830E+03  0.12700000000E+01 0. -1.
          4   -1    0    0  501    0  0.00000000000E+00 -0.00000000000E+00 -0.18518179080E+02  0.18561677091E+02  0.12700000000E+01 0. -1.
         25    2    1    2    0    0  0.00000000000E+00  0.00000000000E+00  0.19212514074E+03  0.22920882539E+03  0.12499846371E+03 0.  0.
    9000005    1    3    3    0    0 -0.49649775727E+02 -0.35214836766E+02  0.70132241546E+02  0.92869350501E+02  0.10000000000E+01 0.  0.
    9000005    1    3    3    0    0  0.49649775727E+02  0.35214836766E+02  0.12199289919E+03  0.13633947489E+03  0.10000000000E+01 0.  0.
<mgrwt>
<rscale>  0 0.12499846E+03</rscale>
<asrwt>0</asrwt>
<pdfrwt beam="2">  1        4 0.28525910E-02 0.12499846E+03</pdfrwt>
<pdfrwt beam="1">  1       -4 0.32410307E-01 0.12499846E+03</pdfrwt>
<totfact> 0.85434157E+03</totfact>
</mgrwt>
</event>
<event>
 5    1  0.3277540E-002  0.1249979E+03  0.7818608E-02  0.1235073E+00
         -4   -1    0    0    0  501 -0.00000000000E+00  0.00000000000E+00  0.40886352680E+02  0.40906072110E+02  0.12700000000E+01 0.  1.
          4   -1    0    0  501    0  0.00000000000E+00 -0.00000000000E+00 -0.95489078277E+02  0.95497523372E+02  0.12700000000E+01 0.  1.
         25    2    1    2    0    0  0.00000000000E+00  0.00000000000E+00 -0.54602725597E+02  0.13640359548E+03  0.12499793285E+03 0.  0.
    9000005    1    3    3    0    0  0.25599106725E+02 -0.33364300687E+02 -0.77742822508E+02  0.88393649528E+02  0.10000000000E+01 0.  0.
    9000005    1    3    3    0    0 -0.25599106725E+02  0.33364300687E+02  0.23140096911E+02  0.48009945954E+02  0.10000000000E+01 0.  0.
<mgrwt>
<rscale>  0 0.12499793E+03</rscale>
<asrwt>0</asrwt>
<pdfrwt beam="2">  1        4 0.14692794E-01 0.12499793E+03</pdfrwt>
<pdfrwt beam="1">  1       -4 0.62923746E-02 0.12499793E+03</pdfrwt>
<totfact> 0.10209047E+04</totfact>
</mgrwt>
</event>
<event>
 5    1  0.3277540E-002  0.1249992E+03  0.7818608E-02  0.1235070E+00
          4   -1    0    0  501    0  0.00000000000E+00  0.00000000000E+00  0.97036163930E+02  0.97044474393E+02  0.12700000000E+01 0.  1.
         -4   -1    0    0    0  501 -0.00000000000E+00 -0.00000000000E+00 -0.40235064634E+02  0.40255103106E+02  0.12700000000E+01 0.  1.
         25    2    1    2    0    0  0.00000000000E+00  0.00000000000E+00  0.56801099296E+02  0.13729957750E+03  0.12499923640E+03 0.  0.
    9000005    1    3    3    0    0  0.34654005138E+01 -0.57935433632E+02  0.53846522678E+02  0.79176836736E+02  0.10000000000E+01 0.  0.
    9000005    1    3    3    0    0 -0.34654005138E+01  0.57935433632E+02  0.29545766177E+01  0.58122740764E+02  0.10000000000E+01 0.  0.
<mgrwt>
<rscale>  0 0.12499924E+03</rscale>
<asrwt>0</asrwt>
<pdfrwt beam="1">  1        4 0.14930821E-01 0.12499924E+03</pdfrwt>
<pdfrwt beam="2">  1       -4 0.61921907E-02 0.12499924E+03</pdfrwt>
<totfact> 0.10190001E+04</totfact>
</mgrwt>
</event>
<event>
 5    1  0.3277540E-002  0.1250413E+03  0.7818608E-02  0.1235005E+00
         -4   -1    0    0    0  501 -0.00000000000E+00  0.00000000000E+00  0.21872982284E+02  0.21909820948E+02  0.12700000000E+01 0. -1.
          4   -1    0    0  501    0  0.00000000000E+00 -0.00000000000E+00 -0.17851659444E+03  0.17852111189E+03  0.12700000000E+01 0. -1.
         25    2    1    2    0    0  0.00000000000E+00  0.00000000000E+00 -0.15664361215E+03  0.20043093283E+03  0.12504134360E+03 0.  0.
    9000005    1    3    3    0    0 -0.13830722441E+02 -0.42831136549E+02 -0.14786032805E+03  0.15456219380E+03  0.10000000000E+01 0.  0.
    9000005    1    3    3    0    0  0.13830722441E+02  0.42831136549E+02 -0.87832841071E+01  0.45868739039E+02  0.10000000000E+01 0.  0.
<mgrwt>
<rscale>  0 0.12504134E+03</rscale>
<asrwt>0</asrwt>
<pdfrwt beam="2">  1        4 0.27467272E-01 0.12504134E+03</pdfrwt>
<pdfrwt beam="1">  1       -4 0.33682556E-02 0.12504134E+03</pdfrwt>
<totfact> 0.89979609E+03</totfact>
</mgrwt>
</event>
<event>
 5    1  0.3277540E-002  0.1250013E+03  0.7818608E-02  0.1235067E+00
          4   -1    0    0  501    0  0.00000000000E+00  0.00000000000E+00  0.31813831561E+02  0.31839170507E+02  0.12700000000E+01 0.  1.
         -4   -1    0    0    0  501 -0.00000000000E+00 -0.00000000000E+00 -0.12270977224E+03  0.12271634407E+03  0.12700000000E+01 0.  1.
         25    2    1    2    0    0  0.00000000000E+00  0.00000000000E+00 -0.90895940674E+02  0.15455551458E+03  0.12500134021E+03 0.  0.
    9000005    1    3    3    0    0  0.16187758330E+02  0.55078012548E+02 -0.14917821403E+02  0.59322612732E+02  0.10000000000E+01 0.  0.
    9000005    1    3    3    0    0 -0.16187758330E+02 -0.55078012548E+02 -0.75978119272E+02  0.95232901846E+02  0.10000000000E+01 0.  0.
<mgrwt>
<rscale>  0 0.12500134E+03</rscale>
<asrwt>0</asrwt>
<pdfrwt beam="1">  1        4 0.48968904E-02 0.12500134E+03</pdfrwt>
<pdfrwt beam="2">  1       -4 0.18880881E-01 0.12500134E+03</pdfrwt>
<totfact> 0.98399862E+03</totfact>
</mgrwt>
</event>
<event>
 4    1  0.3277540E-002  0.1249099E+03  0.7818608E-02  0.1235210E+00
          4   -1    0    0  501    0  0.00000000000E+00  0.00000000000E+00  0.18706522412E+02  0.18749583482E+02  0.12700000000E+01 0. -1.
         -4   -1    0    0    0  501 -0.00000000000E+00 -0.00000000000E+00 -0.20823197240E+03  0.20823584521E+03  0.12700000000E+01 0. -1.
    9000005    1    1    2    0    0 -0.96889339103E+01 -0.28735485486E+02 -0.19396246365E+03  0.19632126954E+03  0.10000000000E+01 0.  0.
    9000005    1    1    2    0    0  0.96889339103E+01  0.28735485486E+02  0.44370136619E+01  0.30664159155E+02  0.10000000000E+01 0.  0.
<mgrwt>
<rscale>  0 0.12490992E+03</rscale>
<asrwt>0</asrwt>
<pdfrwt beam="1">  1        4 0.28815370E-02 0.12490992E+03</pdfrwt>
<pdfrwt beam="2">  1       -4 0.32039297E-01 0.12490992E+03</pdfrwt>
<totfact> 0.85947308E+03</totfact>
</mgrwt>
</event>
<event>
 5    1  0.3277540E-002  0.1249991E+03  0.7818608E-02  0.1235071E+00
          4   -1    0    0  501    0  0.00000000000E+00  0.00000000000E+00  0.27185385096E+02  0.27215033765E+02  0.12700000000E+01 0. -1.
         -4   -1    0    0    0  501 -0.00000000000E+00 -0.00000000000E+00 -0.14357645450E+03  0.14358207126E+03  0.12700000000E+01 0. -1.
         25    2    1    2    0    0  0.00000000000E+00  0.00000000000E+00 -0.11639106941E+03  0.17079710502E+03  0.12499908019E+03 0.  0.
    9000005    1    3    3    0    0 -0.70770229491E+01 -0.40969700190E+02  0.55518239613E+01  0.41957399071E+02  0.10000000000E+01 0.  0.
    9000005    1    3    3    0    0  0.70770229491E+01  0.40969700190E+02 -0.12194289337E+03  0.12883970595E+03  0.10000000000E+01 0.  0.
<mgrwt>
<rscale>  0 0.12499908E+03</rscale>
<asrwt>0</asrwt>
<pdfrwt beam="1">  1        4 0.41850798E-02 0.12499908E+03</pdfrwt>
<pdfrwt beam="2">  1       -4 0.22091397E-01 0.12499908E+03</pdfrwt>
<totfact> 0.95302243E+03</totfact>
</mgrwt>
</event>
<event>
 5    1  0.3277540E-002  0.1249984E+03  0.7818608E-02  0.1235072E+00
          4   -1    0    0  501    0  0.00000000000E+00  0.00000000000E+00  0.23568383347E+01  0.26772349423E+01  0.12700000000E+01 0.  1.
         -4   -1    0    0    0  501 -0.00000000000E+00 -0.00000000000E+00 -0.15515628567E+04  0.15515633764E+04  0.12700000000E+01 0.  1.
         25    2    1    2    0    0  0.00000000000E+00  0.00000000000E+00 -0.15492060183E+04  0.15542406114E+04  0.12499836324E+03 0.  0.
    9000005    1    3    3    0    0 -0.52712150729E+02  0.30550352500E+02 -0.60175003435E+03  0.60482724700E+03  0.10000000000E+01 0.  0.
    9000005    1    3    3    0    0  0.52712150729E+02 -0.30550352500E+02 -0.94745598400E+03  0.94941336439E+03  0.10000000000E+01 0.  0.
<mgrwt>
<rscale>  0 0.12499836E+03</rscale>
<asrwt>0</asrwt>
<pdfrwt beam="1">  1        4 0.38727763E-03 0.12499836E+03</pdfrwt>
<pdfrwt beam="2">  1       -4 0.23872590E+00 0.12499836E+03</pdfrwt>
<totfact> 0.16889204E+03</totfact>
</mgrwt>
</event>
<event>
 5    1  0.3277540E-002  0.1249774E+03  0.7818608E-02  0.1235105E+00
          4   -1    0    0  501    0  0.00000000000E+00  0.00000000000E+00  0.55840605266E+02  0.55855045399E+02  0.12700000000E+01 0. -1.
         -4   -1    0    0    0  501 -0.00000000000E+00 -0.00000000000E+00 -0.69899025862E+02  0.69910562266E+02  0.12700000000E+01 0. -1.
         25    2    1    2    0    0  0.00000000000E+00  0.00000000000E+00 -0.14058420595E+02  0.12576560767E+03  0.12497739348E+03 0.  0.
    9000005    1    3    3    0    0 -0.75127845342E+01 -0.61935138624E+02 -0.10431940259E+02  0.63263170213E+02  0.10000000000E+01 0.  0.
    9000005    1    3    3    0    0  0.75127845342E+01  0.61935138624E+02 -0.36264803361E+01  0.62502437452E+02  0.10000000000E+01 0.  0.
<mgrwt>
<rscale>  0 0.12497739E+03</rscale>
<asrwt>0</asrwt>
<pdfrwt beam="1">  1        4 0.85928606E-02 0.12497739E+03</pdfrwt>
<pdfrwt beam="2">  1       -4 0.10755694E-01 0.12497739E+03</pdfrwt>
<totfact> 0.10441426E+04</totfact>
</mgrwt>
</event>
<event>
 5    1  0.3277540E-002  0.1250039E+03  0.7818608E-02  0.1235063E+00
          4   -1    0    0  501    0  0.00000000000E+00  0.00000000000E+00  0.20277377848E+03  0.20277775553E+03  0.12700000000E+01 0. -1.
         -4   -1    0    0    0  501 -0.00000000000E+00 -0.00000000000E+00 -0.19240189896E+02  0.19282059206E+02  0.12700000000E+01 0. -1.
         25    2    1    2    0    0  0.00000000000E+00  0.00000000000E+00  0.18353358859E+03  0.22205981474E+03  0.12500393267E+03 0.  0.
    9000005    1    3    3    0    0  0.55083471411E+02 -0.28922082154E+02  0.81284374809E+02  0.10236613330E+03  0.10000000000E+01 0.  0.
    9000005    1    3    3    0    0 -0.55083471411E+02  0.28922082154E+02  0.10224921378E+03  0.11969368144E+03  0.10000000000E+01 0.  0.
<mgrwt>
<rscale>  0 0.12500393E+03</rscale>
<asrwt>0</asrwt>
<pdfrwt beam="1">  1        4 0.31199493E-01 0.12500393E+03</pdfrwt>
<pdfrwt beam="2">  1       -4 0.29635559E-02 0.12500393E+03</pdfrwt>
<totfact> 0.86535856E+03</totfact>
</mgrwt>
</event>
<event>
 5    1  0.3277540E-002  0.1249991E+03  0.7818608E-02  0.1235071E+00
          4   -1    0    0  501    0  0.00000000000E+00  0.00000000000E+00  0.11995328512E+02  0.12062371496E+02  0.12700000000E+01 0. -1.
         -4   -1    0    0    0  501 -0.00000000000E+00 -0.00000000000E+00 -0.32466731111E+03  0.32466979503E+03  0.12700000000E+01 0. -1.
         25    2    1    2    0    0  0.00000000000E+00  0.00000000000E+00 -0.31267198260E+03  0.33673216653E+03  0.12499913308E+03 0.  0.
    9000005    1    3    3    0    0  0.94811979817E+01  0.50278261738E+02 -0.59678792671E+02  0.78615233977E+02  0.10000000000E+01 0.  0.
    9000005    1    3    3    0    0 -0.94811979817E+01 -0.50278261738E+02 -0.25299318993E+03  0.25811693255E+03  0.10000000000E+01 0.  0.
<mgrwt>
<rscale>  0 0.12499913E+03</rscale>
<asrwt>0</asrwt>
<pdfrwt beam="1">  1        4 0.18507836E-02 0.12499913E+03</pdfrwt>
<pdfrwt beam="2">  1       -4 0.49954159E-01 0.12499913E+03</pdfrwt>
<totfact> 0.71210644E+03</totfact>
</mgrwt>
</event>
<event>
 5    1  0.3277540E-002  0.1249961E+03  0.7818608E-02  0.1235075E+00
         -4   -1    0    0    0  501 -0.00000000000E+00  0.00000000000E+00  0.24072994714E+02  0.24106471631E+02  0.12700000000E+01 0. -1.
          4   -1    0    0  501    0  0.00000000000E+00 -0.00000000000E+00 -0.16210811077E+03  0.16211308546E+03  0.12700000000E+01 0. -1.
         25    2    1    2    0    0  0.00000000000E+00  0.00000000000E+00 -0.13803511606E+03  0.18621955709E+03  0.12499612065E+03 0.  0.
    9000005    1    3    3    0    0  0.32996949205E+02 -0.17006790500E+02  0.58734165538E+01  0.37596896175E+02  0.10000000000E+01 0.  0.
    9000005    1    3    3    0    0 -0.32996949205E+02  0.17006790500E+02 -0.14390853261E+03  0.14862266092E+03  0.10000000000E+01 0.  0.
<mgrwt>
<rscale>  0 0.12499612E+03</rscale>
<asrwt>0</asrwt>
<pdfrwt beam="2">  1        4 0.24942666E-01 0.12499612E+03</pdfrwt>
<pdfrwt beam="1">  1       -4 0.37064956E-02 0.12499612E+03</pdfrwt>
<totfact> 0.92517334E+03</totfact>
</mgrwt>
</event>
<event>
 5    1  0.3277540E-002  0.1249985E+03  0.7818608E-02  0.1235072E+00
          4   -1    0    0  501    0  0.00000000000E+00  0.00000000000E+00  0.20393646127E+03  0.20394041565E+03  0.12700000000E+01 0.  1.
         -4   -1    0    0    0  501 -0.00000000000E+00 -0.00000000000E+00 -0.19128608802E+02  0.19170721810E+02  0.12700000000E+01 0.  1.
         25    2    1    2    0    0  0.00000000000E+00  0.00000000000E+00  0.18480785247E+03  0.22311113746E+03  0.12499854929E+03 0.  0.
    9000005    1    3    3    0    0  0.48253793780E+02  0.38454342862E+02  0.11007311191E+03  0.12619134307E+03  0.10000000000E+01 0.  0.
    9000005    1    3    3    0    0 -0.48253793780E+02 -0.38454342862E+02  0.74734740555E+02  0.96919794392E+02  0.10000000000E+01 0.  0.
<mgrwt>
<rscale>  0 0.12499855E+03</rscale>
<asrwt>0</asrwt>
<pdfrwt beam="1">  1        4 0.31378385E-01 0.12499855E+03</pdfrwt>
<pdfrwt beam="2">  1       -4 0.29464064E-02 0.12499855E+03</pdfrwt>
<totfact> 0.86381231E+03</totfact>
</mgrwt>
</event>
<event>
 5    1  0.3277540E-002  0.1250027E+03  0.7818608E-02  0.1235065E+00
         -4   -1    0    0    0  501 -0.00000000000E+00  0.00000000000E+00  0.80159503515E+03  0.80159604120E+03  0.12700000000E+01 0. -1.
          4   -1    0    0  501    0  0.00000000000E+00 -0.00000000000E+00 -0.47895417067E+01  0.49550590068E+01  0.12700000000E+01 0. -1.
         25    2    1    2    0    0  0.00000000000E+00  0.00000000000E+00  0.79680549344E+03  0.80655110021E+03  0.12500273146E+03 0.  0.
    9000005    1    3    3    0    0 -0.43792611407E+02  0.42449665070E+02  0.48631802456E+03  0.49012854221E+03  0.10000000000E+01 0.  0.
    9000005    1    3    3    0    0  0.43792611407E+02 -0.42449665070E+02  0.31048746888E+03  0.31642255800E+03  0.10000000000E+01 0.  0.
<mgrwt>
<rscale>  0 0.12500273E+03</rscale>
<asrwt>0</asrwt>
<pdfrwt beam="2">  1        4 0.74966338E-03 0.12500273E+03</pdfrwt>
<pdfrwt beam="1">  1       -4 0.12333491E+00 0.12500273E+03</pdfrwt>
<totfact> 0.37971730E+03</totfact>
</mgrwt>
</event>
<event>
 5    1  0.3277540E-002  0.1249990E+03  0.7818608E-02  0.1235071E+00
          4   -1    0    0  501    0  0.00000000000E+00  0.00000000000E+00  0.10551494851E+02  0.10627649956E+02  0.12700000000E+01 0. -1.
         -4   -1    0    0    0  501 -0.00000000000E+00 -0.00000000000E+00 -0.36879375261E+03  0.36879593932E+03  0.12700000000E+01 0. -1.
         25    2    1    2    0    0  0.00000000000E+00  0.00000000000E+00 -0.35824225776E+03  0.37942358928E+03  0.12499897944E+03 0.  0.
    9000005    1    3    3    0    0  0.20369174483E+01 -0.45811659082E+02 -0.50256150508E+02  0.68040706967E+02  0.10000000000E+01 0.  0.
    9000005    1    3    3    0    0 -0.20369174483E+01  0.45811659082E+02 -0.30798610725E+03  0.31138288231E+03  0.10000000000E+01 0.  0.
<mgrwt>
<rscale>  0 0.12499898E+03</rscale>
<asrwt>0</asrwt>
<pdfrwt beam="1">  1        4 0.16293335E-02 0.12499898E+03</pdfrwt>
<pdfrwt beam="2">  1       -4 0.56743517E-01 0.12499898E+03</pdfrwt>
<totfact> 0.66605949E+03</totfact>
</mgrwt>
</event>
<event>
 5    1  0.3277540E-002  0.1249992E+03  0.7818608E-02  0.1235071E+00
          4   -1    0    0  501    0  0.00000000000E+00  0.00000000000E+00  0.69022522294E+03  0.69022639132E+03  0.12700000000E+01 0.  1.
         -4   -1    0    0    0  501 -0.00000000000E+00 -0.00000000000E+00 -0.55868722408E+01  0.57294014901E+01  0.12700000000E+01 0.  1.
         25    2    1    2    0    0  0.00000000000E+00  0.00000000000E+00  0.68463835070E+03  0.69595579281E+03  0.12499917722E+03 0.  0.
    9000005    1    3    3    0    0  0.94578106548E+01 -0.59755095077E+02  0.25515745710E+03  0.26223357810E+03  0.10000000000E+01 0.  0.
    9000005    1    3    3    0    0 -0.94578106548E+01  0.59755095077E+02  0.42948089360E+03  0.43372221471E+03  0.10000000000E+01 0.  0.
<mgrwt>
<rscale>  0 0.12499918E+03</rscale>
<asrwt>0</asrwt>
<pdfrwt beam="1">  1        4 0.10619947E+00 0.12499918E+03</pdfrwt>
<pdfrwt beam="2">  1       -4 0.87057316E-03 0.12499918E+03</pdfrwt>
<totfact> 0.43301845E+03</totfact>
</mgrwt>
</event>
<event>
 5    1  0.3277540E-002  0.1250010E+03  0.7818608E-02  0.1235068E+00
          4   -1    0    0  501    0  0.00000000000E+00  0.00000000000E+00  0.48755251927E+02  0.48771789905E+02  0.12700000000E+01 0. -1.
         -4   -1    0    0    0  501 -0.00000000000E+00 -0.00000000000E+00 -0.80085738260E+02  0.80095807460E+02  0.12700000000E+01 0. -1.
         25    2    1    2    0    0  0.00000000000E+00  0.00000000000E+00 -0.31330486333E+02  0.12886759736E+03  0.12500103310E+03 0.  0.
    9000005    1    3    3    0    0  0.62047028775E+02  0.69950851912E+01 -0.13026867649E+02  0.63792352812E+02  0.10000000000E+01 0.  0.
    9000005    1    3    3    0    0 -0.62047028775E+02 -0.69950851912E+01 -0.18303618684E+02  0.65075244552E+02  0.10000000000E+01 0.  0.
<mgrwt>
<rscale>  0 0.12500103E+03</rscale>
<asrwt>0</asrwt>
<pdfrwt beam="1">  1        4 0.75028547E-02 0.12500103E+03</pdfrwt>
<pdfrwt beam="2">  1       -4 0.12322930E-01 0.12500103E+03</pdfrwt>
<totfact> 0.10368551E+04</totfact>
</mgrwt>
</event>
<event>
 5    1  0.3277540E-002  0.1249974E+03  0.7818608E-02  0.1235073E+00
          4   -1    0    0  501    0  0.00000000000E+00  0.00000000000E+00  0.61642107280E+03  0.61642238108E+03  0.12700000000E+01 0. -1.
         -4   -1    0    0    0  501 -0.00000000000E+00 -0.00000000000E+00 -0.62717602892E+01  0.63990528303E+01  0.12700000000E+01 0. -1.
         25    2    1    2    0    0  0.00000000000E+00  0.00000000000E+00  0.61014931251E+03  0.62282143391E+03  0.12499741988E+03 0.  0.
    9000005    1    3    3    0    0  0.14166376550E+02  0.31056583932E+02  0.44261705082E+02  0.55904348372E+02  0.10000000000E+01 0.  0.
    9000005    1    3    3    0    0 -0.14166376550E+02 -0.31056583932E+02  0.56588760743E+03  0.56691708554E+03  0.10000000000E+01 0.  0.
<mgrwt>
<rscale>  0 0.12499742E+03</rscale>
<asrwt>0</asrwt>
<pdfrwt beam="1">  1        4 0.94843896E-01 0.12499742E+03</pdfrwt>
<pdfrwt beam="2">  1       -4 0.97477865E-03 0.12499742E+03</pdfrwt>
<totfact> 0.47460717E+03</totfact>
</mgrwt>
</event>
<event>
 5    1  0.3277540E-002  0.1250512E+03  0.7818608E-02  0.1234989E+00
          4   -1    0    0  501    0  0.00000000000E+00  0.00000000000E+00  0.40923857493E+02  0.40943558860E+02  0.12700000000E+01 0. -1.
         -4   -1    0    0    0  501 -0.00000000000E+00 -0.00000000000E+00 -0.95482961526E+02  0.95491407162E+02  0.12700000000E+01 0. -1.
         25    2    1    2    0    0  0.00000000000E+00  0.00000000000E+00 -0.54559104033E+02  0.13643496602E+03  0.12505120599E+03 0.  0.
    9000005    1    3    3    0    0  0.89970941848E+01  0.41349848020E+02  0.22928034314E+02  0.48139925141E+02  0.10000000000E+01 0.  0.
    9000005    1    3    3    0    0 -0.89970941848E+01 -0.41349848020E+02 -0.77487138347E+02  0.88295040882E+02  0.10000000000E+01 0.  0.
<mgrwt>
<rscale>  0 0.12505121E+03</rscale>
<asrwt>0</asrwt>
<pdfrwt beam="1">  1        4 0.62981433E-02 0.12505121E+03</pdfrwt>
<pdfrwt beam="2">  1       -4 0.14691851E-01 0.12505121E+03</pdfrwt>
<totfact> 0.10196136E+04</totfact>
</mgrwt>
</event>
<event>
 5    1  0.3277540E-002  0.1249955E+03  0.7818608E-02  0.1235076E+00
          4   -1    0    0  501    0  0.00000000000E+00  0.00000000000E+00  0.81218502241E+02  0.81228431022E+02  0.12700000000E+01 0.  1.
         -4   -1    0    0    0  501 -0.00000000000E+00 -0.00000000000E+00 -0.48070818874E+02  0.48087592237E+02  0.12700000000E+01 0.  1.
         25    2    1    2    0    0  0.00000000000E+00  0.00000000000E+00  0.33147683368E+02  0.12931602326E+03  0.12499545975E+03 0.  0.
    9000005    1    3    3    0    0  0.99081828793E+01  0.61413126208E+02  0.22713802633E+02  0.66231872906E+02  0.10000000000E+01 0.  0.
    9000005    1    3    3    0    0 -0.99081828793E+01 -0.61413126208E+02  0.10433880735E+02  0.63084150353E+02  0.10000000000E+01 0.  0.
<mgrwt>
<rscale>  0 0.12499546E+03</rscale>
<asrwt>0</asrwt>
<pdfrwt beam="1">  1        4 0.12497208E-01 0.12499546E+03</pdfrwt>
<pdfrwt beam="2">  1       -4 0.73975646E-02 0.12499546E+03</pdfrwt>
<totfact> 0.10360223E+04</totfact>
</mgrwt>
</event>
<event>
 5    1  0.3277540E-002  0.1250042E+03  0.7818608E-02  0.1235063E+00
         -4   -1    0    0    0  501 -0.00000000000E+00  0.00000000000E+00  0.10112180265E+03  0.10112977737E+03  0.12700000000E+01 0.  1.
          4   -1    0    0  501    0  0.00000000000E+00 -0.00000000000E+00 -0.38611824802E+02  0.38632705245E+02  0.12700000000E+01 0.  1.
         25    2    1    2    0    0  0.00000000000E+00  0.00000000000E+00  0.62509977845E+02  0.13976248261E+03  0.12500421679E+03 0.  0.
    9000005    1    3    3    0    0  0.27503793867E+02 -0.16944447072E+02 -0.28558102607E+02  0.43129319357E+02  0.10000000000E+01 0.  0.
    9000005    1    3    3    0    0 -0.27503793867E+02  0.16944447072E+02  0.91068080452E+02  0.96633163256E+02  0.10000000000E+01 0.  0.
<mgrwt>
<rscale>  0 0.12500422E+03</rscale>
<asrwt>0</asrwt>
<pdfrwt beam="2">  1        4 0.59425005E-02 0.12500422E+03</pdfrwt>
<pdfrwt beam="1">  1       -4 0.15559420E-01 0.12500422E+03</pdfrwt>
<totfact> 0.10137548E+04</totfact>
</mgrwt>
</event>
<event>
 5    1  0.3277540E-002  0.1249726E+03  0.7818608E-02  0.1235112E+00
          4   -1    0    0  501    0  0.00000000000E+00  0.00000000000E+00  0.23682779805E+02  0.23716807528E+02  0.12700000000E+01 0. -1.
         -4   -1    0    0    0  501 -0.00000000000E+00 -0.00000000000E+00 -0.16471333907E+03  0.16471823507E+03  0.12700000000E+01 0. -1.
         25    2    1    2    0    0  0.00000000000E+00  0.00000000000E+00 -0.14103055926E+03  0.18843504260E+03  0.12497258354E+03 0.  0.
    9000005    1    3    3    0    0  0.10128388942E+02  0.65191656288E+01 -0.16295347894E+03  0.16340110184E+03  0.10000000000E+01 0.  0.
    9000005    1    3    3    0    0 -0.10128388942E+02 -0.65191656288E+01  0.21922919679E+02  0.25033940766E+02  0.10000000000E+01 0.  0.
<mgrwt>
<rscale>  0 0.12497258E+03</rscale>
<asrwt>0</asrwt>
<pdfrwt beam="1">  1        4 0.36464988E-02 0.12497258E+03</pdfrwt>
<pdfrwt beam="2">  1       -4 0.25343507E-01 0.12497258E+03</pdfrwt>
<totfact> 0.92176932E+03</totfact>
</mgrwt>
</event>
<event>
 5    1  0.3277540E-002  0.1249936E+03  0.7818608E-02  0.1235079E+00
         -4   -1    0    0    0  501 -0.00000000000E+00  0.00000000000E+00  0.21909806430E+02  0.21946583283E+02  0.12700000000E+01 0.  1.
          4   -1    0    0  501    0  0.00000000000E+00 -0.00000000000E+00 -0.17808109259E+03  0.17808562109E+03  0.12700000000E+01 0.  1.
         25    2    1    2    0    0  0.00000000000E+00  0.00000000000E+00 -0.15617128616E+03  0.20003220437E+03  0.12499364850E+03 0.  0.
    9000005    1    3    3    0    0  0.30040738589E+01 -0.25440724111E+02  0.13128035615E+02  0.28802781500E+02  0.10000000000E+01 0.  0.
    9000005    1    3    3    0    0 -0.30040738589E+01  0.25440724111E+02 -0.16929932178E+03  0.17122942287E+03  0.10000000000E+01 0.  0.
<mgrwt>
<rscale>  0 0.12499365E+03</rscale>
<asrwt>0</asrwt>
<pdfrwt beam="2">  1        4 0.27400267E-01 0.12499365E+03</pdfrwt>
<pdfrwt beam="1">  1       -4 0.33739169E-02 0.12499365E+03</pdfrwt>
<totfact> 0.90142887E+03</totfact>
</mgrwt>
</event>
<event>
 5    1  0.3277540E-002  0.1249994E+03  0.7818608E-02  0.1235070E+00
          4   -1    0    0  501    0  0.00000000000E+00  0.00000000000E+00  0.15894868992E+04  0.15894874066E+04  0.12700000000E+01 0.  1.
         -4   -1    0    0    0  501 -0.00000000000E+00 -0.00000000000E+00 -0.22929121407E+01  0.26211345034E+01  0.12700000000E+01 0.  1.
         25    2    1    2    0    0  0.00000000000E+00  0.00000000000E+00  0.15871939871E+04  0.15921085411E+04  0.12499941594E+03 0.  0.
    9000005    1    3    3    0    0 -0.61591758718E+02  0.54349804002E+01  0.67816799730E+03  0.68098158295E+03  0.10000000000E+01 0.  0.
    9000005    1    3    3    0    0  0.61591758718E+02 -0.54349804002E+01  0.90902598979E+03  0.91112695815E+03  0.10000000000E+01 0.  0.
<mgrwt>
<rscale>  0 0.12499942E+03</rscale>
<asrwt>0</asrwt>
<pdfrwt beam="1">  1        4 0.24456272E+00 0.12499942E+03</pdfrwt>
<pdfrwt beam="2">  1       -4 0.37804109E-03 0.12499942E+03</pdfrwt>
<totfact> 0.16189199E+03</totfact>
</mgrwt>
</event>
<event>
 5    1  0.3277540E-002  0.1249963E+03  0.7818608E-02  0.1235075E+00
         -4   -1    0    0    0  501 -0.00000000000E+00  0.00000000000E+00  0.10621406940E+04  0.10621414532E+04  0.12700000000E+01 0. -1.
          4   -1    0    0  501    0  0.00000000000E+00 -0.00000000000E+00 -0.35670676611E+01  0.37864061719E+01  0.12700000000E+01 0. -1.
         25    2    1    2    0    0  0.00000000000E+00  0.00000000000E+00  0.10585736263E+04  0.10659278594E+04  0.12499631655E+03 0.  0.
    9000005    1    3    3    0    0  0.63468442271E+01  0.62155982511E+02  0.51930107802E+03  0.52304708988E+03  0.10000000000E+01 0.  0.
    9000005    1    3    3    0    0 -0.63468442271E+01 -0.62155982511E+02  0.53927254829E+03  0.54288076954E+03  0.10000000000E+01 0.  0.
<mgrwt>
<rscale>  0 0.12499632E+03</rscale>
<asrwt>0</asrwt>
<pdfrwt beam="2">  1        4 0.56571015E-03 0.12499632E+03</pdfrwt>
<pdfrwt beam="1">  1       -4 0.16342322E+00 0.12499632E+03</pdfrwt>
<totfact> 0.28504892E+03</totfact>
</mgrwt>
</event>
<event>
 5    1  0.3277540E-002  0.1250008E+03  0.7818608E-02  0.1235068E+00
         -4   -1    0    0    0  501 -0.00000000000E+00  0.00000000000E+00  0.10151103705E+02  0.10230239803E+02  0.12700000000E+01 0.  1.
          4   -1    0    0  501    0  0.00000000000E+00 -0.00000000000E+00 -0.38324100623E+03  0.38324311051E+03  0.12700000000E+01 0.  1.
         25    2    1    2    0    0  0.00000000000E+00  0.00000000000E+00 -0.37308990252E+03  0.39347335032E+03  0.12500080817E+03 0.  0.
    9000005    1    3    3    0    0  0.40645773217E+02 -0.19421397182E+02 -0.50205198165E+02  0.67459850813E+02  0.10000000000E+01 0.  0.
    9000005    1    3    3    0    0 -0.40645773217E+02  0.19421397182E+02 -0.32288470436E+03  0.32601349950E+03  0.10000000000E+01 0.  0.
<mgrwt>
<rscale>  0 0.12500081E+03</rscale>
<asrwt>0</asrwt>
<pdfrwt beam="2">  1        4 0.58966393E-01 0.12500081E+03</pdfrwt>
<pdfrwt beam="1">  1       -4 0.15679578E-02 0.12500081E+03</pdfrwt>
<totfact> 0.65191393E+03</totfact>
</mgrwt>
</event>
<event>
 5    1  0.3277540E-002  0.1249953E+03  0.7818608E-02  0.1235077E+00
         -4   -1    0    0    0  501 -0.00000000000E+00  0.00000000000E+00  0.94310838408E+01  0.95162094560E+01  0.12700000000E+01 0. -1.
          4   -1    0    0  501    0  0.00000000000E+00 -0.00000000000E+00 -0.41221067659E+03  0.41221263299E+03  0.12700000000E+01 0. -1.
         25    2    1    2    0    0  0.00000000000E+00  0.00000000000E+00 -0.40277959275E+03  0.42172884244E+03  0.12499526477E+03 0.  0.
    9000005    1    3    3    0    0  0.37511758699E+02  0.40038365236E+01 -0.33307345347E+02  0.50334302436E+02  0.10000000000E+01 0.  0.
    9000005    1    3    3    0    0 -0.37511758699E+02 -0.40038365236E+01 -0.36947224740E+03  0.37139454001E+03  0.10000000000E+01 0.  0.
<mgrwt>
<rscale>  0 0.12499526E+03</rscale>
<asrwt>0</asrwt>
<pdfrwt beam="2">  1        4 0.63423712E-01 0.12499526E+03</pdfrwt>
<pdfrwt beam="1">  1       -4 0.14576349E-02 0.12499526E+03</pdfrwt>
<totfact> 0.62499478E+03</totfact>
</mgrwt>
</event>
<event>
 5    1  0.3277540E-002  0.1249978E+03  0.7818608E-02  0.1235073E+00
          4   -1    0    0  501    0  0.00000000000E+00  0.00000000000E+00  0.22860040485E+02  0.22895291022E+02  0.12700000000E+01 0. -1.
         -4   -1    0    0    0  501 -0.00000000000E+00 -0.00000000000E+00 -0.17070143861E+03  0.17070616287E+03  0.12700000000E+01 0. -1.
         25    2    1    2    0    0  0.00000000000E+00  0.00000000000E+00 -0.14784139812E+03  0.19360145390E+03  0.12499777579E+03 0.  0.
    9000005    1    3    3    0    0 -0.14679992024E+02 -0.33406553563E+02 -0.15249450345E+03  0.15680265805E+03  0.10000000000E+01 0.  0.
    9000005    1    3    3    0    0  0.14679992024E+02  0.33406553563E+02  0.46531053305E+01  0.36798795850E+02  0.10000000000E+01 0.  0.
<mgrwt>
<rscale>  0 0.12499778E+03</rscale>
<asrwt>0</asrwt>
<pdfrwt beam="1">  1        4 0.35200044E-02 0.12499778E+03</pdfrwt>
<pdfrwt beam="2">  1       -4 0.26264834E-01 0.12499778E+03</pdfrwt>
<totfact> 0.91228966E+03</totfact>
</mgrwt>
</event>
<event>
 5    1  0.3277540E-002  0.1249972E+03  0.7818608E-02  0.1235074E+00
         -4   -1    0    0    0  501 -0.00000000000E+00  0.00000000000E+00  0.15193435491E+02  0.15246421941E+02  0.12700000000E+01 0.  1.
          4   -1    0    0  501    0  0.00000000000E+00 -0.00000000000E+00 -0.25658743860E+03  0.25659058157E+03  0.12700000000E+01 0.  1.
         25    2    1    2    0    0  0.00000000000E+00  0.00000000000E+00 -0.24139400311E+03  0.27183700351E+03  0.12499716692E+03 0.  0.
    9000005    1    3    3    0    0 -0.55061687344E+02  0.24105361963E+02 -0.15787274748E+03  0.16893093940E+03  0.10000000000E+01 0.  0.
    9000005    1    3    3    0    0  0.55061687344E+02 -0.24105361963E+02 -0.83521255629E+02  0.10290606411E+03  0.10000000000E+01 0.  0.
<mgrwt>
<rscale>  0 0.12499717E+03</rscale>
<asrwt>0</asrwt>
<pdfrwt beam="2">  1        4 0.39479305E-01 0.12499717E+03</pdfrwt>
<pdfrwt beam="1">  1       -4 0.23417694E-02 0.12499717E+03</pdfrwt>
<totfact> 0.79278056E+03</totfact>
</mgrwt>
</event>
<event>
 5    1  0.3277540E-002  0.1250120E+03  0.7818608E-02  0.1235050E+00
          4   -1    0    0  501    0  0.00000000000E+00  0.00000000000E+00  0.41574457896E+02  0.41593851100E+02  0.12700000000E+01 0. -1.
         -4   -1    0    0    0  501 -0.00000000000E+00 -0.00000000000E+00 -0.93930441624E+02  0.93939026840E+02  0.12700000000E+01 0. -1.
         25    2    1    2    0    0  0.00000000000E+00  0.00000000000E+00 -0.52355983728E+02  0.13553287794E+03  0.12501204730E+03 0.  0.
    9000005    1    3    3    0    0  0.15740652348E+02  0.42565836537E+02  0.20407840088E+02  0.49770458241E+02  0.10000000000E+01 0.  0.
    9000005    1    3    3    0    0 -0.15740652348E+02 -0.42565836537E+02 -0.72763823816E+02  0.85762419699E+02  0.10000000000E+01 0.  0.
<mgrwt>
<rscale>  0 0.12501205E+03</rscale>
<asrwt>0</asrwt>
<pdfrwt beam="1">  1        4 0.63982227E-02 0.12501205E+03</pdfrwt>
<pdfrwt beam="2">  1       -4 0.14452989E-01 0.12501205E+03</pdfrwt>
<totfact> 0.10224073E+04</totfact>
</mgrwt>
</event>
<event>
 5    1  0.3277540E-002  0.1250115E+03  0.7818608E-02  0.1235051E+00
          4   -1    0    0  501    0  0.00000000000E+00  0.00000000000E+00  0.77830697244E+02  0.77841058147E+02  0.12700000000E+01 0. -1.
         -4   -1    0    0    0  501 -0.00000000000E+00 -0.00000000000E+00 -0.50176540078E+02  0.50192609757E+02  0.12700000000E+01 0. -1.
         25    2    1    2    0    0  0.00000000000E+00  0.00000000000E+00  0.27654157166E+02  0.12803366790E+03  0.12501147031E+03 0.  0.
    9000005    1    3    3    0    0 -0.16319930572E+02 -0.41404932571E+02 -0.31111448344E+02  0.54310503525E+02  0.10000000000E+01 0.  0.
    9000005    1    3    3    0    0  0.16319930572E+02  0.41404932571E+02  0.58765605510E+02  0.73723164379E+02  0.10000000000E+01 0.  0.
<mgrwt>
<rscale>  0 0.12501147E+03</rscale>
<asrwt>0</asrwt>
<pdfrwt beam="1">  1        4 0.11975987E-01 0.12501147E+03</pdfrwt>
<pdfrwt beam="2">  1       -4 0.77215008E-02 0.12501147E+03</pdfrwt>
<totfact> 0.10384071E+04</totfact>
</mgrwt>
</event>
<event>
 5    1  0.3277540E-002  0.1249924E+03  0.7818608E-02  0.1235081E+00
         -4   -1    0    0    0  501 -0.00000000000E+00  0.00000000000E+00  0.57230696399E+02  0.57244785879E+02  0.12700000000E+01 0. -1.
          4   -1    0    0  501    0  0.00000000000E+00 -0.00000000000E+00 -0.68217719931E+02  0.68229540615E+02  0.12700000000E+01 0. -1.
         25    2    1    2    0    0  0.00000000000E+00  0.00000000000E+00 -0.10987023532E+02  0.12547432649E+03  0.12499236746E+03 0.  0.
    9000005    1    3    3    0    0  0.61979667025E+02 -0.15542425721E+01  0.23390212044E+01  0.62051315979E+02  0.10000000000E+01 0.  0.
    9000005    1    3    3    0    0 -0.61979667025E+02  0.15542425721E+01 -0.13326044736E+02  0.63423010515E+02  0.10000000000E+01 0.  0.
<mgrwt>
<rscale>  0 0.12499237E+03</rscale>
<asrwt>0</asrwt>
<pdfrwt beam="2">  1        4 0.10497027E-01 0.12499237E+03</pdfrwt>
<pdfrwt beam="1">  1       -4 0.88067156E-02 0.12499237E+03</pdfrwt>
<totfact> 0.10444319E+04</totfact>
</mgrwt>
</event>
<event>
 5    1  0.3277540E-002  0.1250113E+03  0.7818608E-02  0.1235052E+00
          4   -1    0    0  501    0  0.00000000000E+00  0.00000000000E+00  0.25447746161E+03  0.25448063064E+03  0.12700000000E+01 0. -1.
         -4   -1    0    0    0  501 -0.00000000000E+00 -0.00000000000E+00 -0.15323324389E+02  0.15375863238E+02  0.12700000000E+01 0. -1.
         25    2    1    2    0    0  0.00000000000E+00  0.00000000000E+00  0.23915413723E+03  0.26985649388E+03  0.12501130323E+03 0.  0.
    9000005    1    3    3    0    0 -0.22509481339E+02  0.14440739116E+02  0.24151241744E+03  0.24299065717E+03  0.10000000000E+01 0.  0.
    9000005    1    3    3    0    0  0.22509481339E+02 -0.14440739116E+02 -0.23582802098E+01  0.26865836706E+02  0.10000000000E+01 0.  0.
<mgrwt>
<rscale>  0 0.12501130E+03</rscale>
<asrwt>0</asrwt>
<pdfrwt beam="1">  1        4 0.39154660E-01 0.12501130E+03</pdfrwt>
<pdfrwt beam="2">  1       -4 0.23617200E-02 0.12501130E+03</pdfrwt>
<totfact> 0.79522442E+03</totfact>
</mgrwt>
</event>
<event>
 5    1  0.3277540E-002  0.1249729E+03  0.7818608E-02  0.1235112E+00
         -4   -1    0    0    0  501 -0.00000000000E+00  0.00000000000E+00  0.76204176142E+02  0.76214758160E+02  0.12700000000E+01 0. -1.
          4   -1    0    0  501    0  0.00000000000E+00 -0.00000000000E+00 -0.51216059907E+02  0.51231803525E+02  0.12700000000E+01 0. -1.
         25    2    1    2    0    0  0.00000000000E+00  0.00000000000E+00  0.24988116235E+02  0.12744656168E+03  0.12497287759E+03 0.  0.
    9000005    1    3    3    0    0 -0.18263700238E+02  0.49620148094E+02  0.46437004613E+02  0.70378386176E+02  0.10000000000E+01 0.  0.
    9000005    1    3    3    0    0  0.18263700238E+02 -0.49620148094E+02 -0.21448888378E+02  0.57068175509E+02  0.10000000000E+01 0.  0.
<mgrwt>
<rscale>  0 0.12497288E+03</rscale>
<asrwt>0</asrwt>
<pdfrwt beam="2">  1        4 0.78814189E-02 0.12497288E+03</pdfrwt>
<pdfrwt beam="1">  1       -4 0.11725744E-01 0.12497288E+03</pdfrwt>
<totfact> 0.10405828E+04</totfact>
</mgrwt>
</event>
<event>
 5    1  0.3277540E-002  0.1249976E+03  0.7818608E-02  0.1235073E+00
          4   -1    0    0  501    0  0.00000000000E+00  0.00000000000E+00  0.15974836968E+02  0.16025239972E+02  0.12700000000E+01 0.  1.
         -4   -1    0    0    0  501 -0.00000000000E+00 -0.00000000000E+00 -0.24407868386E+03  0.24408198790E+03  0.12700000000E+01 0.  1.
         25    2    1    2    0    0  0.00000000000E+00  0.00000000000E+00 -0.22810384689E+03  0.26010722787E+03  0.12499762007E+03 0.  0.
    9000005    1    3    3    0    0 -0.30571403483E+02  0.51264292900E+02 -0.15256049325E+03  0.16382412075E+03  0.10000000000E+01 0.  0.
    9000005    1    3    3    0    0  0.30571403483E+02 -0.51264292900E+02 -0.75543353640E+02  0.96283107120E+02  0.10000000000E+01 0.  0.
<mgrwt>
<rscale>  0 0.12499762E+03</rscale>
<asrwt>0</asrwt>
<pdfrwt beam="1">  1        4 0.24617987E-02 0.12499762E+03</pdfrwt>
<pdfrwt beam="2">  1       -4 0.37554695E-01 0.12499762E+03</pdfrwt>
<totfact> 0.80895302E+03</totfact>
</mgrwt>
</event>
<event>
 5    1  0.3277540E-002  0.1250032E+03  0.7818608E-02  0.1235064E+00
         -4   -1    0    0    0  501 -0.00000000000E+00  0.00000000000E+00  0.32687232029E+02  0.32711894438E+02  0.12700000000E+01 0.  1.
          4   -1    0    0  501    0  0.00000000000E+00 -0.00000000000E+00 -0.11943679771E+03  0.11944354963E+03  0.12700000000E+01 0.  1.
         25    2    1    2    0    0  0.00000000000E+00  0.00000000000E+00 -0.86749565684E+02  0.15215544407E+03  0.12500316801E+03 0.  0.
    9000005    1    3    3    0    0 -0.88971353240E+01  0.45267092946E+02 -0.94688337074E+02  0.10533351745E+03  0.10000000000E+01 0.  0.
    9000005    1    3    3    0    0  0.88971353240E+01 -0.45267092946E+02  0.79387713900E+01  0.46821926615E+02  0.10000000000E+01 0.  0.
<mgrwt>
<rscale>  0 0.12500317E+03</rscale>
<asrwt>0</asrwt>
<pdfrwt beam="2">  1        4 0.18377308E-01 0.12500317E+03</pdfrwt>
<pdfrwt beam="1">  1       -4 0.50312215E-02 0.12500317E+03</pdfrwt>
<totfact> 0.98868718E+03</totfact>
</mgrwt>
</event>
<event>
 5    1  0.3277540E-002  0.1249989E+03  0.7818608E-02  0.1235071E+00
         -4   -1    0    0    0  501 -0.00000000000E+00  0.00000000000E+00  0.44611093614E+02  0.44629167295E+02  0.12700000000E+01 0. -1.
          4   -1    0    0  501    0  0.00000000000E+00 -0.00000000000E+00 -0.87520280354E+02  0.87529494305E+02  0.12700000000E+01 0. -1.
         25    2    1    2    0    0  0.00000000000E+00  0.00000000000E+00 -0.42909186740E+02  0.13215866160E+03  0.12499885411E+03 0.  0.
    9000005    1    3    3    0    0 -0.59301979687E+02 -0.15587788770E+02 -0.34206729211E+02  0.70219685821E+02  0.10000000000E+01 0.  0.
    9000005    1    3    3    0    0  0.59301979687E+02  0.15587788770E+02 -0.87024575292E+01  0.61938975779E+02  0.10000000000E+01 0.  0.
<mgrwt>
<rscale>  0 0.12499885E+03</rscale>
<asrwt>0</asrwt>
<pdfrwt beam="2">  1        4 0.13466758E-01 0.12499885E+03</pdfrwt>
<pdfrwt beam="1">  1       -4 0.68653442E-02 0.12499885E+03</pdfrwt>
<totfact> 0.10298579E+04</totfact>
</mgrwt>
</event>
<event>
 5    1  0.3277540E-002  0.1250017E+03  0.7818608E-02  0.1235067E+00
         -4   -1    0    0    0  501 -0.00000000000E+00  0.00000000000E+00  0.42496709916E+02  0.42515682444E+02  0.12700000000E+01 0. -1.
          4   -1    0    0  501    0  0.00000000000E+00 -0.00000000000E+00 -0.91877576694E+02  0.91886353716E+02  0.12700000000E+01 0. -1.
         25    2    1    2    0    0  0.00000000000E+00  0.00000000000E+00 -0.49380866778E+02  0.13440203616E+03  0.12500174927E+03 0.  0.
    9000005    1    3    3    0    0 -0.24283516262E+02  0.24083166037E+02  0.31546510729E+02  0.46538912617E+02  0.10000000000E+01 0.  0.
    9000005    1    3    3    0    0  0.24283516262E+02 -0.24083166037E+02 -0.80927377507E+02  0.87863123542E+02  0.10000000000E+01 0.  0.
<mgrwt>
<rscale>  0 0.12500175E+03</rscale>
<asrwt>0</asrwt>
<pdfrwt beam="2">  1        4 0.14137146E-01 0.12500175E+03</pdfrwt>
<pdfrwt beam="1">  1       -4 0.65400900E-02 0.12500175E+03</pdfrwt>
<totfact> 0.10250285E+04</totfact>
</mgrwt>
</event>
<event>
 5    1  0.3277540E-002  0.1250036E+03  0.7818608E-02  0.1235064E+00
         -4   -1    0    0    0  501 -0.00000000000E+00  0.00000000000E+00  0.16151010577E+02  0.16200865491E+02  0.12700000000E+01 0. -1.
          4   -1    0    0  501    0  0.00000000000E+00 -0.00000000000E+00 -0.24144748788E+03  0.24145082792E+03  0.12700000000E+01 0. -1.
         25    2    1    2    0    0  0.00000000000E+00  0.00000000000E+00 -0.22529647730E+03  0.25765169341E+03  0.12500356968E+03 0.  0.
    9000005    1    3    3    0    0  0.58370053646E+02 -0.20750236649E+02 -0.12962465045E+03  0.14367040575E+03  0.10000000000E+01 0.  0.
    9000005    1    3    3    0    0 -0.58370053646E+02  0.20750236649E+02 -0.95671826848E+02  0.11398128766E+03  0.10000000000E+01 0.  0.
<mgrwt>
<rscale>  0 0.12500357E+03</rscale>
<asrwt>0</asrwt>
<pdfrwt beam="2">  1        4 0.37149857E-01 0.12500357E+03</pdfrwt>
<pdfrwt beam="1">  1       -4 0.24888630E-02 0.12500357E+03</pdfrwt>
<totfact> 0.81230291E+03</totfact>
</mgrwt>
</event>
<event>
 5    1  0.3277540E-002  0.1249988E+03  0.7818608E-02  0.1235071E+00
          4   -1    0    0  501    0  0.00000000000E+00  0.00000000000E+00  0.21278608218E+02  0.21316474092E+02  0.12700000000E+01 0. -1.
         -4   -1    0    0    0  501 -0.00000000000E+00 -0.00000000000E+00 -0.18336955859E+03  0.18337395649E+03  0.12700000000E+01 0. -1.
         25    2    1    2    0    0  0.00000000000E+00  0.00000000000E+00 -0.16209095037E+03  0.20469043058E+03  0.12499878471E+03 0.  0.
    9000005    1    3    3    0    0  0.45685717823E+01  0.62233068744E+02 -0.75529288009E+02  0.97977038333E+02  0.10000000000E+01 0.  0.
    9000005    1    3    3    0    0 -0.45685717823E+01 -0.62233068744E+02 -0.86561662366E+02  0.10671339225E+03  0.10000000000E+01 0.  0.
<mgrwt>
<rscale>  0 0.12499878E+03</rscale>
<asrwt>0</asrwt>
<pdfrwt beam="1">  1        4 0.32768832E-02 0.12499878E+03</pdfrwt>
<pdfrwt beam="2">  1       -4 0.28213951E-01 0.12499878E+03</pdfrwt>
<totfact> 0.89352841E+03</totfact>
</mgrwt>
</event>
<event>
 4    1  0.3277540E-002  0.1244478E+03  0.7818608E-02  0.1235935E+00
         -4   -1    0    0    0  501 -0.00000000000E+00  0.00000000000E+00  0.18286036175E+04  0.18286040585E+04  0.12700000000E+01 0.  1.
          4   -1    0    0  501    0  0.00000000000E+00 -0.00000000000E+00 -0.19264435290E+01  0.23073978136E+01  0.12700000000E+01 0.  1.
    9000005    1    1    2    0    0 -0.29291878220E+02  0.29428681517E+02  0.15950038744E+04  0.15955445531E+04  0.10000000000E+01 0.  0.
    9000005    1    1    2    0    0  0.29291878220E+02 -0.29428681517E+02  0.23167329955E+03  0.23536690326E+03  0.10000000000E+01 0.  0.
<mgrwt>
<rscale>  0 0.12444783E+03</rscale>
<asrwt>0</asrwt>
<pdfrwt beam="2">  1        4 0.32571391E-03 0.12444783E+03</pdfrwt>
<pdfrwt beam="1">  1       -4 0.28135308E+00 0.12444783E+03</pdfrwt>
<totfact> 0.12382722E+03</totfact>
</mgrwt>
</event>
<event>
 5    1  0.3277540E-002  0.1249999E+03  0.7818608E-02  0.1235069E+00
          4   -1    0    0  501    0  0.00000000000E+00  0.00000000000E+00  0.18233544956E+02  0.18277720362E+02  0.12700000000E+01 0. -1.
         -4   -1    0    0    0  501 -0.00000000000E+00 -0.00000000000E+00 -0.21392859066E+03  0.21393236034E+03  0.12700000000E+01 0. -1.
         25    2    1    2    0    0  0.00000000000E+00  0.00000000000E+00 -0.19569504570E+03  0.23221008071E+03  0.12499988267E+03 0.  0.
    9000005    1    3    3    0    0 -0.41482525049E+02  0.37655303235E+02 -0.14927952967E+03  0.15944936414E+03  0.10000000000E+01 0.  0.
    9000005    1    3    3    0    0  0.41482525049E+02 -0.37655303235E+02 -0.46415516033E+02  0.72760716563E+02  0.10000000000E+01 0.  0.
<mgrwt>
<rscale>  0 0.12499988E+03</rscale>
<asrwt>0</asrwt>
<pdfrwt beam="1">  1        4 0.28088490E-02 0.12499988E+03</pdfrwt>
<pdfrwt beam="2">  1       -4 0.32915777E-01 0.12499988E+03</pdfrwt>
<totfact> 0.84971611E+03</totfact>
</mgrwt>
</event>
<event>
 5    1  0.3277540E-002  0.1250072E+03  0.7818608E-02  0.1235058E+00
          4   -1    0    0  501    0  0.00000000000E+00  0.00000000000E+00  0.74415350568E+02  0.74426186924E+02  0.12700000000E+01 0.  1.
         -4   -1    0    0    0  501 -0.00000000000E+00 -0.00000000000E+00 -0.52476235849E+02  0.52491601508E+02  0.12700000000E+01 0.  1.
         25    2    1    2    0    0  0.00000000000E+00  0.00000000000E+00  0.21939114718E+02  0.12691778843E+03  0.12500720086E+03 0.  0.
    9000005    1    3    3    0    0 -0.19283072188E+02 -0.57992157454E+02 -0.22981810563E+01  0.61165421893E+02  0.10000000000E+01 0.  0.
    9000005    1    3    3    0    0  0.19283072188E+02  0.57992157454E+02  0.24237295775E+02  0.65752366540E+02  0.10000000000E+01 0.  0.
<mgrwt>
<rscale>  0 0.12500720E+03</rscale>
<asrwt>0</asrwt>
<pdfrwt beam="1">  1        4 0.11450531E-01 0.12500720E+03</pdfrwt>
<pdfrwt beam="2">  1       -4 0.80752826E-02 0.12500720E+03</pdfrwt>
<totfact> 0.10409240E+04</totfact>
</mgrwt>
</event>
<event>
 5    1  0.3277540E-002  0.1249943E+03  0.7818608E-02  0.1235078E+00
         -4   -1    0    0    0  501 -0.00000000000E+00  0.00000000000E+00  0.78500892442E+02  0.78511164902E+02  0.12700000000E+01 0.  1.
          4   -1    0    0  501    0  0.00000000000E+00 -0.00000000000E+00 -0.49734372163E+02  0.49750584664E+02  0.12700000000E+01 0.  1.
         25    2    1    2    0    0  0.00000000000E+00  0.00000000000E+00  0.28766520279E+02  0.12826174957E+03  0.12499425472E+03 0.  0.
    9000005    1    3    3    0    0  0.29884150735E+02 -0.52086408352E+02 -0.33554687407E+01  0.60152436115E+02  0.10000000000E+01 0.  0.
    9000005    1    3    3    0    0 -0.29884150735E+02  0.52086408352E+02  0.32121989020E+02  0.68109313451E+02  0.10000000000E+01 0.  0.
<mgrwt>
<rscale>  0 0.12499425E+03</rscale>
<asrwt>0</asrwt>
<pdfrwt beam="2">  1        4 0.76534792E-02 0.12499425E+03</pdfrwt>
<pdfrwt beam="1">  1       -4 0.12079098E-01 0.12499425E+03</pdfrwt>
<totfact> 0.10383185E+04</totfact>
</mgrwt>
</event>
<event>
 5    1  0.3277540E-002  0.1250324E+03  0.7818608E-02  0.1235019E+00
         -4   -1    0    0    0  501 -0.00000000000E+00  0.00000000000E+00  0.78121436000E+02  0.78131758349E+02  0.12700000000E+01 0.  1.
          4   -1    0    0  501    0  0.00000000000E+00 -0.00000000000E+00 -0.50006499036E+02  0.50022623340E+02  0.12700000000E+01 0.  1.
         25    2    1    2    0    0  0.00000000000E+00  0.00000000000E+00  0.28114936964E+02  0.12815438169E+03  0.12503237927E+03 0.  0.
    9000005    1    3    3    0    0 -0.10210328083E+02  0.18046429365E+02  0.74498955256E+02  0.77337046405E+02  0.10000000000E+01 0.  0.
    9000005    1    3    3    0    0  0.10210328083E+02 -0.18046429365E+02 -0.46384018293E+02  0.50817335284E+02  0.10000000000E+01 0.  0.
<mgrwt>
<rscale>  0 0.12503238E+03</rscale>
<asrwt>0</asrwt>
<pdfrwt beam="2">  1        4 0.76953419E-02 0.12503238E+03</pdfrwt>
<pdfrwt beam="1">  1       -4 0.12020717E-01 0.12503238E+03</pdfrwt>
<totfact> 0.10376568E+04</totfact>
</mgrwt>
</event>
<event>
 5    1  0.3277540E-002  0.1250011E+03  0.7818608E-02  0.1235068E+00
         -4   -1    0    0    0  501 -0.00000000000E+00  0.00000000000E+00  0.56352461899E+02  0.56366770903E+02  0.12700000000E+01 0. -1.
          4   -1    0    0  501    0  0.00000000000E+00 -0.00000000000E+00 -0.69290506101E+02  0.69302143803E+02  0.12700000000E+01 0. -1.
         25    2    1    2    0    0  0.00000000000E+00  0.00000000000E+00 -0.12938044202E+02  0.12566891471E+03  0.12500113254E+03 0.  0.
    9000005    1    3    3    0    0 -0.59447406129E+02 -0.19269791814E+02 -0.65118150663E+01  0.62838863035E+02  0.10000000000E+01 0.  0.
    9000005    1    3    3    0    0  0.59447406129E+02  0.19269791814E+02 -0.64262291355E+01  0.62830051671E+02  0.10000000000E+01 0.  0.
<mgrwt>
<rscale>  0 0.12500113E+03</rscale>
<asrwt>0</asrwt>
<pdfrwt beam="2">  1        4 0.10662074E-01 0.12500113E+03</pdfrwt>
<pdfrwt beam="1">  1       -4 0.86716054E-02 0.12500113E+03</pdfrwt>
<totfact> 0.10437962E+04</totfact>
</mgrwt>
</event>
<event>
 5    1  0.3277540E-002  0.1249995E+03  0.7818608E-02  0.1235070E+00
          4   -1    0    0  501    0  0.00000000000E+00  0.00000000000E+00  0.15722630646E+01  0.20211163115E+01  0.12700000000E+01 0.  1.
         -4   -1    0    0    0  501 -0.00000000000E+00 -0.00000000000E+00 -0.21736723058E+04  0.21736726768E+04  0.12700000000E+01 0.  1.
         25    2    1    2    0    0  0.00000000000E+00  0.00000000000E+00 -0.21721000427E+04  0.21756937931E+04  0.12499954307E+03 0.  0.
    9000005    1    3    3    0    0  0.56098022542E+02 -0.11004603016E+02 -0.15253933778E+04  0.15264645579E+04  0.10000000000E+01 0.  0.
    9000005    1    3    3    0    0 -0.56098022542E+02  0.11004603016E+02 -0.64670666489E+03  0.64922923520E+03  0.10000000000E+01 0.  0.
<mgrwt>
<rscale>  0 0.12499954E+03</rscale>
<asrwt>0</asrwt>
<pdfrwt beam="1">  1        4 0.27644408E-03 0.12499954E+03</pdfrwt>
<pdfrwt beam="2">  1       -4 0.33444358E+00 0.12499954E+03</pdfrwt>
<totfact> 0.77390469E+02</totfact>
</mgrwt>
</event>
<event>
 5    1  0.3277540E-002  0.1250009E+03  0.7818608E-02  0.1235068E+00
         -4   -1    0    0    0  501 -0.00000000000E+00  0.00000000000E+00  0.91702101209E+02  0.91710895025E+02  0.12700000000E+01 0. -1.
          4   -1    0    0  501    0  0.00000000000E+00 -0.00000000000E+00 -0.42577469884E+02  0.42596406442E+02  0.12700000000E+01 0. -1.
         25    2    1    2    0    0  0.00000000000E+00  0.00000000000E+00  0.49124631325E+02  0.13430730147E+03  0.12500088729E+03 0.  0.
    9000005    1    3    3    0    0  0.29113283009E+02 -0.18464446741E+02 -0.31441069103E+02  0.46669688957E+02  0.10000000000E+01 0.  0.
    9000005    1    3    3    0    0 -0.29113283009E+02  0.18464446741E+02  0.80565700428E+02  0.87637612510E+02  0.10000000000E+01 0.  0.
<mgrwt>
<rscale>  0 0.12500089E+03</rscale>
<asrwt>0</asrwt>
<pdfrwt beam="2">  1        4 0.65525131E-02 0.12500089E+03</pdfrwt>
<pdfrwt beam="1">  1       -4 0.14110149E-01 0.12500089E+03</pdfrwt>
<totfact> 0.10252487E+04</totfact>
</mgrwt>
</event>
<event>
 5    1  0.3277540E-002  0.1249988E+03  0.7818608E-02  0.1235071E+00
         -4   -1    0    0    0  501 -0.00000000000E+00  0.00000000000E+00  0.30469548986E+01  0.33010353155E+01  0.12700000000E+01 0.  1.
          4   -1    0    0  501    0  0.00000000000E+00 -0.00000000000E+00 -0.12304267320E+04  0.12304273874E+04  0.12700000000E+01 0.  1.
         25    2    1    2    0    0  0.00000000000E+00  0.00000000000E+00 -0.12273797771E+04  0.12337284227E+04  0.12499881533E+03 0.  0.
    9000005    1    3    3    0    0  0.50892906200E+02  0.25459494997E+02 -0.35880461800E+03  0.36329055546E+03  0.10000000000E+01 0.  0.
    9000005    1    3    3    0    0 -0.50892906200E+02 -0.25459494997E+02 -0.86857515907E+03  0.87043786725E+03  0.10000000000E+01 0.  0.
<mgrwt>
<rscale>  0 0.12499882E+03</rscale>
<asrwt>0</asrwt>
<pdfrwt beam="2">  1        4 0.18931563E+00 0.12499882E+03</pdfrwt>
<pdfrwt beam="1">  1       -4 0.48835834E-03 0.12499882E+03</pdfrwt>
<totfact> 0.23847270E+03</totfact>
</mgrwt>
</event>
<event>
 5    1  0.3277540E-002  0.1249947E+03  0.7818608E-02  0.1235078E+00
          4   -1    0    0  501    0  0.00000000000E+00  0.00000000000E+00  0.31051830644E+02  0.31077790886E+02  0.12700000000E+01 0.  1.
         -4   -1    0    0    0  501 -0.00000000000E+00 -0.00000000000E+00 -0.12570534864E+03  0.12571176388E+03  0.12700000000E+01 0.  1.
         25    2    1    2    0    0  0.00000000000E+00  0.00000000000E+00 -0.94653517996E+02  0.15678955476E+03  0.12499470394E+03 0.  0.
    9000005    1    3    3    0    0 -0.28628405401E+02 -0.22018802376E+02 -0.11129352932E+03  0.11701137946E+03  0.10000000000E+01 0.  0.
    9000005    1    3    3    0    0  0.28628405401E+02  0.22018802376E+02  0.16640011323E+02  0.39778175306E+02  0.10000000000E+01 0.  0.
<mgrwt>
<rscale>  0 0.12499470E+03</rscale>
<asrwt>0</asrwt>
<pdfrwt beam="1">  1        4 0.47796952E-02 0.12499470E+03</pdfrwt>
<pdfrwt beam="2">  1       -4 0.19341775E-01 0.12499470E+03</pdfrwt>
<totfact> 0.97976995E+03</totfact>
</mgrwt>
</event>
<event>
 5    1  0.3277540E-002  0.1249850E+03  0.7818608E-02  0.1235093E+00
         -4   -1    0    0    0  501 -0.00000000000E+00  0.00000000000E+00  0.24791959604E+03  0.24792284888E+03  0.12700000000E+01 0.  1.
          4   -1    0    0  501    0  0.00000000000E+00 -0.00000000000E+00 -0.15723363065E+02  0.15774569600E+02  0.12700000000E+01 0.  1.
         25    2    1    2    0    0  0.00000000000E+00  0.00000000000E+00  0.23219623297E+03  0.26369741849E+03  0.12498495073E+03 0.  0.
    9000005    1    3    3    0    0 -0.43661261777E+02 -0.50478183225E+01  0.22393881830E+02  0.49338344046E+02  0.10000000000E+01 0.  0.
    9000005    1    3    3    0    0  0.43661261777E+02  0.50478183225E+01  0.20980235114E+03  0.21435907444E+03  0.10000000000E+01 0.  0.
<mgrwt>
<rscale>  0 0.12498495E+03</rscale>
<asrwt>0</asrwt>
<pdfrwt beam="2">  1        4 0.24231683E-02 0.12498495E+03</pdfrwt>
<pdfrwt beam="1">  1       -4 0.38145662E-01 0.12498495E+03</pdfrwt>
<totfact> 0.80416895E+03</totfact>
</mgrwt>
</event>
<event>
 5    1  0.3277540E-002  0.1249987E+03  0.7818608E-02  0.1235071E+00
          4   -1    0    0  501    0  0.00000000000E+00  0.00000000000E+00  0.42247378326E+02  0.42266462774E+02  0.12700000000E+01 0. -1.
         -4   -1    0    0    0  501 -0.00000000000E+00 -0.00000000000E+00 -0.92415136832E+02  0.92423862804E+02  0.12700000000E+01 0. -1.
         25    2    1    2    0    0  0.00000000000E+00  0.00000000000E+00 -0.50167758506E+02  0.13469032558E+03  0.12499871924E+03 0.  0.
    9000005    1    3    3    0    0 -0.70347190002E+00 -0.20179345502E+02 -0.88808576723E+02  0.91080536654E+02  0.10000000000E+01 0.  0.
    9000005    1    3    3    0    0  0.70347190002E+00  0.20179345502E+02  0.38640818216E+02  0.43609788924E+02  0.10000000000E+01 0.  0.
<mgrwt>
<rscale>  0 0.12499872E+03</rscale>
<asrwt>0</asrwt>
<pdfrwt beam="1">  1        4 0.65017360E-02 0.12499872E+03</pdfrwt>
<pdfrwt beam="2">  1       -4 0.14219853E-01 0.12499872E+03</pdfrwt>
<totfact> 0.10244898E+04</totfact>
</mgrwt>
</event>
<event>
 5    1  0.3277540E-002  0.1250059E+03  0.7818608E-02  0.1235060E+00
         -4   -1    0    0    0  501 -0.00000000000E+00  0.00000000000E+00  0.93667618266E+02  0.93676227570E+02  0.12700000000E+01 0.  1.
          4   -1    0    0  501    0  0.00000000000E+00 -0.00000000000E+00 -0.41687078388E+02  0.41706419225E+02  0.12700000000E+01 0.  1.
         25    2    1    2    0    0  0.00000000000E+00  0.00000000000E+00  0.51980539878E+02  0.13538264679E+03  0.12500593797E+03 0.  0.
    9000005    1    3    3    0    0 -0.72181457421E+01  0.33724708065E+02  0.82433299636E+02  0.89362780009E+02  0.10000000000E+01 0.  0.
    9000005    1    3    3    0    0  0.72181457421E+01 -0.33724708065E+02 -0.30452759758E+02  0.46019866785E+02  0.10000000000E+01 0.  0.
<mgrwt>
<rscale>  0 0.12500594E+03</rscale>
<asrwt>0</asrwt>
<pdfrwt beam="2">  1        4 0.64155468E-02 0.12500594E+03</pdfrwt>
<pdfrwt beam="1">  1       -4 0.14412553E-01 0.12500594E+03</pdfrwt>
<totfact> 0.10228642E+04</totfact>
</mgrwt>
</event>
<event>
 5    1  0.3277540E-002  0.1250295E+03  0.7818608E-02  0.1235023E+00
          4   -1    0    0  501    0  0.00000000000E+00  0.00000000000E+00  0.39690565670E+02  0.39710878903E+02  0.12700000000E+01 0. -1.
         -4   -1    0    0    0  501 -0.00000000000E+00 -0.00000000000E+00 -0.98414377571E+02  0.98422571663E+02  0.12700000000E+01 0. -1.
         25    2    1    2    0    0  0.00000000000E+00  0.00000000000E+00 -0.58723811901E+02  0.13813345057E+03  0.12502945285E+03 0.  0.
    9000005    1    3    3    0    0 -0.26781759694E+02  0.21798183635E+02  0.28201284448E+02  0.44595245337E+02  0.10000000000E+01 0.  0.
    9000005    1    3    3    0    0  0.26781759694E+02 -0.21798183635E+02 -0.86925096349E+02  0.93538205229E+02  0.10000000000E+01 0.  0.
<mgrwt>
<rscale>  0 0.12502945E+03</rscale>
<asrwt>0</asrwt>
<pdfrwt beam="1">  1        4 0.61084338E-02 0.12502945E+03</pdfrwt>
<pdfrwt beam="2">  1       -4 0.15142866E-01 0.12502945E+03</pdfrwt>
<totfact> 0.10165670E+04</totfact>
</mgrwt>
</event>
<event>
 5    1  0.3277540E-002  0.1250022E+03  0.7818608E-02  0.1235066E+00
         -4   -1    0    0    0  501 -0.00000000000E+00  0.00000000000E+00  0.10692581659E+02  0.10767738970E+02  0.12700000000E+01 0. -1.
          4   -1    0    0  501    0  0.00000000000E+00 -0.00000000000E+00 -0.36398058410E+03  0.36398279973E+03  0.12700000000E+01 0. -1.
         25    2    1    2    0    0  0.00000000000E+00  0.00000000000E+00 -0.35328800244E+03  0.37475053870E+03  0.12500221434E+03 0.  0.
    9000005    1    3    3    0    0 -0.26986095278E+02  0.28609549494E+02 -0.31046232156E+02  0.50116107108E+02  0.10000000000E+01 0.  0.
    9000005    1    3    3    0    0  0.26986095278E+02 -0.28609549494E+02 -0.32224177028E+03  0.32463443159E+03  0.10000000000E+01 0.  0.
<mgrwt>
<rscale>  0 0.12500221E+03</rscale>
<asrwt>0</asrwt>
<pdfrwt beam="2">  1        4 0.56002955E-01 0.12500221E+03</pdfrwt>
<pdfrwt beam="1">  1       -4 0.16509646E-02 0.12500221E+03</pdfrwt>
<totfact> 0.67081574E+03</totfact>
</mgrwt>
</event>
<event>
 5    1  0.3277540E-002  0.1249901E+03  0.7818608E-02  0.1235085E+00
         -4   -1    0    0    0  501 -0.00000000000E+00  0.00000000000E+00  0.59874484126E+01  0.61206567044E+01  0.12700000000E+01 0. -1.
          4   -1    0    0  501    0  0.00000000000E+00 -0.00000000000E+00 -0.64499249694E+03  0.64499374727E+03  0.12700000000E+01 0. -1.
         25    2    1    2    0    0  0.00000000000E+00  0.00000000000E+00 -0.63900504853E+03  0.65111440397E+03  0.12499005965E+03 0.  0.
    9000005    1    3    3    0    0 -0.35036359836E+02  0.17412684524E+02 -0.65691040055E+02  0.76466076377E+02  0.10000000000E+01 0.  0.
    9000005    1    3    3    0    0  0.35036359836E+02 -0.17412684524E+02 -0.57331400847E+03  0.57464832759E+03  0.10000000000E+01 0.  0.
<mgrwt>
<rscale>  0 0.12499006E+03</rscale>
<asrwt>0</asrwt>
<pdfrwt beam="2">  1        4 0.99239904E-01 0.12499006E+03</pdfrwt>
<pdfrwt beam="1">  1       -4 0.93148939E-03 0.12499006E+03</pdfrwt>
<totfact> 0.45802097E+03</totfact>
</mgrwt>
</event>
<event>
 5    1  0.3277540E-002  0.1249923E+03  0.7818608E-02  0.1235081E+00
          4   -1    0    0  501    0  0.00000000000E+00  0.00000000000E+00  0.66546965046E+02  0.66559082452E+02  0.12700000000E+01 0.  1.
         -4   -1    0    0    0  501 -0.00000000000E+00 -0.00000000000E+00 -0.58667555275E+02  0.58681299763E+02  0.12700000000E+01 0.  1.
         25    2    1    2    0    0  0.00000000000E+00  0.00000000000E+00  0.78794097719E+01  0.12524038222E+03  0.12499227272E+03 0.  0.
    9000005    1    3    3    0    0 -0.22625225972E+02 -0.43982096657E+02  0.42205056553E+02  0.65027628553E+02  0.10000000000E+01 0.  0.
    9000005    1    3    3    0    0  0.22625225972E+02  0.43982096657E+02 -0.34325646781E+02  0.60212753662E+02  0.10000000000E+01 0.  0.
<mgrwt>
<rscale>  0 0.12499227E+03</rscale>
<asrwt>0</asrwt>
<pdfrwt beam="1">  1        4 0.10239984E-01 0.12499227E+03</pdfrwt>
<pdfrwt beam="2">  1       -4 0.90277671E-02 0.12499227E+03</pdfrwt>
<totfact> 0.10449468E+04</totfact>
</mgrwt>
</event>
<event>
 5    1  0.3277540E-002  0.1250379E+03  0.7818608E-02  0.1235010E+00
          4   -1    0    0  501    0  0.00000000000E+00  0.00000000000E+00  0.16814377730E+03  0.16814857343E+03  0.12700000000E+01 0. -1.
         -4   -1    0    0    0  501 -0.00000000000E+00 -0.00000000000E+00 -0.23223208444E+02  0.23257908557E+02  0.12700000000E+01 0. -1.
         25    2    1    2    0    0  0.00000000000E+00  0.00000000000E+00  0.14492056886E+03  0.19140648198E+03  0.12503787453E+03 0.  0.
    9000005    1    3    3    0    0  0.25880696582E+02 -0.45792213448E+02  0.20754981228E+02  0.56555340277E+02  0.10000000000E+01 0.  0.
    9000005    1    3    3    0    0 -0.25880696582E+02  0.45792213448E+02  0.12416558763E+03  0.13485114171E+03  0.10000000000E+01 0.  0.
<mgrwt>
<rscale>  0 0.12503787E+03</rscale>
<asrwt>0</asrwt>
<pdfrwt beam="1">  1        4 0.25871312E-01 0.12503787E+03</pdfrwt>
<pdfrwt beam="2">  1       -4 0.35758395E-02 0.12503787E+03</pdfrwt>
<totfact> 0.91525505E+03</totfact>
</mgrwt>
</event>
<event>
 5    1  0.3277540E-002  0.1250140E+03  0.7818608E-02  0.1235047E+00
         -4   -1    0    0    0  501 -0.00000000000E+00  0.00000000000E+00  0.13593045773E+02  0.13652244994E+02  0.12700000000E+01 0. -1.
          4   -1    0    0  501    0  0.00000000000E+00 -0.00000000000E+00 -0.28675038954E+03  0.28675320190E+03  0.12700000000E+01 0. -1.
         25    2    1    2    0    0  0.00000000000E+00  0.00000000000E+00 -0.27315734376E+03  0.30040544689E+03  0.12501399150E+03 0.  0.
    9000005    1    3    3    0    0  0.16522985225E+02  0.20511713648E+02 -0.38310198317E+00  0.26360694313E+02  0.10000000000E+01 0.  0.
    9000005    1    3    3    0    0 -0.16522985225E+02 -0.20511713648E+02 -0.27277424178E+03  0.27404475258E+03  0.10000000000E+01 0.  0.
<mgrwt>
<rscale>  0 0.12501399E+03</rscale>
<asrwt>0</asrwt>
<pdfrwt beam="2">  1        4 0.44120210E-01 0.12501399E+03</pdfrwt>
<pdfrwt beam="1">  1       -4 0.20960081E-02 0.12501399E+03</pdfrwt>
<totfact> 0.75524550E+03</totfact>
</mgrwt>
</event>
<event>
 5    1  0.3277540E-002  0.1249976E+03  0.7818608E-02  0.1235073E+00
          4   -1    0    0  501    0  0.00000000000E+00  0.00000000000E+00  0.17958319754E+03  0.17958768816E+03  0.12700000000E+01 0. -1.
         -4   -1    0    0    0  501 -0.00000000000E+00 -0.00000000000E+00 -0.21727628429E+02  0.21764713119E+02  0.12700000000E+01 0. -1.
         25    2    1    2    0    0  0.00000000000E+00  0.00000000000E+00  0.15785556911E+03  0.20135240127E+03  0.12499763518E+03 0.  0.
    9000005    1    3    3    0    0 -0.81213374188E+01  0.30439485414E+02  0.16586269915E+03  0.16883113861E+03  0.10000000000E+01 0.  0.
    9000005    1    3    3    0    0  0.81213374188E+01 -0.30439485414E+02 -0.80071300466E+01  0.32521262665E+02  0.10000000000E+01 0.  0.
<mgrwt>
<rscale>  0 0.12499764E+03</rscale>
<asrwt>0</asrwt>
<pdfrwt beam="1">  1        4 0.27631383E-01 0.12499764E+03</pdfrwt>
<pdfrwt beam="2">  1       -4 0.33459101E-02 0.12499764E+03</pdfrwt>
<totfact> 0.89912670E+03</totfact>
</mgrwt>
</event>
<event>
 5    1  0.3277540E-002  0.1249569E+03  0.7818608E-02  0.1235137E+00
          4   -1    0    0  501    0  0.00000000000E+00  0.00000000000E+00  0.87961200157E+01  0.88873295950E+01  0.12700000000E+01 0.  1.
         -4   -1    0    0    0  501 -0.00000000000E+00 -0.00000000000E+00 -0.44140078112E+03  0.44140260814E+03  0.12700000000E+01 0.  1.
         25    2    1    2    0    0  0.00000000000E+00  0.00000000000E+00 -0.43260466110E+03  0.45028993774E+03  0.12495693345E+03 0.  0.
    9000005    1    3    3    0    0 -0.36530247581E+02  0.20287567530E+02 -0.38364552950E+03  0.38591571190E+03  0.10000000000E+01 0.  0.
    9000005    1    3    3    0    0  0.36530247581E+02 -0.20287567530E+02 -0.48959131603E+02  0.64374225836E+02  0.10000000000E+01 0.  0.
<mgrwt>
<rscale>  0 0.12495693E+03</rscale>
<asrwt>0</asrwt>
<pdfrwt beam="1">  1        4 0.13604062E-02 0.12495693E+03</pdfrwt>
<pdfrwt beam="2">  1       -4 0.67914952E-01 0.12495693E+03</pdfrwt>
<totfact> 0.59995588E+03</totfact>
</mgrwt>
</event>
<event>
 5    1  0.3277540E-002  0.1249996E+03  0.7818608E-02  0.1235070E+00
          4   -1    0    0  501    0  0.00000000000E+00  0.00000000000E+00  0.10574248098E+03  0.10575010725E+03  0.12700000000E+01 0. -1.
         -4   -1    0    0    0  501 -0.00000000000E+00 -0.00000000000E+00 -0.36921068745E+02  0.36942904829E+02  0.12700000000E+01 0. -1.
         25    2    1    2    0    0  0.00000000000E+00  0.00000000000E+00  0.68821412233E+02  0.14269301208E+03  0.12499963566E+03 0.  0.
    9000005    1    3    3    0    0 -0.30242904051E+02  0.42888280399E+02 -0.43210641324E+01  0.52666017850E+02  0.10000000000E+01 0.  0.
    9000005    1    3    3    0    0  0.30242904051E+02 -0.42888280399E+02  0.73142476366E+02  0.90026994229E+02  0.10000000000E+01 0.  0.
<mgrwt>
<rscale>  0 0.12499964E+03</rscale>
<asrwt>0</asrwt>
<pdfrwt beam="1">  1        4 0.16270340E-01 0.12499964E+03</pdfrwt>
<pdfrwt beam="2">  1       -4 0.56824307E-02 0.12499964E+03</pdfrwt>
<totfact> 0.10078156E+04</totfact>
</mgrwt>
</event>
<event>
 5    1  0.3277540E-002  0.1250006E+03  0.7818608E-02  0.1235068E+00
         -4   -1    0    0    0  501 -0.00000000000E+00  0.00000000000E+00  0.15347358163E+03  0.15347883619E+03  0.12700000000E+01 0. -1.
          4   -1    0    0  501    0  0.00000000000E+00 -0.00000000000E+00 -0.25430952640E+02  0.25462644249E+02  0.12700000000E+01 0. -1.
         25    2    1    2    0    0  0.00000000000E+00  0.00000000000E+00  0.12804262899E+03  0.17894148044E+03  0.12500055433E+03 0.  0.
    9000005    1    3    3    0    0  0.39034266583E+02  0.40027029064E+02  0.24055142278E+02  0.60872710580E+02  0.10000000000E+01 0.  0.
    9000005    1    3    3    0    0 -0.39034266583E+02 -0.40027029064E+02  0.10398748671E+03  0.11806876986E+03  0.10000000000E+01 0.  0.
<mgrwt>
<rscale>  0 0.12500055E+03</rscale>
<asrwt>0</asrwt>
<pdfrwt beam="2">  1        4 0.39152963E-02 0.12500055E+03</pdfrwt>
<pdfrwt beam="1">  1       -4 0.23614162E-01 0.12500055E+03</pdfrwt>
<totfact> 0.93806722E+03</totfact>
</mgrwt>
</event>
<event>
 5    1  0.3277540E-002  0.1249972E+03  0.7818608E-02  0.1235074E+00
         -4   -1    0    0    0  501 -0.00000000000E+00  0.00000000000E+00  0.52693704360E+01  0.54202550486E+01  0.12700000000E+01 0.  1.
          4   -1    0    0  501    0  0.00000000000E+00 -0.00000000000E+00 -0.73066497276E+03  0.73066607648E+03  0.12700000000E+01 0.  1.
         25    2    1    2    0    0  0.00000000000E+00  0.00000000000E+00 -0.72539560232E+03  0.73608633153E+03  0.12499723034E+03 0.  0.
    9000005    1    3    3    0    0 -0.13893874587E+02 -0.56512368298E+02 -0.49677545738E+03  0.50017351247E+03  0.10000000000E+01 0.  0.
    9000005    1    3    3    0    0  0.13893874587E+02  0.56512368298E+02 -0.22862014494E+03  0.23591281905E+03  0.10000000000E+01 0.  0.
<mgrwt>
<rscale>  0 0.12499723E+03</rscale>
<asrwt>0</asrwt>
<pdfrwt beam="2">  1        4 0.11242161E+00 0.12499723E+03</pdfrwt>
<pdfrwt beam="1">  1       -4 0.82236436E-03 0.12499723E+03</pdfrwt>
<totfact> 0.41251157E+03</totfact>
</mgrwt>
</event>
<event>
 5    1  0.3277540E-002  0.1250019E+03  0.7818608E-02  0.1235066E+00
          4   -1    0    0  501    0  0.00000000000E+00  0.00000000000E+00  0.67635433403E+02  0.67647355836E+02  0.12700000000E+01 0. -1.
         -4   -1    0    0    0  501 -0.00000000000E+00 -0.00000000000E+00 -0.57732294591E+02  0.57746261686E+02  0.12700000000E+01 0. -1.
         25    2    1    2    0    0  0.00000000000E+00  0.00000000000E+00  0.99031388119E+01  0.12539361752E+03  0.12500194861E+03 0.  0.
    9000005    1    3    3    0    0  0.33922926304E+02  0.10936088806E+02  0.56444746142E+02  0.66763555436E+02  0.10000000000E+01 0.  0.
    9000005    1    3    3    0    0 -0.33922926304E+02 -0.10936088806E+02 -0.46541607330E+02  0.58630062086E+02  0.10000000000E+01 0.  0.
<mgrwt>
<rscale>  0 0.12500195E+03</rscale>
<asrwt>0</asrwt>
<pdfrwt beam="1">  1        4 0.10407443E-01 0.12500195E+03</pdfrwt>
<pdfrwt beam="2">  1       -4 0.88838829E-02 0.12500195E+03</pdfrwt>
<totfact> 0.10443849E+04</totfact>
</mgrwt>
</event>
<event>
 5    1  0.3277540E-002  0.1249998E+03  0.7818608E-02  0.1235070E+00
          4   -1    0    0  501    0  0.00000000000E+00  0.00000000000E+00  0.10900154372E+04  0.10900161770E+04  0.12700000000E+01 0. -1.
         -4   -1    0    0    0  501 -0.00000000000E+00 -0.00000000000E+00 -0.34703698424E+01  0.36954521839E+01  0.12700000000E+01 0. -1.
         25    2    1    2    0    0  0.00000000000E+00  0.00000000000E+00  0.10865450674E+04  0.10937116292E+04  0.12499977810E+03 0.  0.
    9000005    1    3    3    0    0  0.90900389049E+01 -0.61820544845E+02  0.53531289913E+03  0.53894833569E+03  0.10000000000E+01 0.  0.
    9000005    1    3    3    0    0 -0.90900389049E+01  0.61820544845E+02  0.55123216822E+03  0.55476329354E+03  0.10000000000E+01 0.  0.
<mgrwt>
<rscale>  0 0.12499978E+03</rscale>
<asrwt>0</asrwt>
<pdfrwt beam="1">  1        4 0.16771214E+00 0.12499978E+03</pdfrwt>
<pdfrwt beam="2">  1       -4 0.55127370E-03 0.12499978E+03</pdfrwt>
<totfact> 0.27668277E+03</totfact>
</mgrwt>
</event>
<event>
 5    1  0.3277540E-002  0.1250059E+03  0.7818608E-02  0.1235060E+00
          4   -1    0    0  501    0  0.00000000000E+00  0.00000000000E+00  0.70490420740E+01  0.71625340600E+01  0.12700000000E+01 0.  1.
         -4   -1    0    0    0  501 -0.00000000000E+00 -0.00000000000E+00 -0.54966528704E+03  0.54966675421E+03  0.12700000000E+01 0.  1.
         25    2    1    2    0    0  0.00000000000E+00  0.00000000000E+00 -0.54261624497E+03  0.55682928827E+03  0.12500586773E+03 0.  0.
    9000005    1    3    3    0    0 -0.21264126937E+02 -0.38607666014E+02 -0.46865986021E+03  0.47072898736E+03  0.10000000000E+01 0.  0.
    9000005    1    3    3    0    0  0.21264126937E+02  0.38607666014E+02 -0.73956384759E+02  0.86100300906E+02  0.10000000000E+01 0.  0.
<mgrwt>
<rscale>  0 0.12500587E+03</rscale>
<asrwt>0</asrwt>
<pdfrwt beam="1">  1        4 0.10933115E-02 0.12500587E+03</pdfrwt>
<pdfrwt beam="2">  1       -4 0.84572700E-01 0.12500587E+03</pdfrwt>
<totfact> 0.51704570E+03</totfact>
</mgrwt>
</event>
<event>
 5    1  0.3277540E-002  0.1249978E+03  0.7818608E-02  0.1235073E+00
         -4   -1    0    0    0  501 -0.00000000000E+00  0.00000000000E+00  0.67336731699E+02  0.67348707009E+02  0.12700000000E+01 0. -1.
          4   -1    0    0  501    0  0.00000000000E+00 -0.00000000000E+00 -0.57984585026E+02  0.57998491365E+02  0.12700000000E+01 0. -1.
         25    2    1    2    0    0  0.00000000000E+00  0.00000000000E+00  0.93521466729E+01  0.12534719837E+03  0.12499782995E+03 0.  0.
    9000005    1    3    3    0    0  0.69049196732E+00  0.49540755507E+01 -0.57788434494E+02  0.58013126144E+02  0.10000000000E+01 0.  0.
    9000005    1    3    3    0    0 -0.69049196732E+00 -0.49540755507E+01  0.67140581167E+02  0.67334072230E+02  0.10000000000E+01 0.  0.
<mgrwt>
<rscale>  0 0.12499783E+03</rscale>
<asrwt>0</asrwt>
<pdfrwt beam="2">  1        4 0.89226963E-02 0.12499783E+03</pdfrwt>
<pdfrwt beam="1">  1       -4 0.10361488E-01 0.12499783E+03</pdfrwt>
<totfact> 0.10445838E+04</totfact>
</mgrwt>
</event>
<event>
 5    1  0.3277540E-002  0.1249993E+03  0.7818608E-02  0.1235070E+00
         -4   -1    0    0    0  501 -0.00000000000E+00  0.00000000000E+00  0.31899813112E+02  0.31925083815E+02  0.12700000000E+01 0.  1.
          4   -1    0    0  501    0  0.00000000000E+00 -0.00000000000E+00 -0.12237518299E+03  0.12238177279E+03  0.12700000000E+01 0.  1.
         25    2    1    2    0    0  0.00000000000E+00  0.00000000000E+00 -0.90475369879E+02  0.15430685661E+03  0.12499925376E+03 0.  0.
    9000005    1    3    3    0    0  0.14729784031E+02  0.19875339031E+02 -0.11607912265E+03  0.11869017800E+03  0.10000000000E+01 0.  0.
    9000005    1    3    3    0    0 -0.14729784031E+02 -0.19875339031E+02  0.25603752768E+02  0.35616678607E+02  0.10000000000E+01 0.  0.
<mgrwt>
<rscale>  0 0.12499925E+03</rscale>
<asrwt>0</asrwt>
<pdfrwt beam="2">  1        4 0.18829402E-01 0.12499925E+03</pdfrwt>
<pdfrwt beam="1">  1       -4 0.49101144E-02 0.12499925E+03</pdfrwt>
<totfact> 0.98453396E+03</totfact>
</mgrwt>
</event>
<event>
 5    1  0.3277540E-002  0.1249981E+03  0.7818608E-02  0.1235072E+00
          4   -1    0    0  501    0  0.00000000000E+00  0.00000000000E+00  0.46692828270E+02  0.46710096466E+02  0.12700000000E+01 0.  1.
         -4   -1    0    0    0  501 -0.00000000000E+00 -0.00000000000E+00 -0.83618417239E+02  0.83628061089E+02  0.12700000000E+01 0.  1.
         25    2    1    2    0    0  0.00000000000E+00  0.00000000000E+00 -0.36925588968E+02  0.13033815756E+03  0.12499814476E+03 0.  0.
    9000005    1    3    3    0    0  0.39893100592E+02 -0.37412858717E+02 -0.49985961362E+02  0.74099782763E+02  0.10000000000E+01 0.  0.
    9000005    1    3    3    0    0 -0.39893100592E+02  0.37412858717E+02  0.13060372394E+02  0.56238374792E+02  0.10000000000E+01 0.  0.
<mgrwt>
<rscale>  0 0.12499814E+03</rscale>
<asrwt>0</asrwt>
<pdfrwt beam="1">  1        4 0.71855822E-02 0.12499814E+03</pdfrwt>
<pdfrwt beam="2">  1       -4 0.12866442E-01 0.12499814E+03</pdfrwt>
<totfact> 0.10337712E+04</totfact>
</mgrwt>
</event>
<event>
 5    1  0.3277540E-002  0.1249989E+03  0.7818608E-02  0.1235071E+00
          4   -1    0    0  501    0  0.00000000000E+00  0.00000000000E+00  0.44561847739E+02  0.44579941385E+02  0.12700000000E+01 0. -1.
         -4   -1    0    0    0  501 -0.00000000000E+00 -0.00000000000E+00 -0.87617027345E+02  0.87626231122E+02  0.12700000000E+01 0. -1.
         25    2    1    2    0    0  0.00000000000E+00  0.00000000000E+00 -0.43055179606E+02  0.13220617251E+03  0.12499889423E+03 0.  0.
    9000005    1    3    3    0    0  0.53196274394E+02 -0.78044292745E+01 -0.55214114594E+02  0.77073673690E+02  0.10000000000E+01 0.  0.
    9000005    1    3    3    0    0 -0.53196274394E+02  0.78044292745E+01  0.12158934988E+02  0.55132498817E+02  0.10000000000E+01 0.  0.
<mgrwt>
<rscale>  0 0.12499889E+03</rscale>
<asrwt>0</asrwt>
<pdfrwt beam="1">  1        4 0.68577687E-02 0.12499889E+03</pdfrwt>
<pdfrwt beam="2">  1       -4 0.13481642E-01 0.12499889E+03</pdfrwt>
<totfact> 0.10297557E+04</totfact>
</mgrwt>
</event>
<event>
 5    1  0.3277540E-002  0.1250005E+03  0.7818608E-02  0.1235069E+00
          4   -1    0    0  501    0  0.00000000000E+00  0.00000000000E+00  0.67955948612E+02  0.67967814822E+02  0.12700000000E+01 0.  1.
         -4   -1    0    0    0  501 -0.00000000000E+00 -0.00000000000E+00 -0.57458636282E+02  0.57472669882E+02  0.12700000000E+01 0.  1.
         25    2    1    2    0    0  0.00000000000E+00  0.00000000000E+00  0.10497312330E+02  0.12544048470E+03  0.12500048655E+03 0.  0.
    9000005    1    3    3    0    0 -0.51734746307E+02 -0.18908629013E+02 -0.24372360020E+02  0.60241448850E+02  0.10000000000E+01 0.  0.
    9000005    1    3    3    0    0  0.51734746307E+02  0.18908629013E+02  0.34869672350E+02  0.65199035855E+02  0.10000000000E+01 0.  0.
<mgrwt>
<rscale>  0 0.12500049E+03</rscale>
<asrwt>0</asrwt>
<pdfrwt beam="1">  1        4 0.10456754E-01 0.12500049E+03</pdfrwt>
<pdfrwt beam="2">  1       -4 0.88417825E-02 0.12500049E+03</pdfrwt>
<totfact> 0.10443156E+04</totfact>
</mgrwt>
</event>
<event>
 5    1  0.3277540E-002  0.1249989E+03  0.7818608E-02  0.1235071E+00
         -4   -1    0    0    0  501 -0.00000000000E+00  0.00000000000E+00  0.45508750621E+01  0.47247607168E+01  0.12700000000E+01 0. -1.
          4   -1    0    0  501    0  0.00000000000E+00 -0.00000000000E+00 -0.84207126623E+03  0.84207222393E+03  0.12700000000E+01 0. -1.
         25    2    1    2    0    0  0.00000000000E+00  0.00000000000E+00 -0.83752039117E+03  0.84679698464E+03  0.12499891032E+03 0.  0.
    9000005    1    3    3    0    0 -0.54698116596E+02  0.30074860557E+02 -0.39866317636E+03  0.40352163435E+03  0.10000000000E+01 0.  0.
    9000005    1    3    3    0    0  0.54698116596E+02 -0.30074860557E+02 -0.43885721480E+03  0.44327535030E+03  0.10000000000E+01 0.  0.
<mgrwt>
<rscale>  0 0.12499891E+03</rscale>
<asrwt>0</asrwt>
<pdfrwt beam="2">  1        4 0.12956275E+00 0.12499891E+03</pdfrwt>
<pdfrwt beam="1">  1       -4 0.71358478E-03 0.12499891E+03</pdfrwt>
<totfact> 0.36259647E+03</totfact>
</mgrwt>
</event>
<event>
 5    1  0.3277540E-002  0.1250005E+03  0.7818608E-02  0.1235068E+00
         -4   -1    0    0    0  501 -0.00000000000E+00  0.00000000000E+00  0.20164996648E+01  0.23831011095E+01  0.12700000000E+01 0. -1.
          4   -1    0    0  501    0  0.00000000000E+00 -0.00000000000E+00 -0.17753773388E+04  0.17753777930E+04  0.12700000000E+01 0. -1.
         25    2    1    2    0    0  0.00000000000E+00  0.00000000000E+00 -0.17733608391E+04  0.17777608941E+04  0.12500052397E+03 0.  0.
    9000005    1    3    3    0    0 -0.39482276724E+01 -0.57941923536E+02 -0.12148451127E+04  0.12162329147E+04  0.10000000000E+01 0.  0.
    9000005    1    3    3    0    0  0.39482276724E+01  0.57941923536E+02 -0.55851572644E+03  0.56152797943E+03  0.10000000000E+01 0.  0.
<mgrwt>
<rscale>  0 0.12500052E+03</rscale>
<asrwt>0</asrwt>
<pdfrwt beam="2">  1        4 0.27316206E+00 0.12500052E+03</pdfrwt>
<pdfrwt beam="1">  1       -4 0.33846719E-03 0.12500052E+03</pdfrwt>
<totfact> 0.13049215E+03</totfact>
</mgrwt>
</event>
<event>
 5    1  0.3277540E-002  0.1250032E+03  0.7818608E-02  0.1235064E+00
          4   -1    0    0  501    0  0.00000000000E+00  0.00000000000E+00  0.53780325077E+02  0.53795318248E+02  0.12700000000E+01 0. -1.
         -4   -1    0    0    0  501 -0.00000000000E+00 -0.00000000000E+00 -0.72606543863E+02  0.72617650139E+02  0.12700000000E+01 0. -1.
         25    2    1    2    0    0  0.00000000000E+00  0.00000000000E+00 -0.18826218786E+02  0.12641296839E+03  0.12500324821E+03 0.  0.
    9000005    1    3    3    0    0  0.60802710354E+02  0.92502004315E+01  0.17987256114E+01  0.61536746812E+02  0.10000000000E+01 0.  0.
    9000005    1    3    3    0    0 -0.60802710354E+02 -0.92502004315E+01 -0.20624944397E+02  0.64876221574E+02  0.10000000000E+01 0.  0.
<mgrwt>
<rscale>  0 0.12500325E+03</rscale>
<asrwt>0</asrwt>
<pdfrwt beam="1">  1        4 0.82759038E-02 0.12500325E+03</pdfrwt>
<pdfrwt beam="2">  1       -4 0.11172245E-01 0.12500325E+03</pdfrwt>
<totfact> 0.10421163E+04</totfact>
</mgrwt>
</event>
<event>
 4    1  0.3277540E-002  0.1269987E+03  0.7818608E-02  0.1231978E+00
          4   -1    0    0  501    0  0.00000000000E+00  0.00000000000E+00  0.46826941744E+02  0.46844160501E+02  0.12700000000E+01 0. -1.
         -4   -1    0    0    0  501 -0.00000000000E+00 -0.00000000000E+00 -0.86070144527E+02  0.86079513701E+02  0.12700000000E+01 0. -1.
    9000005    1    1    2    0    0  0.59707835771E+02  0.17859959116E+02 -0.69244905038E+01  0.62713255065E+02  0.10000000000E+01 0.  0.
    9000005    1    1    2    0    0 -0.59707835771E+02 -0.17859959116E+02 -0.32318712280E+02  0.70210419138E+02  0.10000000000E+01 0.  0.
<mgrwt>
<rscale>  0 0.12699872E+03</rscale>
<asrwt>0</asrwt>
<pdfrwt beam="1">  1        4 0.72061901E-02 0.12699872E+03</pdfrwt>
<pdfrwt beam="2">  1       -4 0.13243606E-01 0.12699872E+03</pdfrwt>
<totfact> 0.98318653E+03</totfact>
</mgrwt>
</event>
<event>
 5    1  0.3277540E-002  0.1250003E+03  0.7818608E-02  0.1235069E+00
          4   -1    0    0  501    0  0.00000000000E+00  0.00000000000E+00  0.19581027113E+03  0.19581438962E+03  0.12700000000E+01 0. -1.
         -4   -1    0    0    0  501 -0.00000000000E+00 -0.00000000000E+00 -0.19924701491E+02  0.19965135349E+02  0.12700000000E+01 0. -1.
         25    2    1    2    0    0  0.00000000000E+00  0.00000000000E+00  0.17588556964E+03  0.21577952497E+03  0.12500027915E+03 0.  0.
    9000005    1    3    3    0    0  0.62403567683E+02 -0.31549761119E+01  0.89760100641E+02  0.10937108759E+03  0.10000000000E+01 0.  0.
    9000005    1    3    3    0    0 -0.62403567683E+02  0.31549761119E+01  0.86125469001E+02  0.10640843737E+03  0.10000000000E+01 0.  0.
<mgrwt>
<rscale>  0 0.12500028E+03</rscale>
<asrwt>0</asrwt>
<pdfrwt beam="1">  1        4 0.30128085E-01 0.12500028E+03</pdfrwt>
<pdfrwt beam="2">  1       -4 0.30687657E-02 0.12500028E+03</pdfrwt>
<totfact> 0.87540075E+03</totfact>
</mgrwt>
</event>
<event>
 5    1  0.3277540E-002  0.1250036E+03  0.7818608E-02  0.1235064E+00
          4   -1    0    0  501    0  0.00000000000E+00  0.00000000000E+00  0.48494786368E+02  0.48511413140E+02  0.12700000000E+01 0. -1.
         -4   -1    0    0    0  501 -0.00000000000E+00 -0.00000000000E+00 -0.80519078964E+02  0.80529093980E+02  0.12700000000E+01 0. -1.
         25    2    1    2    0    0  0.00000000000E+00  0.00000000000E+00 -0.32024292596E+02  0.12904050712E+03  0.12500358859E+03 0.  0.
    9000005    1    3    3    0    0  0.29961340596E+02 -0.26623395102E+02 -0.65508346113E+02  0.76803844354E+02  0.10000000000E+01 0.  0.
    9000005    1    3    3    0    0 -0.29961340596E+02  0.26623395102E+02  0.33484053517E+02  0.52236662767E+02  0.10000000000E+01 0.  0.
<mgrwt>
<rscale>  0 0.12500359E+03</rscale>
<asrwt>0</asrwt>
<pdfrwt beam="1">  1        4 0.74627857E-02 0.12500359E+03</pdfrwt>
<pdfrwt beam="2">  1       -4 0.12389600E-01 0.12500359E+03</pdfrwt>
<totfact> 0.10364237E+04</totfact>
</mgrwt>
</event>
<event>
 5    1  0.3277540E-002  0.1249945E+03  0.7818608E-02  0.1235078E+00
         -4   -1    0    0    0  501 -0.00000000000E+00  0.00000000000E+00  0.21578753578E+02  0.21616093680E+02  0.12700000000E+01 0. -1.
          4   -1    0    0  501    0  0.00000000000E+00 -0.00000000000E+00 -0.18081113686E+03  0.18081559699E+03  0.12700000000E+01 0. -1.
         25    2    1    2    0    0  0.00000000000E+00  0.00000000000E+00 -0.15923238328E+03  0.20243169067E+03  0.12499454988E+03 0.  0.
    9000005    1    3    3    0    0 -0.46122055027E+01  0.58615446140E+02 -0.45342438005E+02  0.74256175838E+02  0.10000000000E+01 0.  0.
    9000005    1    3    3    0    0  0.46122055027E+01 -0.58615446140E+02 -0.11388994528E+03  0.12817551483E+03  0.10000000000E+01 0.  0.
<mgrwt>
<rscale>  0 0.12499455E+03</rscale>
<asrwt>0</asrwt>
<pdfrwt beam="2">  1        4 0.27820312E-01 0.12499455E+03</pdfrwt>
<pdfrwt beam="1">  1       -4 0.33230238E-02 0.12499455E+03</pdfrwt>
<totfact> 0.89737939E+03</totfact>
</mgrwt>
</event>
<event>
 5    1  0.3277540E-002  0.1250004E+03  0.7818608E-02  0.1235069E+00
         -4   -1    0    0    0  501 -0.00000000000E+00  0.00000000000E+00  0.11188179356E+02  0.11260029188E+02  0.12700000000E+01 0. -1.
          4   -1    0    0  501    0  0.00000000000E+00 -0.00000000000E+00 -0.34795271269E+03  0.34795503038E+03  0.12700000000E+01 0. -1.
         25    2    1    2    0    0  0.00000000000E+00  0.00000000000E+00 -0.33676453333E+03  0.35921505957E+03  0.12500043244E+03 0.  0.
    9000005    1    3    3    0    0  0.92501995815E+01  0.34950058731E+01  0.89397797878E+01  0.13367906381E+02  0.10000000000E+01 0.  0.
    9000005    1    3    3    0    0 -0.92501995815E+01 -0.34950058731E+01 -0.34570431312E+03  0.34584715319E+03  0.10000000000E+01 0.  0.
<mgrwt>
<rscale>  0 0.12500043E+03</rscale>
<asrwt>0</asrwt>
<pdfrwt beam="2">  1        4 0.53536884E-01 0.12500043E+03</pdfrwt>
<pdfrwt beam="1">  1       -4 0.17269638E-02 0.12500043E+03</pdfrwt>
<totfact> 0.68721890E+03</totfact>
</mgrwt>
</event>
<event>
 5    1  0.3277540E-002  0.1250074E+03  0.7818608E-02  0.1235058E+00
         -4   -1    0    0    0  501 -0.00000000000E+00  0.00000000000E+00  0.29180937119E+03  0.29181213480E+03  0.12700000000E+01 0.  1.
          4   -1    0    0  501    0  0.00000000000E+00 -0.00000000000E+00 -0.13354944294E+02  0.13415194262E+02  0.12700000000E+01 0.  1.
         25    2    1    2    0    0  0.00000000000E+00  0.00000000000E+00  0.27845442690E+03  0.30522732906E+03  0.12500741796E+03 0.  0.
    9000005    1    3    3    0    0  0.31719809841E+02 -0.10710430985E+02  0.10375901524E+02  0.35064497724E+02  0.10000000000E+01 0.  0.
    9000005    1    3    3    0    0 -0.31719809841E+02  0.10710430985E+02  0.26807852537E+03  0.27016283133E+03  0.10000000000E+01 0.  0.
<mgrwt>
<rscale>  0 0.12500742E+03</rscale>
<asrwt>0</asrwt>
<pdfrwt beam="2">  1        4 0.20594541E-02 0.12500742E+03</pdfrwt>
<pdfrwt beam="1">  1       -4 0.44898594E-01 0.12500742E+03</pdfrwt>
<totfact> 0.74935440E+03</totfact>
</mgrwt>
</event>
<event>
 5    1  0.3277540E-002  0.1249992E+03  0.7818608E-02  0.1235070E+00
         -4   -1    0    0    0  501 -0.00000000000E+00  0.00000000000E+00  0.83387033677E+01  0.84348606305E+01  0.12700000000E+01 0. -1.
          4   -1    0    0  501    0  0.00000000000E+00 -0.00000000000E+00 -0.46565997043E+03  0.46566170227E+03  0.12700000000E+01 0. -1.
         25    2    1    2    0    0  0.00000000000E+00  0.00000000000E+00 -0.45732126706E+03  0.47409656290E+03  0.12499923858E+03 0.  0.
    9000005    1    3    3    0    0 -0.40641706036E+02  0.47043169066E+02 -0.20455492249E+03  0.21379551992E+03  0.10000000000E+01 0.  0.
    9000005    1    3    3    0    0  0.40641706036E+02 -0.47043169066E+02 -0.25276634457E+03  0.26030104298E+03  0.10000000000E+01 0.  0.
<mgrwt>
<rscale>  0 0.12499924E+03</rscale>
<asrwt>0</asrwt>
<pdfrwt beam="2">  1        4 0.71647505E-01 0.12499924E+03</pdfrwt>
<pdfrwt beam="1">  1       -4 0.12904077E-02 0.12499924E+03</pdfrwt>
<totfact> 0.57932679E+03</totfact>
</mgrwt>
</event>
<event>
 5    1  0.3277540E-002  0.1249844E+03  0.7818608E-02  0.1235094E+00
         -4   -1    0    0    0  501 -0.00000000000E+00  0.00000000000E+00  0.27532999441E+03  0.27533292342E+03  0.12700000000E+01 0.  1.
          4   -1    0    0  501    0  0.00000000000E+00 -0.00000000000E+00 -0.14152547299E+02  0.14209415718E+02  0.12700000000E+01 0.  1.
         25    2    1    2    0    0  0.00000000000E+00  0.00000000000E+00  0.26117744711E+03  0.28954233914E+03  0.12498442814E+03 0.  0.
    9000005    1    3    3    0    0 -0.19817764613E+02 -0.44017049550E+02  0.22249877336E+03  0.22767729046E+03  0.10000000000E+01 0.  0.
    9000005    1    3    3    0    0  0.19817764613E+02  0.44017049550E+02  0.38678673754E+02  0.61865048684E+02  0.10000000000E+01 0.  0.
<mgrwt>
<rscale>  0 0.12498443E+03</rscale>
<asrwt>0</asrwt>
<pdfrwt beam="2">  1        4 0.21819146E-02 0.12498443E+03</pdfrwt>
<pdfrwt beam="1">  1       -4 0.42363063E-01 0.12498443E+03</pdfrwt>
<totfact> 0.76956250E+03</totfact>
</mgrwt>
</event>
<event>
 5    1  0.3277540E-002  0.1249943E+03  0.7818608E-02  0.1235078E+00
         -4   -1    0    0    0  501 -0.00000000000E+00  0.00000000000E+00  0.13533798419E+04  0.13533804378E+04  0.12700000000E+01 0. -1.
          4   -1    0    0  501    0  0.00000000000E+00 -0.00000000000E+00 -0.27456859647E+01  0.30251762621E+01  0.12700000000E+01 0. -1.
         25    2    1    2    0    0  0.00000000000E+00  0.00000000000E+00  0.13506341559E+04  0.13564056140E+04  0.12499426635E+03 0.  0.
    9000005    1    3    3    0    0 -0.16424040359E+02 -0.47991613177E+02  0.10713607327E+04  0.10725613100E+04  0.10000000000E+01 0.  0.
    9000005    1    3    3    0    0  0.16424040359E+02  0.47991613177E+02  0.27927342322E+03  0.28384430407E+03  0.10000000000E+01 0.  0.
<mgrwt>
<rscale>  0 0.12499427E+03</rscale>
<asrwt>0</asrwt>
<pdfrwt beam="2">  1        4 0.44396000E-03 0.12499427E+03</pdfrwt>
<pdfrwt beam="1">  1       -4 0.20823304E+00 0.12499427E+03</pdfrwt>
<totfact> 0.20937768E+03</totfact>
</mgrwt>
</event>
<event>
 5    1  0.3277540E-002  0.1249980E+03  0.7818608E-02  0.1235072E+00
         -4   -1    0    0    0  501 -0.00000000000E+00  0.00000000000E+00  0.52584987061E+02  0.52600320952E+02  0.12700000000E+01 0. -1.
          4   -1    0    0  501    0  0.00000000000E+00 -0.00000000000E+00 -0.74250524792E+02  0.74261385201E+02  0.12700000000E+01 0. -1.
         25    2    1    2    0    0  0.00000000000E+00  0.00000000000E+00 -0.21665537731E+02  0.12686170615E+03  0.12499798783E+03 0.  0.
    9000005    1    3    3    0    0 -0.29670422391E+02  0.27611397198E+02  0.37441123740E+02  0.55186601336E+02  0.10000000000E+01 0.  0.
    9000005    1    3    3    0    0  0.29670422391E+02 -0.27611397198E+02 -0.59106661472E+02  0.71675104816E+02  0.10000000000E+01 0.  0.
<mgrwt>
<rscale>  0 0.12499799E+03</rscale>
<asrwt>0</asrwt>
<pdfrwt beam="2">  1        4 0.11425173E-01 0.12499799E+03</pdfrwt>
<pdfrwt beam="1">  1       -4 0.80920130E-02 0.12499799E+03</pdfrwt>
<totfact> 0.10412625E+04</totfact>
</mgrwt>
</event>
<event>
 5    1  0.3277540E-002  0.1250001E+03  0.7818608E-02  0.1235069E+00
         -4   -1    0    0    0  501 -0.00000000000E+00  0.00000000000E+00  0.38314308637E+01  0.40364294201E+01  0.12700000000E+01 0. -1.
          4   -1    0    0  501    0  0.00000000000E+00 -0.00000000000E+00 -0.99276043606E+03  0.99276124839E+03  0.12700000000E+01 0. -1.
         25    2    1    2    0    0  0.00000000000E+00  0.00000000000E+00 -0.98892900520E+03  0.99679767781E+03  0.12500013268E+03 0.  0.
    9000005    1    3    3    0    0  0.12327009500E+02 -0.54858348358E+02 -0.71195662510E+03  0.71417408913E+03  0.10000000000E+01 0.  0.
    9000005    1    3    3    0    0 -0.12327009500E+02  0.54858348358E+02 -0.27697238010E+03  0.28262358869E+03  0.10000000000E+01 0.  0.
<mgrwt>
<rscale>  0 0.12500013E+03</rscale>
<asrwt>0</asrwt>
<pdfrwt beam="2">  1        4 0.15274801E+00 0.12500013E+03</pdfrwt>
<pdfrwt beam="1">  1       -4 0.60528330E-03 0.12500013E+03</pdfrwt>
<totfact> 0.30710405E+03</totfact>
</mgrwt>
</event>
<event>
 5    1  0.3277540E-002  0.1250013E+03  0.7818608E-02  0.1235067E+00
         -4   -1    0    0    0  501 -0.00000000000E+00  0.00000000000E+00  0.70462549393E+01  0.71597911052E+01  0.12700000000E+01 0. -1.
          4   -1    0    0  501    0  0.00000000000E+00 -0.00000000000E+00 -0.54983914164E+03  0.54984060834E+03  0.12700000000E+01 0. -1.
         25    2    1    2    0    0  0.00000000000E+00  0.00000000000E+00 -0.54279288670E+03  0.55700039944E+03  0.12500130851E+03 0.  0.
    9000005    1    3    3    0    0 -0.17981522014E+02 -0.51284617024E+02 -0.13391846988E+03  0.14452890248E+03  0.10000000000E+01 0.  0.
    9000005    1    3    3    0    0  0.17981522014E+02  0.51284617024E+02 -0.40887441682E+03  0.41247149697E+03  0.10000000000E+01 0.  0.
<mgrwt>
<rscale>  0 0.12500131E+03</rscale>
<asrwt>0</asrwt>
<pdfrwt beam="2">  1        4 0.84599450E-01 0.12500131E+03</pdfrwt>
<pdfrwt beam="1">  1       -4 0.10928860E-02 0.12500131E+03</pdfrwt>
<totfact> 0.51697986E+03</totfact>
</mgrwt>
</event>
<event>
 5    1  0.3277540E-002  0.1249986E+03  0.7818608E-02  0.1235071E+00
          4   -1    0    0  501    0  0.00000000000E+00  0.00000000000E+00  0.48016766700E+03  0.48016934652E+03  0.12700000000E+01 0.  1.
         -4   -1    0    0    0  501 -0.00000000000E+00 -0.00000000000E+00 -0.80837284180E+01  0.81828824466E+01  0.12700000000E+01 0.  1.
         25    2    1    2    0    0  0.00000000000E+00  0.00000000000E+00  0.47208393858E+03  0.48835222896E+03  0.12499861785E+03 0.  0.
    9000005    1    3    3    0    0  0.50481501198E+02 -0.24484412288E+01  0.92452904956E+02  0.10537037754E+03  0.10000000000E+01 0.  0.
    9000005    1    3    3    0    0 -0.50481501198E+02  0.24484412288E+01  0.37963103363E+03  0.38298185143E+03  0.10000000000E+01 0.  0.
<mgrwt>
<rscale>  0 0.12499862E+03</rscale>
<asrwt>0</asrwt>
<pdfrwt beam="1">  1        4 0.73879727E-01 0.12499862E+03</pdfrwt>
<pdfrwt beam="2">  1       -4 0.12514066E-02 0.12499862E+03</pdfrwt>
<totfact> 0.56781266E+03</totfact>
</mgrwt>
</event>
<event>
 5    1  0.3277540E-002  0.1250017E+03  0.7818608E-02  0.1235067E+00
         -4   -1    0    0    0  501 -0.00000000000E+00  0.00000000000E+00  0.11275202573E+03  0.11275917792E+03  0.12700000000E+01 0. -1.
          4   -1    0    0  501    0  0.00000000000E+00 -0.00000000000E+00 -0.34625686421E+02  0.34648969107E+02  0.12700000000E+01 0. -1.
         25    2    1    2    0    0  0.00000000000E+00  0.00000000000E+00  0.78126339309E+02  0.14740814703E+03  0.12500174766E+03 0.  0.
    9000005    1    3    3    0    0  0.55248223397E+01  0.15717423797E+02  0.11009074017E+03  0.11134869619E+03  0.10000000000E+01 0.  0.
    9000005    1    3    3    0    0 -0.55248223397E+01 -0.15717423797E+02 -0.31964400859E+02  0.36059450841E+02  0.10000000000E+01 0.  0.
<mgrwt>
<rscale>  0 0.12500175E+03</rscale>
<asrwt>0</asrwt>
<pdfrwt beam="2">  1        4 0.53293698E-02 0.12500175E+03</pdfrwt>
<pdfrwt beam="1">  1       -4 0.17348807E-01 0.12500175E+03</pdfrwt>
<totfact> 0.99818949E+03</totfact>
</mgrwt>
</event>
<event>
 5    1  0.3277540E-002  0.1250020E+03  0.7818608E-02  0.1235066E+00
          4   -1    0    0  501    0  0.00000000000E+00  0.00000000000E+00  0.10217790180E+03  0.10218579410E+03  0.12700000000E+01 0.  1.
         -4   -1    0    0    0  501 -0.00000000000E+00 -0.00000000000E+00 -0.38211170580E+02  0.38232269839E+02  0.12700000000E+01 0.  1.
         25    2    1    2    0    0  0.00000000000E+00  0.00000000000E+00  0.63966731222E+02  0.14041806394E+03  0.12500195990E+03 0.  0.
    9000005    1    3    3    0    0 -0.15551477924E+02 -0.49325757288E+02 -0.74211374738E+01  0.52258512024E+02  0.10000000000E+01 0.  0.
    9000005    1    3    3    0    0  0.15551477924E+02  0.49325757288E+02  0.71387868696E+02  0.88159551919E+02  0.10000000000E+01 0.  0.
<mgrwt>
<rscale>  0 0.12500196E+03</rscale>
<asrwt>0</asrwt>
<pdfrwt beam="1">  1        4 0.15721907E-01 0.12500196E+03</pdfrwt>
<pdfrwt beam="2">  1       -4 0.58808718E-02 0.12500196E+03</pdfrwt>
<totfact> 0.10124482E+04</totfact>
</mgrwt>
</event>
<event>
 4    1  0.3277540E-002  0.1252280E+03  0.7818608E-02  0.1234713E+00
         -4   -1    0    0    0  501 -0.00000000000E+00  0.00000000000E+00  0.51957403880E+03  0.51957559093E+03  0.12700000000E+01 0.  1.
          4   -1    0    0  501    0  0.00000000000E+00 -0.00000000000E+00 -0.74906183334E+01  0.75975168981E+01  0.12700000000E+01 0.  1.
    9000005    1    1    2    0    0 -0.47098113673E+02 -0.14008577702E+02  0.92726746441E+02  0.10494628181E+03  0.10000000000E+01 0.  0.
    9000005    1    1    2    0    0  0.47098113673E+02  0.14008577702E+02  0.41935667403E+03  0.42222682602E+03  0.10000000000E+01 0.  0.
<mgrwt>
<rscale>  0 0.12522802E+03</rscale>
<asrwt>0</asrwt>
<pdfrwt beam="2">  1        4 0.11607449E-02 0.12522802E+03</pdfrwt>
<pdfrwt beam="1">  1       -4 0.79942828E-01 0.12522802E+03</pdfrwt>
<totfact> 0.53547322E+03</totfact>
</mgrwt>
</event>
<event>
 5    1  0.3277540E-002  0.1249981E+03  0.7818608E-02  0.1235072E+00
          4   -1    0    0  501    0  0.00000000000E+00  0.00000000000E+00  0.37944652580E+02  0.37965899956E+02  0.12700000000E+01 0. -1.
         -4   -1    0    0    0  501 -0.00000000000E+00 -0.00000000000E+00 -0.10288890027E+03  0.10289673804E+03  0.12700000000E+01 0. -1.
         25    2    1    2    0    0  0.00000000000E+00  0.00000000000E+00 -0.64944247694E+02  0.14086263800E+03  0.12499810989E+03 0.  0.
    9000005    1    3    3    0    0 -0.47446889559E+02 -0.48172736453E+01 -0.77979506622E+02  0.91412345486E+02  0.10000000000E+01 0.  0.
    9000005    1    3    3    0    0  0.47446889559E+02  0.48172736453E+01  0.13035258928E+02  0.49450292512E+02  0.10000000000E+01 0.  0.
<mgrwt>
<rscale>  0 0.12499811E+03</rscale>
<asrwt>0</asrwt>
<pdfrwt beam="1">  1        4 0.58398762E-02 0.12499811E+03</pdfrwt>
<pdfrwt beam="2">  1       -4 0.15831299E-01 0.12499811E+03</pdfrwt>
<totfact> 0.10116169E+04</totfact>
</mgrwt>
</event>
<event>
 5    1  0.3277540E-002  0.1250106E+03  0.7818608E-02  0.1235053E+00
          4   -1    0    0  501    0  0.00000000000E+00  0.00000000000E+00  0.15282782693E+03  0.15283310369E+03  0.12700000000E+01 0. -1.
         -4   -1    0    0    0  501 -0.00000000000E+00 -0.00000000000E+00 -0.25542667455E+02  0.25574220628E+02  0.12700000000E+01 0. -1.
         25    2    1    2    0    0  0.00000000000E+00  0.00000000000E+00  0.12728515947E+03  0.17840732432E+03  0.12501064574E+03 0.  0.
    9000005    1    3    3    0    0 -0.46156528721E+02  0.36973055861E+02  0.92486406524E+02  0.10978236377E+03  0.10000000000E+01 0.  0.
    9000005    1    3    3    0    0  0.46156528721E+02 -0.36973055861E+02  0.34798752948E+02  0.68624960546E+02  0.10000000000E+01 0.  0.
<mgrwt>
<rscale>  0 0.12501065E+03</rscale>
<asrwt>0</asrwt>
<pdfrwt beam="1">  1        4 0.23514807E-01 0.12501065E+03</pdfrwt>
<pdfrwt beam="2">  1       -4 0.39324741E-02 0.12501065E+03</pdfrwt>
<totfact> 0.93882062E+03</totfact>
</mgrwt>
</event>
<event>
 5    1  0.3277540E-002  0.1249930E+03  0.7818608E-02  0.1235080E+00
         -4   -1    0    0    0  501 -0.00000000000E+00  0.00000000000E+00  0.27006842969E+02  0.27036687429E+02  0.12700000000E+01 0.  1.
          4   -1    0    0  501    0  0.00000000000E+00 -0.00000000000E+00 -0.14451062534E+03  0.14451620579E+03  0.12700000000E+01 0.  1.
         25    2    1    2    0    0  0.00000000000E+00  0.00000000000E+00 -0.11750378237E+03  0.17155289322E+03  0.12499302501E+03 0.  0.
    9000005    1    3    3    0    0 -0.22032645322E+01  0.59125819990E+02 -0.31161672623E+02  0.66878747033E+02  0.10000000000E+01 0.  0.
    9000005    1    3    3    0    0  0.22032645322E+01 -0.59125819990E+02 -0.86342109747E+02  0.10467414619E+03  0.10000000000E+01 0.  0.
<mgrwt>
<rscale>  0 0.12499303E+03</rscale>
<asrwt>0</asrwt>
<pdfrwt beam="2">  1        4 0.22235128E-01 0.12499303E+03</pdfrwt>
<pdfrwt beam="1">  1       -4 0.41576240E-02 0.12499303E+03</pdfrwt>
<totfact> 0.95174885E+03</totfact>
</mgrwt>
</event>
<event>
 5    1  0.3277540E-002  0.1249987E+03  0.7818608E-02  0.1235071E+00
          4   -1    0    0  501    0  0.00000000000E+00  0.00000000000E+00  0.56599945159E+03  0.56600087641E+03  0.12700000000E+01 0. -1.
         -4   -1    0    0    0  501 -0.00000000000E+00 -0.00000000000E+00 -0.68414870568E+01  0.69583651203E+01  0.12700000000E+01 0. -1.
         25    2    1    2    0    0  0.00000000000E+00  0.00000000000E+00  0.55915796453E+03  0.57295924153E+03  0.12499865262E+03 0.  0.
    9000005    1    3    3    0    0  0.60894593097E+02  0.12777676821E+02  0.25295181184E+03  0.26049383794E+03  0.10000000000E+01 0.  0.
    9000005    1    3    3    0    0 -0.60894593097E+02 -0.12777676821E+02  0.30620615269E+03  0.31246540359E+03  0.10000000000E+01 0.  0.
<mgrwt>
<rscale>  0 0.12499865E+03</rscale>
<asrwt>0</asrwt>
<pdfrwt beam="1">  1        4 0.87085964E-01 0.12499865E+03</pdfrwt>
<pdfrwt beam="2">  1       -4 0.10616364E-02 0.12499865E+03</pdfrwt>
<totfact> 0.50621718E+03</totfact>
</mgrwt>
</event>
<event>
 5    1  0.3277540E-002  0.1250028E+03  0.7818608E-02  0.1235065E+00
          4   -1    0    0  501    0  0.00000000000E+00  0.00000000000E+00  0.81039474575E+03  0.81039574088E+03  0.12700000000E+01 0.  1.
         -4   -1    0    0    0  501 -0.00000000000E+00 -0.00000000000E+00 -0.47357324771E+01  0.49030666011E+01  0.12700000000E+01 0.  1.
         25    2    1    2    0    0  0.00000000000E+00  0.00000000000E+00  0.80565901327E+03  0.81529880748E+03  0.12500279923E+03 0.  0.
    9000005    1    3    3    0    0  0.18115054186E+02 -0.21642950507E+02  0.76649083812E+03  0.76701093696E+03  0.10000000000E+01 0.  0.
    9000005    1    3    3    0    0 -0.18115054186E+02  0.21642950507E+02  0.39168175153E+02  0.48287870523E+02  0.10000000000E+01 0.  0.
<mgrwt>
<rscale>  0 0.12500280E+03</rscale>
<asrwt>0</asrwt>
<pdfrwt beam="1">  1        4 0.12468904E+00 0.12500280E+03</pdfrwt>
<pdfrwt beam="2">  1       -4 0.74152276E-03 0.12500280E+03</pdfrwt>
<totfact> 0.37588515E+03</totfact>
</mgrwt>
</event>
<event>
 4    1  0.3277540E-002  0.1250624E+03  0.7818608E-02  0.1234972E+00
         -4   -1    0    0    0  501 -0.00000000000E+00  0.00000000000E+00  0.19923787295E+03  0.19924192059E+03  0.12700000000E+01 0. -1.
          4   -1    0    0  501    0  0.00000000000E+00 -0.00000000000E+00 -0.19600753583E+02  0.19641854317E+02  0.12700000000E+01 0. -1.
    9000005    1    1    2    0    0  0.59192747303E+01  0.56304589627E+02  0.13625348817E+03  0.14755086467E+03  0.10000000000E+01 0.  0.
    9000005    1    1    2    0    0 -0.59192747303E+01 -0.56304589627E+02  0.43383631205E+02  0.71332910237E+02  0.10000000000E+01 0.  0.
<mgrwt>
<rscale>  0 0.12506243E+03</rscale>
<asrwt>0</asrwt>
<pdfrwt beam="2">  1        4 0.30189734E-02 0.12506243E+03</pdfrwt>
<pdfrwt beam="1">  1       -4 0.30655454E-01 0.12506243E+03</pdfrwt>
<totfact> 0.86923995E+03</totfact>
</mgrwt>
</event>
<event>
 5    1  0.3277540E-002  0.1250136E+03  0.7818608E-02  0.1235048E+00
          4   -1    0    0  501    0  0.00000000000E+00  0.00000000000E+00  0.16760024332E+02  0.16808072929E+02  0.12700000000E+01 0. -1.
         -4   -1    0    0    0  501 -0.00000000000E+00 -0.00000000000E+00 -0.23273662256E+03  0.23274008761E+03  0.12700000000E+01 0. -1.
         25    2    1    2    0    0  0.00000000000E+00  0.00000000000E+00 -0.21597659823E+03  0.24954816054E+03  0.12501357305E+03 0.  0.
    9000005    1    3    3    0    0 -0.47387786184E+02  0.26959890148E+02 -0.16898293958E+03  0.17756314884E+03  0.10000000000E+01 0.  0.
    9000005    1    3    3    0    0  0.47387786184E+02 -0.26959890148E+02 -0.46993658642E+02  0.71985011695E+02  0.10000000000E+01 0.  0.
<mgrwt>
<rscale>  0 0.12501357E+03</rscale>
<asrwt>0</asrwt>
<pdfrwt beam="1">  1        4 0.25824280E-02 0.12501357E+03</pdfrwt>
<pdfrwt beam="2">  1       -4 0.35809594E-01 0.12501357E+03</pdfrwt>
<totfact> 0.82370669E+03</totfact>
</mgrwt>
</event>
<event>
 5    1  0.3277540E-002  0.1250014E+03  0.7818608E-02  0.1235067E+00
         -4   -1    0    0    0  501 -0.00000000000E+00  0.00000000000E+00  0.34076593850E+03  0.34076830508E+03  0.12700000000E+01 0.  1.
          4   -1    0    0  501    0  0.00000000000E+00 -0.00000000000E+00 -0.11425817623E+02  0.11496182339E+02  0.12700000000E+01 0.  1.
         25    2    1    2    0    0  0.00000000000E+00  0.00000000000E+00  0.32934012088E+03  0.35226448742E+03  0.12500141548E+03 0.  0.
    9000005    1    3    3    0    0  0.22380757007E+02 -0.11215109286E+02  0.32603241534E+03  0.32699359751E+03  0.10000000000E+01 0.  0.
    9000005    1    3    3    0    0 -0.22380757007E+02  0.11215109286E+02  0.33077055379E+01  0.25270889902E+02  0.10000000000E+01 0.  0.
<mgrwt>
<rscale>  0 0.12500142E+03</rscale>
<asrwt>0</asrwt>
<pdfrwt beam="2">  1        4 0.17634128E-02 0.12500142E+03</pdfrwt>
<pdfrwt beam="1">  1       -4 0.52431124E-01 0.12500142E+03</pdfrwt>
<totfact> 0.69473973E+03</totfact>
</mgrwt>
</event>
<event>
 5    1  0.3277540E-002  0.1249981E+03  0.7818608E-02  0.1235072E+00
         -4   -1    0    0    0  501 -0.00000000000E+00  0.00000000000E+00  0.11344241063E+03  0.11344951930E+03  0.12700000000E+01 0.  1.
          4   -1    0    0  501    0  0.00000000000E+00 -0.00000000000E+00 -0.34412811689E+02  0.34436238302E+02  0.12700000000E+01 0.  1.
         25    2    1    2    0    0  0.00000000000E+00  0.00000000000E+00  0.79029598942E+02  0.14788575760E+03  0.12499807916E+03 0.  0.
    9000005    1    3    3    0    0 -0.12522005812E+02 -0.13561591037E+02  0.11014931884E+03  0.11168970329E+03  0.10000000000E+01 0.  0.
    9000005    1    3    3    0    0  0.12522005812E+02  0.13561591037E+02 -0.31119719898E+02  0.36196054309E+02  0.10000000000E+01 0.  0.
<mgrwt>
<rscale>  0 0.12499808E+03</rscale>
<asrwt>0</asrwt>
<pdfrwt beam="2">  1        4 0.52966277E-02 0.12499808E+03</pdfrwt>
<pdfrwt beam="1">  1       -4 0.17455027E-01 0.12499808E+03</pdfrwt>
<totfact> 0.99731134E+03</totfact>
</mgrwt>
</event>
<event>
 5    1  0.3277540E-002  0.1250003E+03  0.7818608E-02  0.1235069E+00
         -4   -1    0    0    0  501 -0.00000000000E+00  0.00000000000E+00  0.58104776476E+02  0.58118654056E+02  0.12700000000E+01 0. -1.
          4   -1    0    0  501    0  0.00000000000E+00 -0.00000000000E+00 -0.67200140585E+02  0.67212140232E+02  0.12700000000E+01 0. -1.
         25    2    1    2    0    0  0.00000000000E+00  0.00000000000E+00 -0.90953641090E+01  0.12533079429E+03  0.12500032939E+03 0.  0.
    9000005    1    3    3    0    0 -0.61901100395E+02  0.43915175965E+01 -0.11931860655E+02  0.63201273370E+02  0.10000000000E+01 0.  0.
    9000005    1    3    3    0    0  0.61901100395E+02 -0.43915175965E+01  0.28364965464E+01  0.62129520919E+02  0.10000000000E+01 0.  0.
<mgrwt>
<rscale>  0 0.12500033E+03</rscale>
<asrwt>0</asrwt>
<pdfrwt beam="2">  1        4 0.10340474E-01 0.12500033E+03</pdfrwt>
<pdfrwt beam="1">  1       -4 0.89411869E-02 0.12500033E+03</pdfrwt>
<totfact> 0.10445604E+04</totfact>
</mgrwt>
</event>
<event>
 5    1  0.3277540E-002  0.1249990E+03  0.7818608E-02  0.1235071E+00
          4   -1    0    0  501    0  0.00000000000E+00  0.00000000000E+00  0.20911597664E+03  0.20911983308E+03  0.12700000000E+01 0.  1.
         -4   -1    0    0    0  501 -0.00000000000E+00 -0.00000000000E+00 -0.18653899358E+02  0.18697081624E+02  0.12700000000E+01 0.  1.
         25    2    1    2    0    0  0.00000000000E+00  0.00000000000E+00  0.19046207729E+03  0.22781691471E+03  0.12499897496E+03 0.  0.
    9000005    1    3    3    0    0 -0.33180836932E+02  0.51238564543E+02  0.11960334712E+03  0.13428447072E+03  0.10000000000E+01 0.  0.
    9000005    1    3    3    0    0  0.33180836932E+02 -0.51238564543E+02  0.70858730170E+02  0.93532443982E+02  0.10000000000E+01 0.  0.
<mgrwt>
<rscale>  0 0.12499897E+03</rscale>
<asrwt>0</asrwt>
<pdfrwt beam="1">  1        4 0.32175309E-01 0.12499897E+03</pdfrwt>
<pdfrwt beam="2">  1       -4 0.28734489E-02 0.12499897E+03</pdfrwt>
<totfact> 0.85647899E+03</totfact>
</mgrwt>
</event>
<event>
 5    1  0.3277540E-002  0.1249922E+03  0.7818608E-02  0.1235082E+00
         -4   -1    0    0    0  501 -0.00000000000E+00  0.00000000000E+00  0.63375144176E+02  0.63387867919E+02  0.12700000000E+01 0. -1.
          4   -1    0    0  501    0  0.00000000000E+00 -0.00000000000E+00 -0.61603759306E+02  0.61616848837E+02  0.12700000000E+01 0. -1.
         25    2    1    2    0    0  0.00000000000E+00  0.00000000000E+00  0.17713848704E+01  0.12500471676E+03  0.12499216538E+03 0.  0.
    9000005    1    3    3    0    0 -0.21150316973E+01  0.14624908290E+02  0.61607512597E+02  0.63362819618E+02  0.10000000000E+01 0.  0.
    9000005    1    3    3    0    0  0.21150316973E+01 -0.14624908290E+02 -0.59836127726E+02  0.61641897139E+02  0.10000000000E+01 0.  0.
<mgrwt>
<rscale>  0 0.12499217E+03</rscale>
<asrwt>0</asrwt>
<pdfrwt beam="2">  1        4 0.94794871E-02 0.12499217E+03</pdfrwt>
<pdfrwt beam="1">  1       -4 0.97520078E-02 0.12499217E+03</pdfrwt>
<totfact> 0.10454611E+04</totfact>
</mgrwt>
</event>
<event>
 5    1  0.3277540E-002  0.1249970E+03  0.7818608E-02  0.1235074E+00
         -4   -1    0    0    0  501 -0.00000000000E+00  0.00000000000E+00  0.42941510850E+01  0.44780166973E+01  0.12700000000E+01 0.  1.
          4   -1    0    0  501    0  0.00000000000E+00 -0.00000000000E+00 -0.89037336982E+03  0.89037427557E+03  0.12700000000E+01 0.  1.
         25    2    1    2    0    0  0.00000000000E+00  0.00000000000E+00 -0.88607921874E+03  0.89485229227E+03  0.12499697232E+03 0.  0.
    9000005    1    3    3    0    0  0.34347020224E+01  0.41626153356E+02 -0.77580006126E+03  0.77692423625E+03  0.10000000000E+01 0.  0.
    9000005    1    3    3    0    0 -0.34347020224E+01 -0.41626153356E+02 -0.11027915748E+03  0.11792805602E+03  0.10000000000E+01 0.  0.
<mgrwt>
<rscale>  0 0.12499697E+03</rscale>
<asrwt>0</asrwt>
<pdfrwt beam="2">  1        4 0.13699459E+00 0.12499697E+03</pdfrwt>
<pdfrwt beam="1">  1       -4 0.67485252E-03 0.12499697E+03</pdfrwt>
<totfact> 0.34360101E+03</totfact>
</mgrwt>
</event>
<event>
 5    1  0.3277540E-002  0.1249986E+03  0.7818608E-02  0.1235072E+00
         -4   -1    0    0    0  501 -0.00000000000E+00  0.00000000000E+00  0.59204638991E+02  0.59218258823E+02  0.12700000000E+01 0.  1.
          4   -1    0    0  501    0  0.00000000000E+00 -0.00000000000E+00 -0.65949943361E+02  0.65962170441E+02  0.12700000000E+01 0.  1.
         25    2    1    2    0    0  0.00000000000E+00  0.00000000000E+00 -0.67453043703E+01  0.12518042926E+03  0.12499856295E+03 0.  0.
    9000005    1    3    3    0    0  0.55190183515E+02 -0.22910199157E+02 -0.21683855476E+02  0.63576907523E+02  0.10000000000E+01 0.  0.
    9000005    1    3    3    0    0 -0.55190183515E+02  0.22910199157E+02  0.14938551106E+02  0.61603521742E+02  0.10000000000E+01 0.  0.
<mgrwt>
<rscale>  0 0.12499856E+03</rscale>
<asrwt>0</asrwt>
<pdfrwt beam="2">  1        4 0.10148133E-01 0.12499856E+03</pdfrwt>
<pdfrwt beam="1">  1       -4 0.91103942E-02 0.12499856E+03</pdfrwt>
<totfact> 0.10449284E+04</totfact>
</mgrwt>
</event>
<event>
 5    1  0.3277540E-002  0.1249950E+03  0.7818608E-02  0.1235077E+00
          4   -1    0    0  501    0  0.00000000000E+00  0.00000000000E+00  0.77273711310E+02  0.77284146884E+02  0.12700000000E+01 0. -1.
         -4   -1    0    0    0  501 -0.00000000000E+00 -0.00000000000E+00 -0.50524920392E+02  0.50540879302E+02  0.12700000000E+01 0. -1.
         25    2    1    2    0    0  0.00000000000E+00  0.00000000000E+00  0.26748790918E+02  0.12782502619E+03  0.12499495791E+03 0.  0.
    9000005    1    3    3    0    0  0.56493553298E+02  0.26142121194E+02  0.18975895844E+02  0.65084688582E+02  0.10000000000E+01 0.  0.
    9000005    1    3    3    0    0 -0.56493553298E+02 -0.26142121194E+02  0.77728950738E+01  0.62740337603E+02  0.10000000000E+01 0.  0.
<mgrwt>
<rscale>  0 0.12499496E+03</rscale>
<asrwt>0</asrwt>
<pdfrwt beam="1">  1        4 0.11890294E-01 0.12499496E+03</pdfrwt>
<pdfrwt beam="2">  1       -4 0.77750951E-02 0.12499496E+03</pdfrwt>
<totfact> 0.10392451E+04</totfact>
</mgrwt>
</event>
<event>
 5    1  0.3277540E-002  0.1249990E+03  0.7818608E-02  0.1235071E+00
         -4   -1    0    0    0  501 -0.00000000000E+00  0.00000000000E+00  0.12580340602E+03  0.12580981625E+03  0.12700000000E+01 0. -1.
          4   -1    0    0  501    0  0.00000000000E+00 -0.00000000000E+00 -0.31029727700E+02  0.31055706418E+02  0.12700000000E+01 0. -1.
         25    2    1    2    0    0  0.00000000000E+00  0.00000000000E+00  0.94773678319E+02  0.15686552267E+03  0.12499896840E+03 0.  0.
    9000005    1    3    3    0    0 -0.22531933173E+02 -0.57397108083E+02  0.34646348634E+02  0.70735320049E+02  0.10000000000E+01 0.  0.
    9000005    1    3    3    0    0  0.22531933173E+02  0.57397108083E+02  0.60127329685E+02  0.86130202623E+02  0.10000000000E+01 0.  0.
<mgrwt>
<rscale>  0 0.12499897E+03</rscale>
<asrwt>0</asrwt>
<pdfrwt beam="2">  1        4 0.47762958E-02 0.12499897E+03</pdfrwt>
<pdfrwt beam="1">  1       -4 0.19356861E-01 0.12499897E+03</pdfrwt>
<totfact> 0.97952786E+03</totfact>
</mgrwt>
</event>
<event>
 5    1  0.3277540E-002  0.1249978E+03  0.7818608E-02  0.1235073E+00
          4   -1    0    0  501    0  0.00000000000E+00  0.00000000000E+00  0.56569074611E+02  0.56583328838E+02  0.12700000000E+01 0. -1.
         -4   -1    0    0    0  501 -0.00000000000E+00 -0.00000000000E+00 -0.69021474043E+02  0.69033157100E+02  0.12700000000E+01 0. -1.
         25    2    1    2    0    0  0.00000000000E+00  0.00000000000E+00 -0.12452399432E+02  0.12561648594E+03  0.12499775713E+03 0.  0.
    9000005    1    3    3    0    0 -0.27862120316E+02 -0.46648499476E+02 -0.37245303225E+02  0.65883175881E+02  0.10000000000E+01 0.  0.
    9000005    1    3    3    0    0  0.27862120316E+02  0.46648499476E+02  0.24792903793E+02  0.59733310057E+02  0.10000000000E+01 0.  0.
<mgrwt>
<rscale>  0 0.12499776E+03</rscale>
<asrwt>0</asrwt>
<pdfrwt beam="1">  1        4 0.87049298E-02 0.12499776E+03</pdfrwt>
<pdfrwt beam="2">  1       -4 0.10620683E-01 0.12499776E+03</pdfrwt>
<totfact> 0.10439912E+04</totfact>
</mgrwt>
</event>
<event>
 5    1  0.3277540E-002  0.1250053E+03  0.7818608E-02  0.1235061E+00
         -4   -1    0    0    0  501 -0.00000000000E+00  0.00000000000E+00  0.47863333263E+03  0.47863501753E+03  0.12700000000E+01 0. -1.
          4   -1    0    0  501    0  0.00000000000E+00 -0.00000000000E+00 -0.81108340944E+01  0.82096607547E+01  0.12700000000E+01 0. -1.
         25    2    1    2    0    0  0.00000000000E+00  0.00000000000E+00  0.47052249854E+03  0.48684467829E+03  0.12500527647E+03 0.  0.
    9000005    1    3    3    0    0 -0.24094242699E+02  0.20333776426E+02  0.44540999546E+03  0.44652554132E+03  0.10000000000E+01 0.  0.
    9000005    1    3    3    0    0  0.24094242699E+02 -0.20333776426E+02  0.25112503082E+02  0.40319136970E+02  0.10000000000E+01 0.  0.
<mgrwt>
<rscale>  0 0.12500528E+03</rscale>
<asrwt>0</asrwt>
<pdfrwt beam="2">  1        4 0.12555521E-02 0.12500528E+03</pdfrwt>
<pdfrwt beam="1">  1       -4 0.73643641E-01 0.12500528E+03</pdfrwt>
<totfact> 0.56893090E+03</totfact>
</mgrwt>
</event>
<event>
 5    1  0.3277540E-002  0.1250020E+03  0.7818608E-02  0.1235066E+00
          4   -1    0    0  501    0  0.00000000000E+00  0.00000000000E+00  0.34899982347E+02  0.34923082164E+02  0.12700000000E+01 0. -1.
         -4   -1    0    0    0  501 -0.00000000000E+00 -0.00000000000E+00 -0.11186677127E+03  0.11187398006E+03  0.12700000000E+01 0. -1.
         25    2    1    2    0    0  0.00000000000E+00  0.00000000000E+00 -0.76966788927E+02  0.14679706223E+03  0.12500196351E+03 0.  0.
    9000005    1    3    3    0    0 -0.27256055329E+02  0.44986319848E+02 -0.78111866237E+02  0.94176032899E+02  0.10000000000E+01 0.  0.
    9000005    1    3    3    0    0  0.27256055329E+02 -0.44986319848E+02  0.11450773102E+01  0.52621029328E+02  0.10000000000E+01 0.  0.
<mgrwt>
<rscale>  0 0.12500196E+03</rscale>
<asrwt>0</asrwt>
<pdfrwt beam="1">  1        4 0.53715595E-02 0.12500196E+03</pdfrwt>
<pdfrwt beam="2">  1       -4 0.17212604E-01 0.12500196E+03</pdfrwt>
<totfact> 0.99941613E+03</totfact>
</mgrwt>
</event>
<event>
 5    1  0.3277540E-002  0.1250035E+03  0.7818608E-02  0.1235064E+00
          4   -1    0    0  501    0  0.00000000000E+00  0.00000000000E+00  0.57513251666E+02  0.57527271943E+02  0.12700000000E+01 0.  1.
         -4   -1    0    0    0  501 -0.00000000000E+00 -0.00000000000E+00 -0.67894693086E+02  0.67906570001E+02  0.12700000000E+01 0.  1.
         25    2    1    2    0    0  0.00000000000E+00  0.00000000000E+00 -0.10381441420E+02  0.12543384194E+03  0.12500349747E+03 0.  0.
    9000005    1    3    3    0    0 -0.85511793895E+01  0.24484626336E+02 -0.62244611997E+02  0.67438945116E+02  0.10000000000E+01 0.  0.
    9000005    1    3    3    0    0  0.85511793895E+01 -0.24484626336E+02  0.51863170576E+02  0.57994896827E+02  0.10000000000E+01 0.  0.
<mgrwt>
<rscale>  0 0.12500350E+03</rscale>
<asrwt>0</asrwt>
<pdfrwt beam="1">  1        4 0.88501846E-02 0.12500350E+03</pdfrwt>
<pdfrwt beam="2">  1       -4 0.10447329E-01 0.12500350E+03</pdfrwt>
<totfact> 0.10442594E+04</totfact>
</mgrwt>
</event>
<event>
 5    1  0.3277540E-002  0.1250034E+03  0.7818608E-02  0.1235064E+00
          4   -1    0    0  501    0  0.00000000000E+00  0.00000000000E+00  0.48935767568E+03  0.48935932365E+03  0.12700000000E+01 0.  1.
         -4   -1    0    0    0  501 -0.00000000000E+00 -0.00000000000E+00 -0.79306576156E+01  0.80317015766E+01  0.12700000000E+01 0.  1.
         25    2    1    2    0    0  0.00000000000E+00  0.00000000000E+00  0.48142701806E+03  0.49739102523E+03  0.12500343298E+03 0.  0.
    9000005    1    3    3    0    0  0.53788310194E+01  0.53976904280E+02  0.36419308622E+03  0.36821195264E+03  0.10000000000E+01 0.  0.
    9000005    1    3    3    0    0 -0.53788310194E+01 -0.53976904280E+02  0.11723393184E+03  0.12917907259E+03  0.10000000000E+01 0.  0.
<mgrwt>
<rscale>  0 0.12500343E+03</rscale>
<asrwt>0</asrwt>
<pdfrwt beam="1">  1        4 0.75293719E-01 0.12500343E+03</pdfrwt>
<pdfrwt beam="2">  1       -4 0.12280002E-02 0.12500343E+03</pdfrwt>
<totfact> 0.56063115E+03</totfact>
</mgrwt>
</event>
<event>
 5    1  0.3277540E-002  0.1250053E+03  0.7818608E-02  0.1235061E+00
         -4   -1    0    0    0  501 -0.00000000000E+00  0.00000000000E+00  0.28384441078E+03  0.28384725193E+03  0.12700000000E+01 0. -1.
          4   -1    0    0  501    0  0.00000000000E+00 -0.00000000000E+00 -0.13730887796E+02  0.13789495265E+02  0.12700000000E+01 0. -1.
         25    2    1    2    0    0  0.00000000000E+00  0.00000000000E+00  0.27011352298E+03  0.29763674720E+03  0.12500527183E+03 0.  0.
    9000005    1    3    3    0    0 -0.30560224526E+02 -0.49751043617E+02  0.82003553380E+02  0.10067113008E+03  0.10000000000E+01 0.  0.
    9000005    1    3    3    0    0  0.30560224526E+02  0.49751043617E+02  0.18810996960E+03  0.19696561712E+03  0.10000000000E+01 0.  0.
<mgrwt>
<rscale>  0 0.12500527E+03</rscale>
<asrwt>0</asrwt>
<pdfrwt beam="2">  1        4 0.21171709E-02 0.12500527E+03</pdfrwt>
<pdfrwt beam="1">  1       -4 0.43673101E-01 0.12500527E+03</pdfrwt>
<totfact> 0.75887353E+03</totfact>
</mgrwt>
</event>
<event>
 5    1  0.3277540E-002  0.1249986E+03  0.7818608E-02  0.1235071E+00
          4   -1    0    0  501    0  0.00000000000E+00  0.00000000000E+00  0.14241717101E+02  0.14298230869E+02  0.12700000000E+01 0. -1.
         -4   -1    0    0    0  501 -0.00000000000E+00 -0.00000000000E+00 -0.27367507083E+03  0.27367801755E+03  0.12700000000E+01 0. -1.
         25    2    1    2    0    0  0.00000000000E+00  0.00000000000E+00 -0.25943335373E+03  0.28797624842E+03  0.12499861851E+03 0.  0.
    9000005    1    3    3    0    0  0.47828781981E+02 -0.26795919246E+02 -0.19881445878E+03  0.20623724856E+03  0.10000000000E+01 0.  0.
    9000005    1    3    3    0    0 -0.47828781981E+02  0.26795919246E+02 -0.60618894951E+02  0.81738999866E+02  0.10000000000E+01 0.  0.
<mgrwt>
<rscale>  0 0.12499862E+03</rscale>
<asrwt>0</asrwt>
<pdfrwt beam="1">  1        4 0.21956075E-02 0.12499862E+03</pdfrwt>
<pdfrwt beam="2">  1       -4 0.42108427E-01 0.12499862E+03</pdfrwt>
<totfact> 0.77134630E+03</totfact>
</mgrwt>
</event>
<event>
 5    1  0.3277540E-002  0.1249977E+03  0.7818608E-02  0.1235073E+00
          4   -1    0    0  501    0  0.00000000000E+00  0.00000000000E+00  0.35736791386E+02  0.35759350646E+02  0.12700000000E+01 0. -1.
         -4   -1    0    0    0  501 -0.00000000000E+00 -0.00000000000E+00 -0.10924139397E+03  0.10924877600E+03  0.12700000000E+01 0. -1.
         25    2    1    2    0    0  0.00000000000E+00  0.00000000000E+00 -0.73504602587E+02  0.14500812664E+03  0.12499772075E+03 0.  0.
    9000005    1    3    3    0    0  0.37632245657E+02  0.49773711471E+02 -0.32818380655E+02  0.70509959407E+02  0.10000000000E+01 0.  0.
    9000005    1    3    3    0    0 -0.37632245657E+02 -0.49773711471E+02 -0.40686221931E+02  0.74498167237E+02  0.10000000000E+01 0.  0.
<mgrwt>
<rscale>  0 0.12499772E+03</rscale>
<asrwt>0</asrwt>
<pdfrwt beam="1">  1        4 0.55002711E-02 0.12499772E+03</pdfrwt>
<pdfrwt beam="2">  1       -4 0.16808671E-01 0.12499772E+03</pdfrwt>
<totfact> 0.10031338E+04</totfact>
</mgrwt>
</event>
<event>
 5    1  0.3277540E-002  0.1250041E+03  0.7818608E-02  0.1235063E+00
          4   -1    0    0  501    0  0.00000000000E+00  0.00000000000E+00  0.79666219229E+02  0.79676341446E+02  0.12700000000E+01 0. -1.
         -4   -1    0    0    0  501 -0.00000000000E+00 -0.00000000000E+00 -0.49014418805E+02  0.49030869366E+02  0.12700000000E+01 0. -1.
         25    2    1    2    0    0  0.00000000000E+00  0.00000000000E+00  0.30651800424E+02  0.12870721081E+03  0.12500405292E+03 0.  0.
    9000005    1    3    3    0    0 -0.22070387682E+02 -0.10918618471E+02 -0.43814209241E+02  0.50269306472E+02  0.10000000000E+01 0.  0.
    9000005    1    3    3    0    0  0.22070387682E+02  0.10918618471E+02  0.74466009666E+02  0.78437904340E+02  0.10000000000E+01 0.  0.
<mgrwt>
<rscale>  0 0.12500405E+03</rscale>
<asrwt>0</asrwt>
<pdfrwt beam="1">  1        4 0.12258385E-01 0.12500405E+03</pdfrwt>
<pdfrwt beam="2">  1       -4 0.75427241E-02 0.12500405E+03</pdfrwt>
<totfact> 0.10371294E+04</totfact>
</mgrwt>
</event>
<event>
 5    1  0.3277540E-002  0.1250403E+03  0.7818608E-02  0.1235006E+00
          4   -1    0    0  501    0  0.00000000000E+00  0.00000000000E+00  0.65953048309E+01  0.67164682544E+01  0.12700000000E+01 0. -1.
         -4   -1    0    0    0  501 -0.00000000000E+00 -0.00000000000E+00 -0.58714318349E+03  0.58714455700E+03  0.12700000000E+01 0. -1.
         25    2    1    2    0    0  0.00000000000E+00  0.00000000000E+00 -0.58054787866E+03  0.59386102525E+03  0.12504030512E+03 0.  0.
    9000005    1    3    3    0    0 -0.54925998548E+02 -0.10650506824E+02 -0.15784684186E+03  0.16747215917E+03  0.10000000000E+01 0.  0.
    9000005    1    3    3    0    0  0.54925998548E+02  0.10650506824E+02 -0.42270103680E+03  0.42638886609E+03  0.10000000000E+01 0.  0.
<mgrwt>
<rscale>  0 0.12504031E+03</rscale>
<asrwt>0</asrwt>
<pdfrwt beam="1">  1        4 0.10240887E-02 0.12504031E+03</pdfrwt>
<pdfrwt beam="2">  1       -4 0.90339106E-01 0.12504031E+03</pdfrwt>
<totfact> 0.49213930E+03</totfact>
</mgrwt>
</event>
<event>
 5    1  0.3277540E-002  0.1249969E+03  0.7818608E-02  0.1235074E+00
         -4   -1    0    0    0  501 -0.00000000000E+00  0.00000000000E+00  0.17886880038E+02  0.17931909478E+02  0.12700000000E+01 0. -1.
          4   -1    0    0  501    0  0.00000000000E+00 -0.00000000000E+00 -0.21805414530E+03  0.21805784366E+03  0.12700000000E+01 0. -1.
         25    2    1    2    0    0  0.00000000000E+00  0.00000000000E+00 -0.20016726526E+03  0.23598975314E+03  0.12499691798E+03 0.  0.
    9000005    1    3    3    0    0  0.30411489763E+02 -0.54556837717E+02 -0.96427544139E+02  0.11489377059E+03  0.10000000000E+01 0.  0.
    9000005    1    3    3    0    0 -0.30411489763E+02  0.54556837717E+02 -0.10373972112E+03  0.12109598255E+03  0.10000000000E+01 0.  0.
<mgrwt>
<rscale>  0 0.12499692E+03</rscale>
<asrwt>0</asrwt>
<pdfrwt beam="2">  1        4 0.33550538E-01 0.12499692E+03</pdfrwt>
<pdfrwt beam="1">  1       -4 0.27555761E-02 0.12499692E+03</pdfrwt>
<totfact> 0.84404073E+03</totfact>
</mgrwt>
</event>
<event>
 5    1  0.3277540E-002  0.1250029E+03  0.7818608E-02  0.1235065E+00
         -4   -1    0    0    0  501 -0.00000000000E+00  0.00000000000E+00  0.69012647352E+01  0.70171472084E+01  0.12700000000E+01 0. -1.
          4   -1    0    0  501    0  0.00000000000E+00 -0.00000000000E+00 -0.56121599775E+03  0.56121743472E+03  0.12700000000E+01 0. -1.
         25    2    1    2    0    0  0.00000000000E+00  0.00000000000E+00 -0.55431473301E+03  0.56823458192E+03  0.12500286740E+03 0.  0.
    9000005    1    3    3    0    0 -0.36038521411E+02  0.48408982454E+02 -0.35090887853E+03  0.35606213732E+03  0.10000000000E+01 0.  0.
    9000005    1    3    3    0    0  0.36038521411E+02 -0.48408982454E+02 -0.20340585449E+03  0.21217244460E+03  0.10000000000E+01 0.  0.
<mgrwt>
<rscale>  0 0.12500287E+03</rscale>
<asrwt>0</asrwt>
<pdfrwt beam="2">  1        4 0.86349912E-01 0.12500287E+03</pdfrwt>
<pdfrwt beam="1">  1       -4 0.10707580E-02 0.12500287E+03</pdfrwt>
<totfact> 0.50932964E+03</totfact>
</mgrwt>
</event>
<event>
 5    1  0.3277540E-002  0.1249804E+03  0.7818608E-02  0.1235100E+00
         -4   -1    0    0    0  501 -0.00000000000E+00  0.00000000000E+00  0.45443695647E+03  0.45443873108E+03  0.12700000000E+01 0. -1.
          4   -1    0    0  501    0  0.00000000000E+00 -0.00000000000E+00 -0.85443761605E+01  0.86382442644E+01  0.12700000000E+01 0. -1.
         25    2    1    2    0    0  0.00000000000E+00  0.00000000000E+00  0.44589258031E+03  0.46307697535E+03  0.12498036614E+03 0.  0.
    9000005    1    3    3    0    0  0.42593094751E+02  0.41800395493E+02  0.15436727337E+03  0.16550438021E+03  0.10000000000E+01 0.  0.
    9000005    1    3    3    0    0 -0.42593094751E+02 -0.41800395493E+02  0.29152530695E+03  0.29757259513E+03  0.10000000000E+01 0.  0.
<mgrwt>
<rscale>  0 0.12498037E+03</rscale>
<asrwt>0</asrwt>
<pdfrwt beam="2">  1        4 0.13218762E-02 0.12498037E+03</pdfrwt>
<pdfrwt beam="1">  1       -4 0.69920756E-01 0.12498037E+03</pdfrwt>
<totfact> 0.58872877E+03</totfact>
</mgrwt>
</event>
<event>
 5    1  0.3277540E-002  0.1250029E+03  0.7818608E-02  0.1235065E+00
         -4   -1    0    0    0  501 -0.00000000000E+00  0.00000000000E+00  0.29381485477E+01  0.32008775185E+01  0.12700000000E+01 0. -1.
          4   -1    0    0  501    0  0.00000000000E+00 -0.00000000000E+00 -0.12723912122E+04  0.12723918460E+04  0.12700000000E+01 0. -1.
         25    2    1    2    0    0  0.00000000000E+00  0.00000000000E+00 -0.12694530636E+04  0.12755927235E+04  0.12500286194E+03 0.  0.
    9000005    1    3    3    0    0  0.56761504534E+02 -0.19793690439E+02 -0.46042042045E+03  0.46432921742E+03  0.10000000000E+01 0.  0.
    9000005    1    3    3    0    0 -0.56761504534E+02  0.19793690439E+02 -0.80903264317E+03  0.81126350608E+03  0.10000000000E+01 0.  0.
<mgrwt>
<rscale>  0 0.12500286E+03</rscale>
<asrwt>0</asrwt>
<pdfrwt beam="2">  1        4 0.19577233E+00 0.12500286E+03</pdfrwt>
<pdfrwt beam="1">  1       -4 0.47228254E-03 0.12500286E+03</pdfrwt>
<totfact> 0.22810643E+03</totfact>
</mgrwt>
</event>
<event>
 5    1  0.3277540E-002  0.1250004E+03  0.7818608E-02  0.1235069E+00
         -4   -1    0    0    0  501 -0.00000000000E+00  0.00000000000E+00  0.12603317357E+02  0.12667142867E+02  0.12700000000E+01 0.  1.
          4   -1    0    0  501    0  0.00000000000E+00 -0.00000000000E+00 -0.30909209186E+03  0.30909470095E+03  0.12700000000E+01 0.  1.
         25    2    1    2    0    0  0.00000000000E+00  0.00000000000E+00 -0.29648877451E+03  0.32176184381E+03  0.12500036290E+03 0.  0.
    9000005    1    3    3    0    0 -0.25798941638E+02 -0.10986326583E+02 -0.44870187281E+01  0.28415103352E+02  0.10000000000E+01 0.  0.
    9000005    1    3    3    0    0  0.25798941638E+02  0.10986326583E+02 -0.29200175578E+03  0.29334674046E+03  0.10000000000E+01 0.  0.
<mgrwt>
<rscale>  0 0.12500036E+03</rscale>
<asrwt>0</asrwt>
<pdfrwt beam="2">  1        4 0.47557734E-01 0.12500036E+03</pdfrwt>
<pdfrwt beam="1">  1       -4 0.19440825E-02 0.12500036E+03</pdfrwt>
<totfact> 0.72946482E+03</totfact>
</mgrwt>
</event>
<event>
 5    1  0.3277540E-002  0.1250162E+03  0.7818608E-02  0.1235044E+00
         -4   -1    0    0    0  501 -0.00000000000E+00  0.00000000000E+00  0.91386858765E+02  0.91395682912E+02  0.12700000000E+01 0.  1.
          4   -1    0    0  501    0  0.00000000000E+00 -0.00000000000E+00 -0.42734851472E+02  0.42753718321E+02  0.12700000000E+01 0.  1.
         25    2    1    2    0    0  0.00000000000E+00  0.00000000000E+00  0.48652007294E+02  0.13414940123E+03  0.12501617510E+03 0.  0.
    9000005    1    3    3    0    0 -0.55021553930E+02 -0.21891051491E+02  0.45778315857E+02  0.74854817714E+02  0.10000000000E+01 0.  0.
    9000005    1    3    3    0    0  0.55021553930E+02  0.21891051491E+02  0.28736914367E+01  0.59294583520E+02  0.10000000000E+01 0.  0.
<mgrwt>
<rscale>  0 0.12501618E+03</rscale>
<asrwt>0</asrwt>
<pdfrwt beam="2">  1        4 0.65767227E-02 0.12501618E+03</pdfrwt>
<pdfrwt beam="1">  1       -4 0.14061647E-01 0.12501618E+03</pdfrwt>
<totfact> 0.10252290E+04</totfact>
</mgrwt>
</event>
<event>
 5    1  0.3277540E-002  0.1250007E+03  0.7818608E-02  0.1235068E+00
         -4   -1    0    0    0  501 -0.00000000000E+00  0.00000000000E+00  0.24848810831E+03  0.24849135372E+03  0.12700000000E+01 0. -1.
          4   -1    0    0  501    0  0.00000000000E+00 -0.00000000000E+00 -0.15691248372E+02  0.15742559368E+02  0.12700000000E+01 0. -1.
         25    2    1    2    0    0  0.00000000000E+00  0.00000000000E+00  0.23279685994E+03  0.26423391308E+03  0.12500073130E+03 0.  0.
    9000005    1    3    3    0    0  0.29332910342E+02 -0.53142668971E+02  0.84992659617E+02  0.10444766672E+03  0.10000000000E+01 0.  0.
    9000005    1    3    3    0    0 -0.29332910342E+02  0.53142668971E+02  0.14780420032E+03  0.15978624636E+03  0.10000000000E+01 0.  0.
<mgrwt>
<rscale>  0 0.12500073E+03</rscale>
<asrwt>0</asrwt>
<pdfrwt beam="2">  1        4 0.24182350E-02 0.12500073E+03</pdfrwt>
<pdfrwt beam="1">  1       -4 0.38233134E-01 0.12500073E+03</pdfrwt>
<totfact> 0.80314233E+03</totfact>
</mgrwt>
</event>
<event>
 5    1  0.3277540E-002  0.1250116E+03  0.7818608E-02  0.1235051E+00
          4   -1    0    0  501    0  0.00000000000E+00  0.00000000000E+00  0.23262660191E+02  0.23297301542E+02  0.12700000000E+01 0. -1.
         -4   -1    0    0    0  501 -0.00000000000E+00 -0.00000000000E+00 -0.16778861032E+03  0.16779341660E+03  0.12700000000E+01 0. -1.
         25    2    1    2    0    0  0.00000000000E+00  0.00000000000E+00 -0.14452595013E+03  0.19109071814E+03  0.12501164865E+03 0.  0.
    9000005    1    3    3    0    0  0.51010845822E+02 -0.21053579246E+02 -0.27419997228E+02  0.61629666870E+02  0.10000000000E+01 0.  0.
    9000005    1    3    3    0    0 -0.51010845822E+02  0.21053579246E+02 -0.11710595290E+03  0.12946105127E+03  0.10000000000E+01 0.  0.
<mgrwt>
<rscale>  0 0.12501165E+03</rscale>
<asrwt>0</asrwt>
<pdfrwt beam="1">  1        4 0.35819053E-02 0.12501165E+03</pdfrwt>
<pdfrwt beam="2">  1       -4 0.25816666E-01 0.12501165E+03</pdfrwt>
<totfact> 0.91633970E+03</totfact>
</mgrwt>
</event>
<event>
 5    1  0.3277540E-002  0.1249997E+03  0.7818608E-02  0.1235070E+00
          4   -1    0    0  501    0  0.00000000000E+00  0.00000000000E+00  0.12948282866E+04  0.12948289094E+04  0.12700000000E+01 0.  1.
         -4   -1    0    0    0  501 -0.00000000000E+00 -0.00000000000E+00 -0.28824857668E+01  0.31498609804E+01  0.12700000000E+01 0.  1.
         25    2    1    2    0    0  0.00000000000E+00  0.00000000000E+00  0.12919458009E+04  0.12979787704E+04  0.12499974452E+03 0.  0.
    9000005    1    3    3    0    0  0.10295764419E+02  0.51688863600E+02  0.99464349558E+03  0.99603936905E+03  0.10000000000E+01 0.  0.
    9000005    1    3    3    0    0 -0.10295764419E+02 -0.51688863600E+02  0.29730230527E+03  0.30193940138E+03  0.10000000000E+01 0.  0.
<mgrwt>
<rscale>  0 0.12499974E+03</rscale>
<asrwt>0</asrwt>
<pdfrwt beam="1">  1        4 0.19922529E+00 0.12499974E+03</pdfrwt>
<pdfrwt beam="2">  1       -4 0.46407382E-03 0.12499974E+03</pdfrwt>
<totfact> 0.22276343E+03</totfact>
</mgrwt>
</event>
<event>
 5    1  0.3277540E-002  0.1250043E+03  0.7818608E-02  0.1235063E+00
          4   -1    0    0  501    0  0.00000000000E+00  0.00000000000E+00  0.21392528751E+02  0.21430193335E+02  0.12700000000E+01 0. -1.
         -4   -1    0    0    0  501 -0.00000000000E+00 -0.00000000000E+00 -0.18241086433E+03  0.18241528534E+03  0.12700000000E+01 0. -1.
         25    2    1    2    0    0  0.00000000000E+00  0.00000000000E+00 -0.16101833557E+03  0.20384547867E+03  0.12500429906E+03 0.  0.
    9000005    1    3    3    0    0  0.29724532210E+02 -0.32965995268E+00 -0.17015156510E+03  0.17273161725E+03  0.10000000000E+01 0.  0.
    9000005    1    3    3    0    0 -0.29724532210E+02  0.32965995268E+00  0.91332295295E+01  0.31113861420E+02  0.10000000000E+01 0.  0.
<mgrwt>
<rscale>  0 0.12500430E+03</rscale>
<asrwt>0</asrwt>
<pdfrwt beam="1">  1        4 0.32943957E-02 0.12500430E+03</pdfrwt>
<pdfrwt beam="2">  1       -4 0.28066446E-01 0.12500430E+03</pdfrwt>
<totfact> 0.89482358E+03</totfact>
</mgrwt>
</event>
<event>
 5    1  0.3277540E-002  0.1249966E+03  0.7818608E-02  0.1235075E+00
         -4   -1    0    0    0  501 -0.00000000000E+00  0.00000000000E+00  0.49960080131E+02  0.49976219411E+02  0.12700000000E+01 0. -1.
          4   -1    0    0  501    0  0.00000000000E+00 -0.00000000000E+00 -0.78149292991E+02  0.78159611661E+02  0.12700000000E+01 0. -1.
         25    2    1    2    0    0  0.00000000000E+00  0.00000000000E+00 -0.28189212860E+02  0.12813583107E+03  0.12499663789E+03 0.  0.
    9000005    1    3    3    0    0  0.35078171415E+02 -0.46316103282E+02 -0.37680707849E+02  0.69256734525E+02  0.10000000000E+01 0.  0.
    9000005    1    3    3    0    0 -0.35078171415E+02  0.46316103282E+02  0.94914949886E+01  0.58879096547E+02  0.10000000000E+01 0.  0.
<mgrwt>
<rscale>  0 0.12499664E+03</rscale>
<asrwt>0</asrwt>
<pdfrwt beam="2">  1        4 0.12025003E-01 0.12499664E+03</pdfrwt>
<pdfrwt beam="1">  1       -4 0.76882014E-02 0.12499664E+03</pdfrwt>
<totfact> 0.10385343E+04</totfact>
</mgrwt>
</event>
<event>
 5    1  0.3277540E-002  0.1249988E+03  0.7818608E-02  0.1235071E+00
         -4   -1    0    0    0  501 -0.00000000000E+00  0.00000000000E+00  0.84350178955E+02  0.84359739151E+02  0.12700000000E+01 0.  1.
          4   -1    0    0  501    0  0.00000000000E+00 -0.00000000000E+00 -0.46288167836E+02  0.46305586937E+02  0.12700000000E+01 0.  1.
         25    2    1    2    0    0  0.00000000000E+00  0.00000000000E+00  0.38062011119E+02  0.13066532609E+03  0.12499884300E+03 0.  0.
    9000005    1    3    3    0    0 -0.75973193236E+01  0.58722225124E+02 -0.18536426922E+01  0.59249092615E+02  0.10000000000E+01 0.  0.
    9000005    1    3    3    0    0  0.75973193236E+01 -0.58722225124E+02  0.39915653811E+02  0.71416233474E+02  0.10000000000E+01 0.  0.
<mgrwt>
<rscale>  0 0.12499884E+03</rscale>
<asrwt>0</asrwt>
<pdfrwt beam="2">  1        4 0.71233320E-02 0.12499884E+03</pdfrwt>
<pdfrwt beam="1">  1       -4 0.12979026E-01 0.12499884E+03</pdfrwt>
<totfact> 0.10330539E+04</totfact>
</mgrwt>
</event>
<event>
 5    1  0.3277540E-002  0.1249922E+03  0.7818608E-02  0.1235082E+00
         -4   -1    0    0    0  501 -0.00000000000E+00  0.00000000000E+00  0.10705433852E+03  0.10706187135E+03  0.12700000000E+01 0. -1.
          4   -1    0    0  501    0  0.00000000000E+00 -0.00000000000E+00 -0.36464041692E+02  0.36486151298E+02  0.12700000000E+01 0. -1.
         25    2    1    2    0    0  0.00000000000E+00  0.00000000000E+00  0.70590296829E+02  0.14354802264E+03  0.12499217895E+03 0.  0.
    9000005    1    3    3    0    0 -0.10961042553E+02 -0.75977610366E+01  0.10540639804E+03  0.10625149023E+03  0.10000000000E+01 0.  0.
    9000005    1    3    3    0    0  0.10961042553E+02  0.75977610366E+01 -0.34816101215E+02  0.37296532418E+02  0.10000000000E+01 0.  0.
<mgrwt>
<rscale>  0 0.12499218E+03</rscale>
<asrwt>0</asrwt>
<pdfrwt beam="2">  1        4 0.56121328E-02 0.12499218E+03</pdfrwt>
<pdfrwt beam="1">  1       -4 0.16472178E-01 0.12499218E+03</pdfrwt>
<totfact> 0.10062345E+04</totfact>
</mgrwt>
</event>
<event>
 5    1  0.3277540E-002  0.1249988E+03  0.7818608E-02  0.1235071E+00
          4   -1    0    0  501    0  0.00000000000E+00  0.00000000000E+00  0.41011581965E+03  0.41011778605E+03  0.12700000000E+01 0.  1.
         -4   -1    0    0    0  501 -0.00000000000E+00 -0.00000000000E+00 -0.94802248298E+01  0.95649131112E+01  0.12700000000E+01 0.  1.
         25    2    1    2    0    0  0.00000000000E+00  0.00000000000E+00  0.40063559482E+03  0.41968269916E+03  0.12499875252E+03 0.  0.
    9000005    1    3    3    0    0 -0.33689561228E+02  0.96575654472E+01  0.37403100299E+03  0.37567066202E+03  0.10000000000E+01 0.  0.
    9000005    1    3    3    0    0  0.33689561228E+02 -0.96575654472E+01  0.26604591835E+02  0.44012037135E+02  0.10000000000E+01 0.  0.
<mgrwt>
<rscale>  0 0.12499875E+03</rscale>
<asrwt>0</asrwt>
<pdfrwt beam="1">  1        4 0.63101389E-01 0.12499875E+03</pdfrwt>
<pdfrwt beam="2">  1       -4 0.14651623E-02 0.12499875E+03</pdfrwt>
<totfact> 0.62684190E+03</totfact>
</mgrwt>
</event>
<event>
 5    1  0.3277540E-002  0.1250000E+03  0.7818608E-02  0.1235069E+00
          4   -1    0    0  501    0  0.00000000000E+00  0.00000000000E+00  0.96458555608E+01  0.97291021940E+01  0.12700000000E+01 0.  1.
         -4   -1    0    0    0  501 -0.00000000000E+00 -0.00000000000E+00 -0.40314226613E+03  0.40314426654E+03  0.12700000000E+01 0.  1.
         25    2    1    2    0    0  0.00000000000E+00  0.00000000000E+00 -0.39349641057E+03  0.41287336873E+03  0.12499997390E+03 0.  0.
    9000005    1    3    3    0    0 -0.41359540640E+01  0.44671598986E+02 -0.53055316459E+02  0.69487585054E+02  0.10000000000E+01 0.  0.
    9000005    1    3    3    0    0  0.41359540640E+01 -0.44671598986E+02 -0.34044109411E+03  0.34338578368E+03  0.10000000000E+01 0.  0.
<mgrwt>
<rscale>  0 0.12499997E+03</rscale>
<asrwt>0</asrwt>
<pdfrwt beam="1">  1        4 0.14905356E-02 0.12499997E+03</pdfrwt>
<pdfrwt beam="2">  1       -4 0.62028432E-01 0.12499997E+03</pdfrwt>
<totfact> 0.63319749E+03</totfact>
</mgrwt>
</event>
<event>
 5    1  0.3277540E-002  0.1250026E+03  0.7818608E-02  0.1235065E+00
         -4   -1    0    0    0  501 -0.00000000000E+00  0.00000000000E+00  0.89981764862E+03  0.89981854485E+03  0.12700000000E+01 0.  1.
          4   -1    0    0  501    0  0.00000000000E+00 -0.00000000000E+00 -0.42475374831E+01  0.44333367423E+01  0.12700000000E+01 0.  1.
         25    2    1    2    0    0  0.00000000000E+00  0.00000000000E+00  0.89557011113E+03  0.90425188160E+03  0.12500256563E+03 0.  0.
    9000005    1    3    3    0    0  0.39630278643E+02  0.42249645287E+02  0.61740632275E+03  0.62011866516E+03  0.10000000000E+01 0.  0.
    9000005    1    3    3    0    0 -0.39630278643E+02 -0.42249645287E+02  0.27816378838E+03  0.28413321643E+03  0.10000000000E+01 0.  0.
<mgrwt>
<rscale>  0 0.12500257E+03</rscale>
<asrwt>0</asrwt>
<pdfrwt beam="2">  1        4 0.66782784E-03 0.12500257E+03</pdfrwt>
<pdfrwt beam="1">  1       -4 0.13844798E+00 0.12500257E+03</pdfrwt>
<totfact> 0.33995692E+03</totfact>
</mgrwt>
</event>
<event>
 5    1  0.3277540E-002  0.1250012E+03  0.7818608E-02  0.1235067E+00
          4   -1    0    0  501    0  0.00000000000E+00  0.00000000000E+00  0.54479134652E+02  0.54493935556E+02  0.12700000000E+01 0. -1.
         -4   -1    0    0    0  501 -0.00000000000E+00 -0.00000000000E+00 -0.71672944993E+02  0.71684195915E+02  0.12700000000E+01 0. -1.
         25    2    1    2    0    0  0.00000000000E+00  0.00000000000E+00 -0.17193810341E+02  0.12617813147E+03  0.12500117498E+03 0.  0.
    9000005    1    3    3    0    0  0.59577685524E+02  0.72506627438E+01  0.89811536241E+01  0.60693771039E+02  0.10000000000E+01 0.  0.
    9000005    1    3    3    0    0 -0.59577685524E+02 -0.72506627438E+01 -0.26174963965E+02  0.65484360432E+02  0.10000000000E+01 0.  0.
<mgrwt>
<rscale>  0 0.12500117E+03</rscale>
<asrwt>0</asrwt>
<pdfrwt beam="1">  1        4 0.83834093E-02 0.12500117E+03</pdfrwt>
<pdfrwt beam="2">  1       -4 0.11028611E-01 0.12500117E+03</pdfrwt>
<totfact> 0.10426781E+04</totfact>
</mgrwt>
</event>
<event>
 5    1  0.3277540E-002  0.1250006E+03  0.7818608E-02  0.1235068E+00
         -4   -1    0    0    0  501 -0.00000000000E+00  0.00000000000E+00  0.54014853316E+01  0.55487785852E+01  0.12700000000E+01 0.  1.
          4   -1    0    0  501    0  0.00000000000E+00 -0.00000000000E+00 -0.71331259926E+03  0.71331372983E+03  0.12700000000E+01 0.  1.
         25    2    1    2    0    0  0.00000000000E+00  0.00000000000E+00 -0.70791111393E+03  0.71886250841E+03  0.12500064312E+03 0.  0.
    9000005    1    3    3    0    0  0.58385336273E+01  0.57335751229E+02 -0.49290941131E+03  0.49626823856E+03  0.10000000000E+01 0.  0.
    9000005    1    3    3    0    0 -0.58385336273E+01 -0.57335751229E+02 -0.21500170262E+03  0.22259426985E+03  0.10000000000E+01 0.  0.
<mgrwt>
<rscale>  0 0.12500064E+03</rscale>
<asrwt>0</asrwt>
<pdfrwt beam="2">  1        4 0.10975174E+00 0.12500064E+03</pdfrwt>
<pdfrwt beam="1">  1       -4 0.84241553E-03 0.12500064E+03</pdfrwt>
<totfact> 0.42108916E+03</totfact>
</mgrwt>
</event>
<event>
 5    1  0.3277540E-002  0.1250065E+03  0.7818608E-02  0.1235059E+00
          4   -1    0    0  501    0  0.00000000000E+00  0.00000000000E+00  0.75449109625E+01  0.76510510018E+01  0.12700000000E+01 0. -1.
         -4   -1    0    0    0  501 -0.00000000000E+00 -0.00000000000E+00 -0.51406333465E+03  0.51406490342E+03  0.12700000000E+01 0. -1.
         25    2    1    2    0    0  0.00000000000E+00  0.00000000000E+00 -0.50651842369E+03  0.52171595442E+03  0.12500649410E+03 0.  0.
    9000005    1    3    3    0    0 -0.54737305067E+01  0.53784594750E+02 -0.38410470196E+03  0.38789195200E+03  0.10000000000E+01 0.  0.
    9000005    1    3    3    0    0  0.54737305067E+01 -0.53784594750E+02 -0.12241372173E+03  0.13382400243E+03  0.10000000000E+01 0.  0.
<mgrwt>
<rscale>  0 0.12500649E+03</rscale>
<asrwt>0</asrwt>
<pdfrwt beam="1">  1        4 0.11690412E-02 0.12500649E+03</pdfrwt>
<pdfrwt beam="2">  1       -4 0.79094925E-01 0.12500649E+03</pdfrwt>
<totfact> 0.54210257E+03</totfact>
</mgrwt>
</event>
<event>
 5    1  0.3277540E-002  0.1249990E+03  0.7818608E-02  0.1235071E+00
          4   -1    0    0  501    0  0.00000000000E+00  0.00000000000E+00  0.10366280749E+03  0.10367058675E+03  0.12700000000E+01 0. -1.
         -4   -1    0    0    0  501 -0.00000000000E+00 -0.00000000000E+00 -0.37661764228E+02  0.37683171108E+02  0.12700000000E+01 0. -1.
         25    2    1    2    0    0  0.00000000000E+00  0.00000000000E+00  0.66001043264E+02  0.14135375786E+03  0.12499898859E+03 0.  0.
    9000005    1    3    3    0    0  0.56523375772E+02  0.12962554315E+01  0.28977920581E+01  0.56621281207E+02  0.10000000000E+01 0.  0.
    9000005    1    3    3    0    0 -0.56523375772E+02 -0.12962554315E+01  0.63103251206E+02  0.84732476652E+02  0.10000000000E+01 0.  0.
<mgrwt>
<rscale>  0 0.12499899E+03</rscale>
<asrwt>0</asrwt>
<pdfrwt beam="1">  1        4 0.15950369E-01 0.12499899E+03</pdfrwt>
<pdfrwt beam="2">  1       -4 0.57963627E-02 0.12499899E+03</pdfrwt>
<totfact> 0.10105835E+04</totfact>
</mgrwt>
</event>
<event>
 5    1  0.3277540E-002  0.1249966E+03  0.7818608E-02  0.1235075E+00
         -4   -1    0    0    0  501 -0.00000000000E+00  0.00000000000E+00  0.32049061167E+03  0.32049312796E+03  0.12700000000E+01 0.  1.
          4   -1    0    0  501    0  0.00000000000E+00 -0.00000000000E+00 -0.12152017650E+02  0.12218200889E+02  0.12700000000E+01 0.  1.
         25    2    1    2    0    0  0.00000000000E+00  0.00000000000E+00  0.30833859402E+03  0.33271132885E+03  0.12499655908E+03 0.  0.
    9000005    1    3    3    0    0  0.18929515904E+02 -0.47681426635E+02  0.59192804281E+02  0.78336665087E+02  0.10000000000E+01 0.  0.
    9000005    1    3    3    0    0 -0.18929515904E+02  0.47681426635E+02  0.24914578974E+03  0.25437466376E+03  0.10000000000E+01 0.  0.
<mgrwt>
<rscale>  0 0.12499656E+03</rscale>
<asrwt>0</asrwt>
<pdfrwt beam="2">  1        4 0.18748259E-02 0.12499656E+03</pdfrwt>
<pdfrwt beam="1">  1       -4 0.49311530E-01 0.12499656E+03</pdfrwt>
<totfact> 0.71674821E+03</totfact>
</mgrwt>
</event>
<event>
 5    1  0.3277540E-002  0.1250003E+03  0.7818608E-02  0.1235069E+00
         -4   -1    0    0    0  501 -0.00000000000E+00  0.00000000000E+00  0.43870484928E+03  0.43870668753E+03  0.12700000000E+01 0. -1.
          4   -1    0    0  501    0  0.00000000000E+00 -0.00000000000E+00 -0.88569462373E+01  0.89475357865E+01  0.12700000000E+01 0. -1.
         25    2    1    2    0    0  0.00000000000E+00  0.00000000000E+00  0.42984790305E+03  0.44765422332E+03  0.12500033560E+03 0.  0.
    9000005    1    3    3    0    0 -0.24921454034E+02  0.52618508374E+02  0.29623309549E+03  0.30190202576E+03  0.10000000000E+01 0.  0.
    9000005    1    3    3    0    0  0.24921454034E+02 -0.52618508374E+02  0.13361480756E+03  0.14575219756E+03  0.10000000000E+01 0.  0.
<mgrwt>
<rscale>  0 0.12500034E+03</rscale>
<asrwt>0</asrwt>
<pdfrwt beam="2">  1        4 0.13697173E-02 0.12500034E+03</pdfrwt>
<pdfrwt beam="1">  1       -4 0.67500146E-01 0.12500034E+03</pdfrwt>
<totfact> 0.60167112E+03</totfact>
</mgrwt>
</event>
<event>
 5    1  0.3277540E-002  0.1250024E+03  0.7818608E-02  0.1235065E+00
          4   -1    0    0  501    0  0.00000000000E+00  0.00000000000E+00  0.35834694035E+02  0.35857191700E+02  0.12700000000E+01 0. -1.
         -4   -1    0    0    0  501 -0.00000000000E+00 -0.00000000000E+00 -0.10895134871E+03  0.10895875038E+03  0.12700000000E+01 0. -1.
         25    2    1    2    0    0  0.00000000000E+00  0.00000000000E+00 -0.73116654671E+02  0.14481594208E+03  0.12500244754E+03 0.  0.
    9000005    1    3    3    0    0  0.15948948896E+02  0.11253167197E+02  0.32218235492E+02  0.37683118781E+02  0.10000000000E+01 0.  0.
    9000005    1    3    3    0    0 -0.15948948896E+02 -0.11253167197E+02 -0.10533489016E+03  0.10713282330E+03  0.10000000000E+01 0.  0.
<mgrwt>
<rscale>  0 0.12500245E+03</rscale>
<asrwt>0</asrwt>
<pdfrwt beam="1">  1        4 0.55153298E-02 0.12500245E+03</pdfrwt>
<pdfrwt beam="2">  1       -4 0.16764046E-01 0.12500245E+03</pdfrwt>
<totfact> 0.10034176E+04</totfact>
</mgrwt>
</event>
<event>
 5    1  0.3277540E-002  0.1250015E+03  0.7818608E-02  0.1235067E+00
         -4   -1    0    0    0  501 -0.00000000000E+00  0.00000000000E+00  0.40302744814E+03  0.40302944911E+03  0.12700000000E+01 0.  1.
          4   -1    0    0  501    0  0.00000000000E+00 -0.00000000000E+00 -0.96488719716E+01  0.97320928029E+01  0.12700000000E+01 0.  1.
         25    2    1    2    0    0  0.00000000000E+00  0.00000000000E+00  0.39337857617E+03  0.41276154192E+03  0.12500154518E+03 0.  0.
    9000005    1    3    3    0    0 -0.31689261092E+02 -0.48406742435E+02  0.27468515638E+03  0.28071401304E+03  0.10000000000E+01 0.  0.
    9000005    1    3    3    0    0  0.31689261092E+02  0.48406742435E+02  0.11869341979E+03  0.13204752888E+03  0.10000000000E+01 0.  0.
<mgrwt>
<rscale>  0 0.12500155E+03</rscale>
<asrwt>0</asrwt>
<pdfrwt beam="2">  1        4 0.14909974E-02 0.12500155E+03</pdfrwt>
<pdfrwt beam="1">  1       -4 0.62010778E-01 0.12500155E+03</pdfrwt>
<totfact> 0.63328096E+03</totfact>
</mgrwt>
</event>
<event>
 5    1  0.3277540E-002  0.1249999E+03  0.7818608E-02  0.1235069E+00
         -4   -1    0    0    0  501 -0.00000000000E+00  0.00000000000E+00  0.14168235117E+03  0.14168804301E+03  0.12700000000E+01 0. -1.
          4   -1    0    0  501    0  0.00000000000E+00 -0.00000000000E+00 -0.27549550906E+02  0.27578808080E+02  0.12700000000E+01 0. -1.
         25    2    1    2    0    0  0.00000000000E+00  0.00000000000E+00  0.11413280026E+03  0.16926685109E+03  0.12499988313E+03 0.  0.
    9000005    1    3    3    0    0  0.32068822389E+01 -0.12894098990E+01  0.14155945670E+03  0.14160517806E+03  0.10000000000E+01 0.  0.
    9000005    1    3    3    0    0 -0.32068822389E+01  0.12894098990E+01 -0.27426656439E+02  0.27661673033E+02  0.10000000000E+01 0.  0.
<mgrwt>
<rscale>  0 0.12499988E+03</rscale>
<asrwt>0</asrwt>
<pdfrwt beam="2">  1        4 0.42410808E-02 0.12499988E+03</pdfrwt>
<pdfrwt beam="1">  1       -4 0.21799973E-01 0.12499988E+03</pdfrwt>
<totfact> 0.95585615E+03</totfact>
</mgrwt>
</event>
<event>
 5    1  0.3277540E-002  0.1250028E+03  0.7818608E-02  0.1235065E+00
          4   -1    0    0  501    0  0.00000000000E+00  0.00000000000E+00  0.20777871893E+02  0.20816648635E+02  0.12700000000E+01 0.  1.
         -4   -1    0    0    0  501 -0.00000000000E+00 -0.00000000000E+00 -0.18779282969E+03  0.18779712400E+03  0.12700000000E+01 0.  1.
         25    2    1    2    0    0  0.00000000000E+00  0.00000000000E+00 -0.16701495780E+03  0.20861377264E+03  0.12500283999E+03 0.  0.
    9000005    1    3    3    0    0 -0.31475840607E+02  0.41778525448E+02 -0.14057348607E+03  0.14999359558E+03  0.10000000000E+01 0.  0.
    9000005    1    3    3    0    0  0.31475840607E+02 -0.41778525448E+02 -0.26441471730E+02  0.58620177054E+02  0.10000000000E+01 0.  0.
<mgrwt>
<rscale>  0 0.12500284E+03</rscale>
<asrwt>0</asrwt>
<pdfrwt beam="1">  1        4 0.31999090E-02 0.12500284E+03</pdfrwt>
<pdfrwt beam="2">  1       -4 0.28894517E-01 0.12500284E+03</pdfrwt>
<totfact> 0.88697140E+03</totfact>
</mgrwt>
</event>
<event>
 5    1  0.3277540E-002  0.1249821E+03  0.7818608E-02  0.1235097E+00
          4   -1    0    0  501    0  0.00000000000E+00  0.00000000000E+00  0.64702212372E+01  0.65936835577E+01  0.12700000000E+01 0.  1.
         -4   -1    0    0    0  501 -0.00000000000E+00 -0.00000000000E+00 -0.59772670635E+03  0.59772805555E+03  0.12700000000E+01 0.  1.
         25    2    1    2    0    0  0.00000000000E+00  0.00000000000E+00 -0.59125648512E+03  0.60432173910E+03  0.12498213137E+03 0.  0.
    9000005    1    3    3    0    0  0.31154813646E+02 -0.12470776500E+02 -0.40777632542E+02  0.52820052968E+02  0.10000000000E+01 0.  0.
    9000005    1    3    3    0    0 -0.31154813646E+02  0.12470776500E+02 -0.55047885257E+03  0.55150168614E+03  0.10000000000E+01 0.  0.
<mgrwt>
<rscale>  0 0.12498213E+03</rscale>
<asrwt>0</asrwt>
<pdfrwt beam="1">  1        4 0.10050200E-02 0.12498213E+03</pdfrwt>
<pdfrwt beam="2">  1       -4 0.91967513E-01 0.12498213E+03</pdfrwt>
<totfact> 0.48615001E+03</totfact>
</mgrwt>
</event>
