<event>
 5    1  0.3331626E-002  0.1249977E+03  0.7818608E-02  0.1235073E+00
          4   -1    0    0  501    0  0.00000000000E+00  0.00000000000E+00  0.29864845253E+02  0.29891836377E+02  0.12700000000E+01 0.  1.
         -4   -1    0    0    0  501 -0.00000000000E+00 -0.00000000000E+00 -0.13070363972E+03  0.13070980964E+03  0.12700000000E+01 0.  1.
         25    2    1    2    0    0  0.00000000000E+00  0.00000000000E+00 -0.10083879447E+03  0.16060164602E+03  0.12499770491E+03 0.  0.
    9000005    1    3    3    0    0 -0.45471340049E+02  0.22688345852E+01 -0.10541755743E+03  0.11483314761E+03  0.10000000000E+01 0.  0.
    9000005    1    3    3    0    0  0.45471340049E+02 -0.22688345852E+01  0.45787629584E+01  0.45768498407E+02  0.10000000000E+01 0.  0.
<mgrwt>
<rscale>  0 0.12499770E+03</rscale>
<asrwt>0</asrwt>
<pdfrwt beam="1">  1        4 0.45971425E-02 0.12499770E+03</pdfrwt>
<pdfrwt beam="2">  1       -4 0.20110803E-01 0.12499770E+03</pdfrwt>
<totfact> 0.97231933E+03</totfact>
</mgrwt>
</event>
<event>
 5    1  0.3331626E-002  0.1249966E+03  0.7818608E-02  0.1235075E+00
         -4   -1    0    0    0  501 -0.00000000000E+00  0.00000000000E+00  0.50293252697E+01  0.51871969953E+01  0.12700000000E+01 0.  1.
          4   -1    0    0  501    0  0.00000000000E+00 -0.00000000000E+00 -0.76449322460E+03  0.76449427948E+03  0.12700000000E+01 0.  1.
         25    2    1    2    0    0  0.00000000000E+00  0.00000000000E+00 -0.75946389933E+03  0.76968147648E+03  0.12499664333E+03 0.  0.
    9000005    1    3    3    0    0  0.40011606310E+02  0.32762148769E+01 -0.84848428318E+02  0.93871816918E+02  0.10000000000E+01 0.  0.
    9000005    1    3    3    0    0 -0.40011606310E+02 -0.32762148769E+01 -0.67461547101E+03  0.67580965956E+03  0.10000000000E+01 0.  0.
<mgrwt>
<rscale>  0 0.12499664E+03</rscale>
<asrwt>0</asrwt>
<pdfrwt beam="2">  1        4 0.11762648E+00 0.12499664E+03</pdfrwt>
<pdfrwt beam="1">  1       -4 0.78596808E-03 0.12499664E+03</pdfrwt>
<totfact> 0.39652925E+03</totfact>
</mgrwt>
</event>
<event>
 5    1  0.3331626E-002  0.1250014E+03  0.7818608E-02  0.1235067E+00
          4   -1    0    0  501    0  0.00000000000E+00  0.00000000000E+00  0.64910527265E+01  0.66141262082E+01  0.12700000000E+01 0. -1.
         -4   -1    0    0    0  501 -0.00000000000E+00 -0.00000000000E+00 -0.59602783115E+03  0.59602918419E+03  0.12700000000E+01 0. -1.
         25    2    1    2    0    0  0.00000000000E+00  0.00000000000E+00 -0.58953677842E+03  0.60264331040E+03  0.12500138580E+03 0.  0.
    9000005    1    3    3    0    0  0.24682363548E+02  0.20604772403E+02 -0.36420731918E+02  0.48592647896E+02  0.10000000000E+01 0.  0.
    9000005    1    3    3    0    0 -0.24682363548E+02 -0.20604772403E+02 -0.55311604650E+03  0.55405066250E+03  0.10000000000E+01 0.  0.
<mgrwt>
<rscale>  0 0.12500139E+03</rscale>
<asrwt>0</asrwt>
<pdfrwt beam="1">  1        4 0.10081952E-02 0.12500139E+03</pdfrwt>
<pdfrwt beam="2">  1       -4 0.91706118E-01 0.12500139E+03</pdfrwt>
<totfact> 0.48699718E+03</totfact>
</mgrwt>
</event>
<event>
 5    1  0.3331626E-002  0.1250030E+03  0.7818608E-02  0.1235065E+00
         -4   -1    0    0    0  501 -0.00000000000E+00  0.00000000000E+00  0.11145947978E+03  0.11146671491E+03  0.12700000000E+01 0. -1.
          4   -1    0    0  501    0  0.00000000000E+00 -0.00000000000E+00 -0.35028149816E+02  0.35051165167E+02  0.12700000000E+01 0. -1.
         25    2    1    2    0    0  0.00000000000E+00  0.00000000000E+00  0.76431329961E+02  0.14651788007E+03  0.12500296389E+03 0.  0.
    9000005    1    3    3    0    0 -0.54136837542E+02  0.19423071925E+02  0.95675199297E+01  0.58314580850E+02  0.10000000000E+01 0.  0.
    9000005    1    3    3    0    0  0.54136837542E+02 -0.19423071925E+02  0.66863810031E+02  0.88203299224E+02  0.10000000000E+01 0.  0.
<mgrwt>
<rscale>  0 0.12500296E+03</rscale>
<asrwt>0</asrwt>
<pdfrwt beam="2">  1        4 0.53912731E-02 0.12500296E+03</pdfrwt>
<pdfrwt beam="1">  1       -4 0.17149939E-01 0.12500296E+03</pdfrwt>
<totfact> 0.99995719E+03</totfact>
</mgrwt>
</event>
<event>
 5    1  0.3331626E-002  0.1249992E+03  0.7818608E-02  0.1235071E+00
         -4   -1    0    0    0  501 -0.00000000000E+00  0.00000000000E+00  0.26854644325E+02  0.26884657741E+02  0.12700000000E+01 0. -1.
          4   -1    0    0  501    0  0.00000000000E+00 -0.00000000000E+00 -0.14534314288E+03  0.14534869137E+03  0.12700000000E+01 0. -1.
         25    2    1    2    0    0  0.00000000000E+00  0.00000000000E+00 -0.11848849855E+03  0.17223334911E+03  0.12499920902E+03 0.  0.
    9000005    1    3    3    0    0  0.40722918433E+01 -0.18328098459E+00 -0.14516650920E+03  0.14522717565E+03  0.10000000000E+01 0.  0.
    9000005    1    3    3    0    0 -0.40722918433E+01  0.18328098459E+00  0.26678010648E+02  0.27006173459E+02  0.10000000000E+01 0.  0.
<mgrwt>
<rscale>  0 0.12499921E+03</rscale>
<asrwt>0</asrwt>
<pdfrwt beam="2">  1        4 0.22363219E-01 0.12499921E+03</pdfrwt>
<pdfrwt beam="1">  1       -4 0.41342194E-02 0.12499921E+03</pdfrwt>
<totfact> 0.95035689E+03</totfact>
</mgrwt>
</event>
<event>
 4    1  0.3331626E-002  0.1245369E+03  0.7818608E-02  0.1235795E+00
         -4   -1    0    0    0  501 -0.00000000000E+00  0.00000000000E+00  0.62922790546E+02  0.62935605742E+02  0.12700000000E+01 0. -1.
          4   -1    0    0  501    0  0.00000000000E+00 -0.00000000000E+00 -0.61595236576E+02  0.61608327918E+02  0.12700000000E+01 0. -1.
    9000005    1    1    2    0    0  0.16547197343E+02 -0.27024109721E+02  0.54260151786E+02  0.62843267881E+02  0.10000000000E+01 0.  0.
    9000005    1    1    2    0    0 -0.16547197343E+02  0.27024109721E+02 -0.52932597816E+02  0.61700665779E+02  0.10000000000E+01 0.  0.
<mgrwt>
<rscale>  0 0.12453686E+03</rscale>
<asrwt>0</asrwt>
<pdfrwt beam="2">  1        4 0.94781831E-02 0.12453686E+03</pdfrwt>
<pdfrwt beam="1">  1       -4 0.96824221E-02 0.12453686E+03</pdfrwt>
<totfact> 0.10573057E+04</totfact>
</mgrwt>
</event>
<event>
 5    1  0.3331626E-002  0.1250016E+03  0.7818608E-02  0.1235067E+00
          4   -1    0    0  501    0  0.00000000000E+00  0.00000000000E+00  0.52737764721E+01  0.54245385313E+01  0.12700000000E+01 0. -1.
         -4   -1    0    0    0  501 -0.00000000000E+00 -0.00000000000E+00 -0.73012288222E+03  0.73012398676E+03  0.12700000000E+01 0. -1.
         25    2    1    2    0    0  0.00000000000E+00  0.00000000000E+00 -0.72484910575E+03  0.73554852529E+03  0.12500162780E+03 0.  0.
    9000005    1    3    3    0    0 -0.55905599476E+01 -0.25808112151E+02 -0.29139788007E+02  0.39337517187E+02  0.10000000000E+01 0.  0.
    9000005    1    3    3    0    0  0.55905599476E+01  0.25808112151E+02 -0.69570931774E+03  0.69621100811E+03  0.10000000000E+01 0.  0.
<mgrwt>
<rscale>  0 0.12500163E+03</rscale>
<asrwt>0</asrwt>
<pdfrwt beam="1">  1        4 0.82303286E-03 0.12500163E+03</pdfrwt>
<pdfrwt beam="2">  1       -4 0.11233820E+00 0.12500163E+03</pdfrwt>
<totfact> 0.41273629E+03</totfact>
</mgrwt>
</event>
<event>
 5    1  0.3331626E-002  0.1249984E+03  0.7818608E-02  0.1235072E+00
         -4   -1    0    0    0  501 -0.00000000000E+00  0.00000000000E+00  0.31936373225E+02  0.31961615022E+02  0.12700000000E+01 0. -1.
          4   -1    0    0  501    0  0.00000000000E+00 -0.00000000000E+00 -0.12223348644E+03  0.12224008388E+03  0.12700000000E+01 0. -1.
         25    2    1    2    0    0  0.00000000000E+00  0.00000000000E+00 -0.90297113217E+02  0.15420169891E+03  0.12499838115E+03 0.  0.
    9000005    1    3    3    0    0  0.52333355144E+02 -0.94534545161E+01 -0.85633432770E+02  0.10080789984E+03  0.10000000000E+01 0.  0.
    9000005    1    3    3    0    0 -0.52333355144E+02  0.94534545161E+01 -0.46636804476E+01  0.53393799062E+02  0.10000000000E+01 0.  0.
<mgrwt>
<rscale>  0 0.12499838E+03</rscale>
<asrwt>0</asrwt>
<pdfrwt beam="2">  1        4 0.18807601E-01 0.12499838E+03</pdfrwt>
<pdfrwt beam="1">  1       -4 0.49157374E-02 0.12499838E+03</pdfrwt>
<totfact> 0.98476029E+03</totfact>
</mgrwt>
</event>
<event>
 5    1  0.3331626E-002  0.1250069E+03  0.7818608E-02  0.1235058E+00
         -4   -1    0    0    0  501 -0.00000000000E+00  0.00000000000E+00  0.50359436327E+02  0.50375447662E+02  0.12700000000E+01 0.  1.
          4   -1    0    0  501    0  0.00000000000E+00 -0.00000000000E+00 -0.77542414482E+02  0.77552813899E+02  0.12700000000E+01 0.  1.
         25    2    1    2    0    0  0.00000000000E+00  0.00000000000E+00 -0.27182978155E+02  0.12792826156E+03  0.12500690303E+03 0.  0.
    9000005    1    3    3    0    0 -0.23838950900E+02 -0.32700793376E+02 -0.62328426887E+02  0.74320052918E+02  0.10000000000E+01 0.  0.
    9000005    1    3    3    0    0  0.23838950900E+02  0.32700793376E+02  0.35145448732E+02  0.53608208644E+02  0.10000000000E+01 0.  0.
<mgrwt>
<rscale>  0 0.12500690E+03</rscale>
<asrwt>0</asrwt>
<pdfrwt beam="2">  1        4 0.11931634E-01 0.12500690E+03</pdfrwt>
<pdfrwt beam="1">  1       -4 0.77496372E-02 0.12500690E+03</pdfrwt>
<totfact> 0.10387418E+04</totfact>
</mgrwt>
</event>
<event>
 5    1  0.3331626E-002  0.1249964E+03  0.7818608E-02  0.1235075E+00
         -4   -1    0    0    0  501 -0.00000000000E+00  0.00000000000E+00  0.74880747164E+02  0.74891516180E+02  0.12700000000E+01 0.  1.
          4   -1    0    0  501    0  0.00000000000E+00 -0.00000000000E+00 -0.52141002480E+02  0.52156466901E+02  0.12700000000E+01 0.  1.
         25    2    1    2    0    0  0.00000000000E+00  0.00000000000E+00  0.22739744684E+02  0.12704798308E+03  0.12499637601E+03 0.  0.
    9000005    1    3    3    0    0  0.46150024922E+01  0.49151713087E+02 -0.27571287041E+02  0.56554089299E+02  0.10000000000E+01 0.  0.
    9000005    1    3    3    0    0 -0.46150024922E+01 -0.49151713087E+02  0.50311031725E+02  0.70493893782E+02  0.10000000000E+01 0.  0.
<mgrwt>
<rscale>  0 0.12499638E+03</rscale>
<asrwt>0</asrwt>
<pdfrwt beam="2">  1        4 0.80237106E-02 0.12499638E+03</pdfrwt>
<pdfrwt beam="1">  1       -4 0.11522133E-01 0.12499638E+03</pdfrwt>
<totfact> 0.10408955E+04</totfact>
</mgrwt>
</event>
<event>
 5    1  0.3331626E-002  0.1249890E+03  0.7818608E-02  0.1235086E+00
         -4   -1    0    0    0  501 -0.00000000000E+00  0.00000000000E+00  0.18679023863E+03  0.18679455599E+03  0.12700000000E+01 0.  1.
          4   -1    0    0  501    0  0.00000000000E+00 -0.00000000000E+00 -0.20884961272E+02  0.20923539551E+02  0.12700000000E+01 0.  1.
         25    2    1    2    0    0  0.00000000000E+00  0.00000000000E+00  0.16590527736E+03  0.20771809554E+03  0.12498898416E+03 0.  0.
    9000005    1    3    3    0    0 -0.27231289152E+02  0.26981270645E+02  0.94492500591E+00  0.38359157417E+02  0.10000000000E+01 0.  0.
    9000005    1    3    3    0    0  0.27231289152E+02 -0.26981270645E+02  0.16496035235E+03  0.16935893812E+03  0.10000000000E+01 0.  0.
<mgrwt>
<rscale>  0 0.12498898E+03</rscale>
<asrwt>0</asrwt>
<pdfrwt beam="2">  1        4 0.32163705E-02 0.12498898E+03</pdfrwt>
<pdfrwt beam="1">  1       -4 0.28740260E-01 0.12498898E+03</pdfrwt>
<totfact> 0.88871795E+03</totfact>
</mgrwt>
</event>
<event>
 5    1  0.3331626E-002  0.1249972E+03  0.7818608E-02  0.1235074E+00
         -4   -1    0    0    0  501 -0.00000000000E+00  0.00000000000E+00  0.82392520451E+02  0.82402307772E+02  0.12700000000E+01 0.  1.
          4   -1    0    0  501    0  0.00000000000E+00 -0.00000000000E+00 -0.47387027872E+02  0.47404043187E+02  0.12700000000E+01 0.  1.
         25    2    1    2    0    0  0.00000000000E+00  0.00000000000E+00  0.35005492579E+02  0.12980635096E+03  0.12499721692E+03 0.  0.
    9000005    1    3    3    0    0  0.79362551956E+01  0.10982753842E+02 -0.45848172702E+02  0.47819033539E+02  0.10000000000E+01 0.  0.
    9000005    1    3    3    0    0 -0.79362551956E+01 -0.10982753842E+02  0.80853665281E+02  0.81987317421E+02  0.10000000000E+01 0.  0.
<mgrwt>
<rscale>  0 0.12499722E+03</rscale>
<asrwt>0</asrwt>
<pdfrwt beam="2">  1        4 0.72923738E-02 0.12499722E+03</pdfrwt>
<pdfrwt beam="1">  1       -4 0.12677834E-01 0.12499722E+03</pdfrwt>
<totfact> 0.10349302E+04</totfact>
</mgrwt>
</event>
<event>
 5    1  0.3331626E-002  0.1250003E+03  0.7818608E-02  0.1235069E+00
          4   -1    0    0  501    0  0.00000000000E+00  0.00000000000E+00  0.74206671104E+02  0.74217537930E+02  0.12700000000E+01 0. -1.
         -4   -1    0    0    0  501 -0.00000000000E+00 -0.00000000000E+00 -0.52617986766E+02  0.52633311043E+02  0.12700000000E+01 0. -1.
         25    2    1    2    0    0  0.00000000000E+00  0.00000000000E+00  0.21588684338E+02  0.12685084897E+03  0.12500026637E+03 0.  0.
    9000005    1    3    3    0    0 -0.72012534980E+01 -0.59582277605E+02 -0.68807694178E+01  0.60417305835E+02  0.10000000000E+01 0.  0.
    9000005    1    3    3    0    0  0.72012534980E+01  0.59582277605E+02  0.28469453756E+02  0.66433543137E+02  0.10000000000E+01 0.  0.
<mgrwt>
<rscale>  0 0.12500027E+03</rscale>
<asrwt>0</asrwt>
<pdfrwt beam="1">  1        4 0.11418426E-01 0.12500027E+03</pdfrwt>
<pdfrwt beam="2">  1       -4 0.80970896E-02 0.12500027E+03</pdfrwt>
<totfact> 0.10412325E+04</totfact>
</mgrwt>
</event>
<event>
 5    1  0.3331626E-002  0.1249969E+03  0.7818608E-02  0.1235074E+00
         -4   -1    0    0    0  501 -0.00000000000E+00  0.00000000000E+00  0.82050028454E+03  0.82050126741E+03  0.12700000000E+01 0. -1.
          4   -1    0    0  501    0  0.00000000000E+00 -0.00000000000E+00 -0.46748778226E+01  0.48443144671E+01  0.12700000000E+01 0. -1.
         25    2    1    2    0    0  0.00000000000E+00  0.00000000000E+00  0.81582540672E+03  0.82534558188E+03  0.12499694111E+03 0.  0.
    9000005    1    3    3    0    0 -0.11547295488E-01 -0.32508263450E+02  0.76030559344E+03  0.76100090851E+03  0.10000000000E+01 0.  0.
    9000005    1    3    3    0    0  0.11547295488E-01  0.32508263450E+02  0.55519813271E+02  0.64344673373E+02  0.10000000000E+01 0.  0.
<mgrwt>
<rscale>  0 0.12499694E+03</rscale>
<asrwt>0</asrwt>
<pdfrwt beam="2">  1        4 0.73232072E-03 0.12499694E+03</pdfrwt>
<pdfrwt beam="1">  1       -4 0.12624400E+00 0.12499694E+03</pdfrwt>
<totfact> 0.37160426E+03</totfact>
</mgrwt>
</event>
<event>
 5    1  0.3331626E-002  0.1249982E+03  0.7818608E-02  0.1235072E+00
         -4   -1    0    0    0  501 -0.00000000000E+00  0.00000000000E+00  0.24955674217E+02  0.24987968618E+02  0.12700000000E+01 0.  1.
          4   -1    0    0  501    0  0.00000000000E+00 -0.00000000000E+00 -0.15638685363E+03  0.15639201031E+03  0.12700000000E+01 0.  1.
         25    2    1    2    0    0  0.00000000000E+00  0.00000000000E+00 -0.13143117942E+03  0.18137997893E+03  0.12499816732E+03 0.  0.
    9000005    1    3    3    0    0 -0.23386436150E+02 -0.57086111249E+02 -0.51249597354E+02  0.80207672465E+02  0.10000000000E+01 0.  0.
    9000005    1    3    3    0    0  0.23386436150E+02  0.57086111249E+02 -0.80181582063E+02  0.10117230647E+03  0.10000000000E+01 0.  0.
<mgrwt>
<rscale>  0 0.12499817E+03</rscale>
<asrwt>0</asrwt>
<pdfrwt beam="2">  1        4 0.24062396E-01 0.12499817E+03</pdfrwt>
<pdfrwt beam="1">  1       -4 0.38422155E-02 0.12499817E+03</pdfrwt>
<totfact> 0.93373027E+03</totfact>
</mgrwt>
</event>
<event>
 5    1  0.3331626E-002  0.1249989E+03  0.7818608E-02  0.1235071E+00
          4   -1    0    0  501    0  0.00000000000E+00  0.00000000000E+00  0.34556591101E+02  0.34579920308E+02  0.12700000000E+01 0. -1.
         -4   -1    0    0    0  501 -0.00000000000E+00 -0.00000000000E+00 -0.11297210121E+03  0.11297923947E+03  0.12700000000E+01 0. -1.
         25    2    1    2    0    0  0.00000000000E+00  0.00000000000E+00 -0.78415510110E+02  0.14755915978E+03  0.12499885363E+03 0.  0.
    9000005    1    3    3    0    0  0.52483123202E+01  0.61234481937E+02 -0.25853573711E+02  0.66682935103E+02  0.10000000000E+01 0.  0.
    9000005    1    3    3    0    0 -0.52483123202E+01 -0.61234481937E+02 -0.52561936398E+02  0.80876224679E+02  0.10000000000E+01 0.  0.
<mgrwt>
<rscale>  0 0.12499885E+03</rscale>
<asrwt>0</asrwt>
<pdfrwt beam="1">  1        4 0.53187423E-02 0.12499885E+03</pdfrwt>
<pdfrwt beam="2">  1       -4 0.17382667E-01 0.12499885E+03</pdfrwt>
<totfact> 0.99795062E+03</totfact>
</mgrwt>
</event>
<event>
 5    1  0.3331626E-002  0.1250058E+03  0.7818608E-02  0.1235060E+00
          4   -1    0    0  501    0  0.00000000000E+00  0.00000000000E+00  0.26787138701E+02  0.26817227668E+02  0.12700000000E+01 0.  1.
         -4   -1    0    0    0  501 -0.00000000000E+00 -0.00000000000E+00 -0.14572442187E+03  0.14572995584E+03  0.12700000000E+01 0.  1.
         25    2    1    2    0    0  0.00000000000E+00  0.00000000000E+00 -0.11893728317E+03  0.17254718351E+03  0.12500581270E+03 0.  0.
    9000005    1    3    3    0    0 -0.16958241524E+02 -0.54532412945E+02 -0.24433492868E+02  0.62123760276E+02  0.10000000000E+01 0.  0.
    9000005    1    3    3    0    0  0.16958241524E+02  0.54532412945E+02 -0.94503790302E+02  0.11042342323E+03  0.10000000000E+01 0.  0.
<mgrwt>
<rscale>  0 0.12500581E+03</rscale>
<asrwt>0</asrwt>
<pdfrwt beam="1">  1        4 0.41238386E-02 0.12500581E+03</pdfrwt>
<pdfrwt beam="2">  1       -4 0.22421882E-01 0.12500581E+03</pdfrwt>
<totfact> 0.94963611E+03</totfact>
</mgrwt>
</event>
<event>
 5    1  0.3331626E-002  0.1250011E+03  0.7818608E-02  0.1235068E+00
         -4   -1    0    0    0  501 -0.00000000000E+00  0.00000000000E+00  0.10567587289E+04  0.10567594920E+04  0.12700000000E+01 0. -1.
          4   -1    0    0  501    0  0.00000000000E+00 -0.00000000000E+00 -0.35866411079E+01  0.38048514343E+01  0.12700000000E+01 0. -1.
         25    2    1    2    0    0  0.00000000000E+00  0.00000000000E+00  0.10531720878E+04  0.10605643435E+04  0.12500112053E+03 0.  0.
    9000005    1    3    3    0    0  0.24101328790E+01 -0.31519468268E+02  0.98396217049E+03  0.98447033402E+03  0.10000000000E+01 0.  0.
    9000005    1    3    3    0    0 -0.24101328790E+01  0.31519468268E+02  0.69209917308E+02  0.76094009450E+02  0.10000000000E+01 0.  0.
<mgrwt>
<rscale>  0 0.12500112E+03</rscale>
<asrwt>0</asrwt>
<pdfrwt beam="2">  1        4 0.56863411E-03 0.12500112E+03</pdfrwt>
<pdfrwt beam="1">  1       -4 0.16259538E+00 0.12500112E+03</pdfrwt>
<totfact> 0.28666434E+03</totfact>
</mgrwt>
</event>
<event>
 5    1  0.3331626E-002  0.1250012E+03  0.7818608E-02  0.1235067E+00
          4   -1    0    0  501    0  0.00000000000E+00  0.00000000000E+00  0.11814955743E+03  0.11815638290E+03  0.12700000000E+01 0. -1.
         -4   -1    0    0    0  501 -0.00000000000E+00 -0.00000000000E+00 -0.33042564265E+02  0.33066961657E+02  0.12700000000E+01 0. -1.
         25    2    1    2    0    0  0.00000000000E+00  0.00000000000E+00  0.85106993160E+02  0.15122334456E+03  0.12500119861E+03 0.  0.
    9000005    1    3    3    0    0  0.45914617389E+02  0.39633043757E+02  0.60756278116E+02  0.85856016551E+02  0.10000000000E+01 0.  0.
    9000005    1    3    3    0    0 -0.45914617389E+02 -0.39633043757E+02  0.24350715044E+02  0.65367328006E+02  0.10000000000E+01 0.  0.
<mgrwt>
<rscale>  0 0.12500120E+03</rscale>
<asrwt>0</asrwt>
<pdfrwt beam="1">  1        4 0.18179257E-01 0.12500120E+03</pdfrwt>
<pdfrwt beam="2">  1       -4 0.50858732E-02 0.12500120E+03</pdfrwt>
<totfact> 0.99057728E+03</totfact>
</mgrwt>
</event>
<event>
 5    1  0.3331626E-002  0.1250002E+03  0.7818608E-02  0.1235069E+00
          4   -1    0    0  501    0  0.00000000000E+00  0.00000000000E+00  0.15832272797E+02  0.15883128216E+02  0.12700000000E+01 0.  1.
         -4   -1    0    0    0  501 -0.00000000000E+00 -0.00000000000E+00 -0.24627966506E+03  0.24628293957E+03  0.12700000000E+01 0.  1.
         25    2    1    2    0    0  0.00000000000E+00  0.00000000000E+00 -0.23044739226E+03  0.26216606778E+03  0.12500018599E+03 0.  0.
    9000005    1    3    3    0    0  0.27027245682E+02 -0.18350523729E+02 -0.22695520947E+03  0.22929649111E+03  0.10000000000E+01 0.  0.
    9000005    1    3    3    0    0 -0.27027245682E+02  0.18350523729E+02 -0.34921827976E+01  0.32869576678E+02  0.10000000000E+01 0.  0.
<mgrwt>
<rscale>  0 0.12500019E+03</rscale>
<asrwt>0</asrwt>
<pdfrwt beam="1">  1        4 0.24398983E-02 0.12500019E+03</pdfrwt>
<pdfrwt beam="2">  1       -4 0.37893340E-01 0.12500019E+03</pdfrwt>
<totfact> 0.80602709E+03</totfact>
</mgrwt>
</event>
<event>
 5    1  0.3331626E-002  0.1250061E+03  0.7818608E-02  0.1235060E+00
         -4   -1    0    0    0  501 -0.00000000000E+00  0.00000000000E+00  0.20623182576E+02  0.20662249625E+02  0.12700000000E+01 0. -1.
          4   -1    0    0  501    0  0.00000000000E+00 -0.00000000000E+00 -0.18920874365E+03  0.18921300583E+03  0.12700000000E+01 0. -1.
         25    2    1    2    0    0  0.00000000000E+00  0.00000000000E+00 -0.16858556107E+03  0.20987525545E+03  0.12500612564E+03 0.  0.
    9000005    1    3    3    0    0 -0.29684818657E+02  0.14670669956E+02  0.46933858579E+01  0.33458106438E+02  0.10000000000E+01 0.  0.
    9000005    1    3    3    0    0  0.29684818657E+02 -0.14670669956E+02 -0.17327894693E+03  0.17641714901E+03  0.10000000000E+01 0.  0.
<mgrwt>
<rscale>  0 0.12500613E+03</rscale>
<asrwt>0</asrwt>
<pdfrwt beam="2">  1        4 0.29112369E-01 0.12500613E+03</pdfrwt>
<pdfrwt beam="1">  1       -4 0.31761305E-02 0.12500613E+03</pdfrwt>
<totfact> 0.88484139E+03</totfact>
</mgrwt>
</event>
<event>
 5    1  0.3331626E-002  0.1250049E+03  0.7818608E-02  0.1235062E+00
          4   -1    0    0  501    0  0.00000000000E+00  0.00000000000E+00  0.43963915322E+01  0.45761510579E+01  0.12700000000E+01 0.  1.
         -4   -1    0    0    0  501 -0.00000000000E+00 -0.00000000000E+00 -0.87059980073E+03  0.87060072704E+03  0.12700000000E+01 0.  1.
         25    2    1    2    0    0  0.00000000000E+00  0.00000000000E+00 -0.86620340920E+03  0.87517687810E+03  0.12500488734E+03 0.  0.
    9000005    1    3    3    0    0 -0.14994682848E+02 -0.18910382579E+02 -0.83669259632E+03  0.83704118407E+03  0.10000000000E+01 0.  0.
    9000005    1    3    3    0    0  0.14994682848E+02  0.18910382579E+02 -0.29510812873E+02  0.38135694034E+02  0.10000000000E+01 0.  0.
<mgrwt>
<rscale>  0 0.12500489E+03</rscale>
<asrwt>0</asrwt>
<pdfrwt beam="1">  1        4 0.69026753E-03 0.12500489E+03</pdfrwt>
<pdfrwt beam="2">  1       -4 0.13395220E+00 0.12500489E+03</pdfrwt>
<totfact> 0.35114914E+03</totfact>
</mgrwt>
</event>
<event>
 5    1  0.3331626E-002  0.1250002E+03  0.7818608E-02  0.1235069E+00
          4   -1    0    0  501    0  0.00000000000E+00  0.00000000000E+00  0.35758705172E+02  0.35781250615E+02  0.12700000000E+01 0.  1.
         -4   -1    0    0    0  501 -0.00000000000E+00 -0.00000000000E+00 -0.10917886378E+03  0.10918625004E+03  0.12700000000E+01 0.  1.
         25    2    1    2    0    0  0.00000000000E+00  0.00000000000E+00 -0.73420158612E+02  0.14496750065E+03  0.12500022622E+03 0.  0.
    9000005    1    3    3    0    0  0.48592038336E+02  0.31561364607E+02 -0.95623460814E+01  0.58734524669E+02  0.10000000000E+01 0.  0.
    9000005    1    3    3    0    0 -0.48592038336E+02 -0.31561364607E+02 -0.63857812530E+02  0.86232975982E+02  0.10000000000E+01 0.  0.
<mgrwt>
<rscale>  0 0.12500023E+03</rscale>
<asrwt>0</asrwt>
<pdfrwt beam="1">  1        4 0.55036418E-02 0.12500023E+03</pdfrwt>
<pdfrwt beam="2">  1       -4 0.16799050E-01 0.12500023E+03</pdfrwt>
<totfact> 0.10031598E+04</totfact>
</mgrwt>
</event>
<event>
 5    1  0.3331626E-002  0.1249827E+03  0.7818608E-02  0.1235096E+00
          4   -1    0    0  501    0  0.00000000000E+00  0.00000000000E+00  0.16233496663E+04  0.16233501631E+04  0.12700000000E+01 0.  1.
         -4   -1    0    0    0  501 -0.00000000000E+00 -0.00000000000E+00 -0.22374764904E+01  0.25727808000E+01  0.12700000000E+01 0.  1.
         25    2    1    2    0    0  0.00000000000E+00  0.00000000000E+00  0.16211121898E+04  0.16259229439E+04  0.12498274877E+03 0.  0.
    9000005    1    3    3    0    0 -0.21646849635E+02  0.57145661398E+02  0.98015465929E+03  0.98205823088E+03  0.10000000000E+01 0.  0.
    9000005    1    3    3    0    0  0.21646849635E+02 -0.57145661398E+02  0.64095753054E+03  0.64386471302E+03  0.10000000000E+01 0.  0.
<mgrwt>
<rscale>  0 0.12498275E+03</rscale>
<asrwt>0</asrwt>
<pdfrwt beam="1">  1        4 0.24977213E+00 0.12498275E+03</pdfrwt>
<pdfrwt beam="2">  1       -4 0.37005771E-03 0.12498275E+03</pdfrwt>
<totfact> 0.15587907E+03</totfact>
</mgrwt>
</event>
<event>
 5    1  0.3331626E-002  0.1249931E+03  0.7818608E-02  0.1235080E+00
         -4   -1    0    0    0  501 -0.00000000000E+00  0.00000000000E+00  0.11527016958E+03  0.11527716554E+03  0.12700000000E+01 0.  1.
          4   -1    0    0  501    0  0.00000000000E+00 -0.00000000000E+00 -0.33864134368E+02  0.33887940281E+02  0.12700000000E+01 0.  1.
         25    2    1    2    0    0  0.00000000000E+00  0.00000000000E+00  0.81406035215E+02  0.14916510582E+03  0.12499314472E+03 0.  0.
    9000005    1    3    3    0    0  0.11610710631E+02  0.33783427765E+02  0.10188886473E+03  0.10797439209E+03  0.10000000000E+01 0.  0.
    9000005    1    3    3    0    0 -0.11610710631E+02 -0.33783427765E+02 -0.20482829510E+02  0.41190713731E+02  0.10000000000E+01 0.  0.
<mgrwt>
<rscale>  0 0.12499314E+03</rscale>
<asrwt>0</asrwt>
<pdfrwt beam="2">  1        4 0.52122362E-02 0.12499314E+03</pdfrwt>
<pdfrwt beam="1">  1       -4 0.17736242E-01 0.12499314E+03</pdfrwt>
<totfact> 0.99485732E+03</totfact>
</mgrwt>
</event>
<event>
 5    1  0.3331626E-002  0.1249981E+03  0.7818608E-02  0.1235072E+00
          4   -1    0    0  501    0  0.00000000000E+00  0.00000000000E+00  0.48662167964E+01  0.50292112612E+01  0.12700000000E+01 0. -1.
         -4   -1    0    0    0  501 -0.00000000000E+00 -0.00000000000E+00 -0.78931903034E+03  0.78932005204E+03  0.12700000000E+01 0. -1.
         25    2    1    2    0    0  0.00000000000E+00  0.00000000000E+00 -0.78445281354E+03  0.79434926330E+03  0.12499814173E+03 0.  0.
    9000005    1    3    3    0    0  0.33247343569E+02 -0.41383430167E+02 -0.60176046065E+03  0.60409819247E+03  0.10000000000E+01 0.  0.
    9000005    1    3    3    0    0 -0.33247343569E+02  0.41383430167E+02 -0.18269235289E+03  0.19025107083E+03  0.10000000000E+01 0.  0.
<mgrwt>
<rscale>  0 0.12499814E+03</rscale>
<asrwt>0</asrwt>
<pdfrwt beam="1">  1        4 0.76126599E-03 0.12499814E+03</pdfrwt>
<pdfrwt beam="2">  1       -4 0.12144621E+00 0.12499814E+03</pdfrwt>
<totfact> 0.38519830E+03</totfact>
</mgrwt>
</event>
<event>
 5    1  0.3331626E-002  0.1249974E+03  0.7818608E-02  0.1235073E+00
         -4   -1    0    0    0  501 -0.00000000000E+00  0.00000000000E+00  0.15362315902E+02  0.15414721855E+02  0.12700000000E+01 0.  1.
          4   -1    0    0  501    0  0.00000000000E+00 -0.00000000000E+00 -0.25377724683E+03  0.25378042459E+03  0.12700000000E+01 0.  1.
         25    2    1    2    0    0  0.00000000000E+00  0.00000000000E+00 -0.23841493092E+03  0.26919514645E+03  0.12499739031E+03 0.  0.
    9000005    1    3    3    0    0 -0.21498023124E+02 -0.58629251534E+02 -0.12427313999E+03  0.13908403020E+03  0.10000000000E+01 0.  0.
    9000005    1    3    3    0    0  0.21498023124E+02  0.58629251534E+02 -0.11414179093E+03  0.13011111625E+03  0.10000000000E+01 0.  0.
<mgrwt>
<rscale>  0 0.12499739E+03</rscale>
<asrwt>0</asrwt>
<pdfrwt beam="2">  1        4 0.39046926E-01 0.12499739E+03</pdfrwt>
<pdfrwt beam="1">  1       -4 0.23677091E-02 0.12499739E+03</pdfrwt>
<totfact> 0.79637347E+03</totfact>
</mgrwt>
</event>
<event>
 5    1  0.3331626E-002  0.1249998E+03  0.7818608E-02  0.1235070E+00
          4   -1    0    0  501    0  0.00000000000E+00  0.00000000000E+00  0.16338862593E+02  0.16388146047E+02  0.12700000000E+01 0. -1.
         -4   -1    0    0    0  501 -0.00000000000E+00 -0.00000000000E+00 -0.23866529691E+03  0.23866867589E+03  0.12700000000E+01 0. -1.
         25    2    1    2    0    0  0.00000000000E+00  0.00000000000E+00 -0.22232643432E+03  0.25505682194E+03  0.12499975607E+03 0.  0.
    9000005    1    3    3    0    0 -0.25382728172E+02  0.37172253688E+02 -0.22710446700E+02  0.50426418899E+02  0.10000000000E+01 0.  0.
    9000005    1    3    3    0    0  0.25382728172E+02 -0.37172253688E+02 -0.19961598762E+03  0.20463040304E+03  0.10000000000E+01 0.  0.
<mgrwt>
<rscale>  0 0.12499976E+03</rscale>
<asrwt>0</asrwt>
<pdfrwt beam="1">  1        4 0.25177223E-02 0.12499976E+03</pdfrwt>
<pdfrwt beam="2">  1       -4 0.36721786E-01 0.12499976E+03</pdfrwt>
<totfact> 0.81605254E+03</totfact>
</mgrwt>
</event>
<event>
 5    1  0.3331626E-002  0.1249900E+03  0.7818608E-02  0.1235085E+00
          4   -1    0    0  501    0  0.00000000000E+00  0.00000000000E+00  0.37654057653E+03  0.37654271826E+03  0.12700000000E+01 0. -1.
         -4   -1    0    0    0  501 -0.00000000000E+00 -0.00000000000E+00 -0.10331331852E+02  0.10409097840E+02  0.12700000000E+01 0. -1.
         25    2    1    2    0    0  0.00000000000E+00  0.00000000000E+00  0.36620924468E+03  0.38695181610E+03  0.12498998798E+03 0.  0.
    9000005    1    3    3    0    0 -0.67108214554E+01  0.32141329094E+02  0.18512892213E+02  0.37707125833E+02  0.10000000000E+01 0.  0.
    9000005    1    3    3    0    0  0.67108214554E+01 -0.32141329094E+02  0.34769635246E+03  0.34924469026E+03  0.10000000000E+01 0.  0.
<mgrwt>
<rscale>  0 0.12498999E+03</rscale>
<asrwt>0</asrwt>
<pdfrwt beam="1">  1        4 0.57935473E-01 0.12498999E+03</pdfrwt>
<pdfrwt beam="2">  1       -4 0.15955822E-02 0.12498999E+03</pdfrwt>
<totfact> 0.65856495E+03</totfact>
</mgrwt>
</event>
<event>
 5    1  0.3331626E-002  0.1250016E+03  0.7818608E-02  0.1235067E+00
         -4   -1    0    0    0  501 -0.00000000000E+00  0.00000000000E+00  0.42724856708E+03  0.42725045462E+03  0.12700000000E+01 0.  1.
          4   -1    0    0  501    0  0.00000000000E+00 -0.00000000000E+00 -0.90970212389E+01  0.91852433512E+01  0.12700000000E+01 0.  1.
         25    2    1    2    0    0  0.00000000000E+00  0.00000000000E+00  0.41815154584E+03  0.43643569797E+03  0.12500161268E+03 0.  0.
    9000005    1    3    3    0    0 -0.52896188302E+02  0.14369012590E+02  0.10428162124E+03  0.11781397111E+03  0.10000000000E+01 0.  0.
    9000005    1    3    3    0    0  0.52896188302E+02 -0.14369012590E+02  0.31386992460E+03  0.31862172686E+03  0.10000000000E+01 0.  0.
<mgrwt>
<rscale>  0 0.12500161E+03</rscale>
<asrwt>0</asrwt>
<pdfrwt beam="2">  1        4 0.14064731E-02 0.12500161E+03</pdfrwt>
<pdfrwt beam="1">  1       -4 0.65737486E-01 0.12500161E+03</pdfrwt>
<totfact> 0.61154757E+03</totfact>
</mgrwt>
</event>
<event>
 5    1  0.3331626E-002  0.1249861E+03  0.7818608E-02  0.1235091E+00
         -4   -1    0    0    0  501 -0.00000000000E+00  0.00000000000E+00  0.34900312793E+01  0.37139222300E+01  0.12700000000E+01 0. -1.
          4   -1    0    0  501    0  0.00000000000E+00 -0.00000000000E+00 -0.10840079576E+04  0.10840087015E+04  0.12700000000E+01 0. -1.
         25    2    1    2    0    0  0.00000000000E+00  0.00000000000E+00 -0.10805179263E+04  0.10877226238E+04  0.12498606797E+03 0.  0.
    9000005    1    3    3    0    0 -0.54749570772E+02  0.28542832438E+01 -0.80115531220E+03  0.80302957399E+03  0.10000000000E+01 0.  0.
    9000005    1    3    3    0    0  0.54749570772E+02 -0.28542832438E+01 -0.27936261411E+03  0.28469304978E+03  0.10000000000E+01 0.  0.
<mgrwt>
<rscale>  0 0.12498607E+03</rscale>
<asrwt>0</asrwt>
<pdfrwt beam="2">  1        4 0.16678747E+00 0.12498607E+03</pdfrwt>
<pdfrwt beam="1">  1       -4 0.55420836E-03 0.12498607E+03</pdfrwt>
<totfact> 0.27854028E+03</totfact>
</mgrwt>
</event>
<event>
 5    1  0.3331626E-002  0.1250018E+03  0.7818608E-02  0.1235066E+00
         -4   -1    0    0    0  501 -0.00000000000E+00  0.00000000000E+00  0.18460841253E+03  0.18461278092E+03  0.12700000000E+01 0.  1.
          4   -1    0    0  501    0  0.00000000000E+00 -0.00000000000E+00 -0.21136592950E+02  0.21174712785E+02  0.12700000000E+01 0.  1.
         25    2    1    2    0    0  0.00000000000E+00  0.00000000000E+00  0.16347181958E+03  0.20578749370E+03  0.12500182705E+03 0.  0.
    9000005    1    3    3    0    0  0.46117709203E+02  0.36541742909E+02  0.11639469430E+03  0.13042571425E+03  0.10000000000E+01 0.  0.
    9000005    1    3    3    0    0 -0.46117709203E+02 -0.36541742909E+02  0.47077125286E+02  0.75361779452E+02  0.10000000000E+01 0.  0.
<mgrwt>
<rscale>  0 0.12500183E+03</rscale>
<asrwt>0</asrwt>
<pdfrwt beam="2">  1        4 0.32550519E-02 0.12500183E+03</pdfrwt>
<pdfrwt beam="1">  1       -4 0.28404562E-01 0.12500183E+03</pdfrwt>
<totfact> 0.89164849E+03</totfact>
</mgrwt>
</event>
<event>
 5    1  0.3331626E-002  0.1249894E+03  0.7818608E-02  0.1235086E+00
         -4   -1    0    0    0  501 -0.00000000000E+00  0.00000000000E+00  0.11146361551E+04  0.11146368786E+04  0.12700000000E+01 0. -1.
          4   -1    0    0  501    0  0.00000000000E+00 -0.00000000000E+00 -0.33880878657E+01  0.36182923300E+01  0.12700000000E+01 0. -1.
         25    2    1    2    0    0  0.00000000000E+00  0.00000000000E+00  0.11112480672E+04  0.11182551709E+04  0.12498944116E+03 0.  0.
    9000005    1    3    3    0    0  0.57605904727E+02 -0.17131094587E+02  0.70868368791E+03  0.71122815198E+03  0.10000000000E+01 0.  0.
    9000005    1    3    3    0    0 -0.57605904727E+02  0.17131094587E+02  0.40256437933E+03  0.40702701896E+03  0.10000000000E+01 0.  0.
<mgrwt>
<rscale>  0 0.12498944E+03</rscale>
<asrwt>0</asrwt>
<pdfrwt beam="2">  1        4 0.53900761E-03 0.12498944E+03</pdfrwt>
<pdfrwt beam="1">  1       -4 0.17150037E+00 0.12498944E+03</pdfrwt>
<totfact> 0.26961356E+03</totfact>
</mgrwt>
</event>
<event>
 5    1  0.3331626E-002  0.1249929E+03  0.7818608E-02  0.1235080E+00
          4   -1    0    0  501    0  0.00000000000E+00  0.00000000000E+00  0.86134560042E+02  0.86143922210E+02  0.12700000000E+01 0. -1.
         -4   -1    0    0    0  501 -0.00000000000E+00 -0.00000000000E+00 -0.45324709281E+02  0.45342498513E+02  0.12700000000E+01 0. -1.
         25    2    1    2    0    0  0.00000000000E+00  0.00000000000E+00  0.40809850762E+02  0.13148642072E+03  0.12499293946E+03 0.  0.
    9000005    1    3    3    0    0 -0.42414340825E+02  0.42890213606E+02  0.32396800405E+01  0.60415579593E+02  0.10000000000E+01 0.  0.
    9000005    1    3    3    0    0  0.42414340825E+02 -0.42890213606E+02  0.37570170721E+02  0.71070841129E+02  0.10000000000E+01 0.  0.
<mgrwt>
<rscale>  0 0.12499294E+03</rscale>
<asrwt>0</asrwt>
<pdfrwt beam="1">  1        4 0.13253559E-01 0.12499294E+03</pdfrwt>
<pdfrwt beam="2">  1       -4 0.69751209E-02 0.12499294E+03</pdfrwt>
<totfact> 0.10314315E+04</totfact>
</mgrwt>
</event>
<event>
 5    1  0.3331626E-002  0.1250024E+03  0.7818608E-02  0.1235066E+00
         -4   -1    0    0    0  501 -0.00000000000E+00  0.00000000000E+00  0.25845019663E+03  0.25845331695E+03  0.12700000000E+01 0.  1.
          4   -1    0    0  501    0  0.00000000000E+00 -0.00000000000E+00 -0.15084816599E+02  0.15138183241E+02  0.12700000000E+01 0.  1.
         25    2    1    2    0    0  0.00000000000E+00  0.00000000000E+00  0.24336538004E+03  0.27359150019E+03  0.12500240308E+03 0.  0.
    9000005    1    3    3    0    0 -0.24933607887E+02  0.55765040557E+02  0.15055147222E+03  0.16247513760E+03  0.10000000000E+01 0.  0.
    9000005    1    3    3    0    0  0.24933607887E+02 -0.55765040557E+02  0.92813907818E+02  0.11111636259E+03  0.10000000000E+01 0.  0.
<mgrwt>
<rscale>  0 0.12500240E+03</rscale>
<asrwt>0</asrwt>
<pdfrwt beam="2">  1        4 0.23250862E-02 0.12500240E+03</pdfrwt>
<pdfrwt beam="1">  1       -4 0.39765914E-01 0.12500240E+03</pdfrwt>
<totfact> 0.79031346E+03</totfact>
</mgrwt>
</event>
<event>
 5    1  0.3331626E-002  0.1249980E+03  0.7818608E-02  0.1235072E+00
         -4   -1    0    0    0  501 -0.00000000000E+00  0.00000000000E+00  0.37348250292E+01  0.39448470185E+01  0.12700000000E+01 0.  1.
          4   -1    0    0  501    0  0.00000000000E+00 -0.00000000000E+00 -0.10170523279E+04  0.10170531208E+04  0.12700000000E+01 0.  1.
         25    2    1    2    0    0  0.00000000000E+00  0.00000000000E+00 -0.10133175028E+04  0.10209979678E+04  0.12499795487E+03 0.  0.
    9000005    1    3    3    0    0  0.48331375079E+02  0.30549747343E+02 -0.71263679303E+03  0.71492755414E+03  0.10000000000E+01 0.  0.
    9000005    1    3    3    0    0 -0.48331375079E+02 -0.30549747343E+02 -0.30068070981E+03  0.30607041368E+03  0.10000000000E+01 0.  0.
<mgrwt>
<rscale>  0 0.12499795E+03</rscale>
<asrwt>0</asrwt>
<pdfrwt beam="2">  1        4 0.15648559E+00 0.12499795E+03</pdfrwt>
<pdfrwt beam="1">  1       -4 0.59080581E-03 0.12499795E+03</pdfrwt>
<totfact> 0.29919248E+03</totfact>
</mgrwt>
</event>
<event>
 5    1  0.3331626E-002  0.1249999E+03  0.7818608E-02  0.1235069E+00
         -4   -1    0    0    0  501 -0.00000000000E+00  0.00000000000E+00  0.88240179449E+03  0.88240270842E+03  0.12700000000E+01 0. -1.
          4   -1    0    0  501    0  0.00000000000E+00 -0.00000000000E+00 -0.43348086414E+01  0.45170195879E+01  0.12700000000E+01 0. -1.
         25    2    1    2    0    0  0.00000000000E+00  0.00000000000E+00  0.87806698585E+03  0.88691972800E+03  0.12499988914E+03 0.  0.
    9000005    1    3    3    0    0  0.50821714418E+02  0.60638366892E+00  0.69701889430E+03  0.69887019779E+03  0.10000000000E+01 0.  0.
    9000005    1    3    3    0    0 -0.50821714418E+02 -0.60638366892E+00  0.18104809155E+03  0.18804953021E+03  0.10000000000E+01 0.  0.
<mgrwt>
<rscale>  0 0.12499989E+03</rscale>
<asrwt>0</asrwt>
<pdfrwt beam="2">  1        4 0.68097960E-03 0.12499989E+03</pdfrwt>
<pdfrwt beam="1">  1       -4 0.13576832E+00 0.12499989E+03</pdfrwt>
<totfact> 0.34662315E+03</totfact>
</mgrwt>
</event>
<event>
 5    1  0.3331626E-002  0.1250023E+03  0.7818608E-02  0.1235066E+00
          4   -1    0    0  501    0  0.00000000000E+00  0.00000000000E+00  0.33345193607E+03  0.33345435455E+03  0.12700000000E+01 0. -1.
         -4   -1    0    0    0  501 -0.00000000000E+00 -0.00000000000E+00 -0.11678131468E+02  0.11746984915E+02  0.12700000000E+01 0. -1.
         25    2    1    2    0    0  0.00000000000E+00  0.00000000000E+00  0.32177380460E+03  0.34520133947E+03  0.12500233374E+03 0.  0.
    9000005    1    3    3    0    0 -0.28823137382E+02 -0.44122123331E+02  0.25363010961E+03  0.25904973946E+03  0.10000000000E+01 0.  0.
    9000005    1    3    3    0    0  0.28823137382E+02  0.44122123331E+02  0.68143694998E+02  0.86151600006E+02  0.10000000000E+01 0.  0.
<mgrwt>
<rscale>  0 0.12500233E+03</rscale>
<asrwt>0</asrwt>
<pdfrwt beam="1">  1        4 0.51305771E-01 0.12500233E+03</pdfrwt>
<pdfrwt beam="2">  1       -4 0.18021184E-02 0.12500233E+03</pdfrwt>
<totfact> 0.70252088E+03</totfact>
</mgrwt>
</event>
<event>
 5    1  0.3331626E-002  0.1250010E+03  0.7818608E-02  0.1235068E+00
         -4   -1    0    0    0  501 -0.00000000000E+00  0.00000000000E+00  0.64541999698E+02  0.64554493453E+02  0.12700000000E+01 0. -1.
          4   -1    0    0  501    0  0.00000000000E+00 -0.00000000000E+00 -0.60498532540E+02  0.60511861147E+02  0.12700000000E+01 0. -1.
         25    2    1    2    0    0  0.00000000000E+00  0.00000000000E+00  0.40434671578E+01  0.12506635460E+03  0.12500097370E+03 0.  0.
    9000005    1    3    3    0    0 -0.38851017226E+02  0.16390571768E+02  0.48168069858E+02  0.64025114886E+02  0.10000000000E+01 0.  0.
    9000005    1    3    3    0    0  0.38851017226E+02 -0.16390571768E+02 -0.44124602700E+02  0.61041239714E+02  0.10000000000E+01 0.  0.
<mgrwt>
<rscale>  0 0.12500097E+03</rscale>
<asrwt>0</asrwt>
<pdfrwt beam="2">  1        4 0.93094529E-02 0.12500097E+03</pdfrwt>
<pdfrwt beam="1">  1       -4 0.99315248E-02 0.12500097E+03</pdfrwt>
<totfact> 0.10451192E+04</totfact>
</mgrwt>
</event>
<event>
 5    1  0.3331626E-002  0.1250010E+03  0.7818608E-02  0.1235068E+00
         -4   -1    0    0    0  501 -0.00000000000E+00  0.00000000000E+00  0.11263299072E+02  0.11334672733E+02  0.12700000000E+01 0.  1.
          4   -1    0    0  501    0  0.00000000000E+00 -0.00000000000E+00 -0.34564963350E+03  0.34565196663E+03  0.12700000000E+01 0.  1.
         25    2    1    2    0    0  0.00000000000E+00  0.00000000000E+00 -0.33438633443E+03  0.35698663937E+03  0.12500096014E+03 0.  0.
    9000005    1    3    3    0    0 -0.18039810616E+02  0.45577399412E+02 -0.27789551300E+03  0.28218726096E+03  0.10000000000E+01 0.  0.
    9000005    1    3    3    0    0  0.18039810616E+02 -0.45577399412E+02 -0.56490821428E+02  0.74799378405E+02  0.10000000000E+01 0.  0.
<mgrwt>
<rscale>  0 0.12500096E+03</rscale>
<asrwt>0</asrwt>
<pdfrwt beam="2">  1        4 0.53182528E-01 0.12500096E+03</pdfrwt>
<pdfrwt beam="1">  1       -4 0.17384853E-02 0.12500096E+03</pdfrwt>
<totfact> 0.68961257E+03</totfact>
</mgrwt>
</event>
<event>
 5    1  0.3331626E-002  0.1250025E+03  0.7818608E-02  0.1235065E+00
          4   -1    0    0  501    0  0.00000000000E+00  0.00000000000E+00  0.23092060351E+03  0.23092409581E+03  0.12700000000E+01 0.  1.
         -4   -1    0    0    0  501 -0.00000000000E+00 -0.00000000000E+00 -0.16889212723E+02  0.16936894828E+02  0.12700000000E+01 0.  1.
         25    2    1    2    0    0  0.00000000000E+00  0.00000000000E+00  0.21403139079E+03  0.24786099064E+03  0.12500253773E+03 0.  0.
    9000005    1    3    3    0    0 -0.15480738759E+02  0.51266358428E+02  0.17088419549E+03  0.17908182780E+03  0.10000000000E+01 0.  0.
    9000005    1    3    3    0    0  0.15480738759E+02 -0.51266358428E+02  0.43147195296E+02  0.68779162840E+02  0.10000000000E+01 0.  0.
<mgrwt>
<rscale>  0 0.12500254E+03</rscale>
<asrwt>0</asrwt>
<pdfrwt beam="1">  1        4 0.35530180E-01 0.12500254E+03</pdfrwt>
<pdfrwt beam="2">  1       -4 0.26022771E-02 0.12500254E+03</pdfrwt>
<totfact> 0.82635696E+03</totfact>
</mgrwt>
</event>
<event>
 5    1  0.3331626E-002  0.1249975E+03  0.7818608E-02  0.1235073E+00
         -4   -1    0    0    0  501 -0.00000000000E+00  0.00000000000E+00  0.10076084161E+03  0.10076884490E+03  0.12700000000E+01 0.  1.
          4   -1    0    0  501    0  0.00000000000E+00 -0.00000000000E+00 -0.38746069840E+02  0.38766877976E+02  0.12700000000E+01 0.  1.
         25    2    1    2    0    0  0.00000000000E+00  0.00000000000E+00  0.62014771772E+02  0.13953572288E+03  0.12499754414E+03 0.  0.
    9000005    1    3    3    0    0 -0.39929093354E+02  0.47720700061E+02  0.24546403607E+02  0.66896364926E+02  0.10000000000E+01 0.  0.
    9000005    1    3    3    0    0  0.39929093354E+02 -0.47720700061E+02  0.37468368165E+02  0.72639357949E+02  0.10000000000E+01 0.  0.
<mgrwt>
<rscale>  0 0.12499754E+03</rscale>
<asrwt>0</asrwt>
<pdfrwt beam="2">  1        4 0.59631501E-02 0.12499754E+03</pdfrwt>
<pdfrwt beam="1">  1       -4 0.15503884E-01 0.12499754E+03</pdfrwt>
<totfact> 0.10143778E+04</totfact>
</mgrwt>
</event>
<event>
 5    1  0.3331626E-002  0.1249996E+03  0.7818608E-02  0.1235070E+00
         -4   -1    0    0    0  501 -0.00000000000E+00  0.00000000000E+00  0.34655321238E+02  0.34678584027E+02  0.12700000000E+01 0. -1.
          4   -1    0    0  501    0  0.00000000000E+00 -0.00000000000E+00 -0.11265182756E+03  0.11265898611E+03  0.12700000000E+01 0. -1.
         25    2    1    2    0    0  0.00000000000E+00  0.00000000000E+00 -0.77996506320E+02  0.14733757014E+03  0.12499961831E+03 0.  0.
    9000005    1    3    3    0    0  0.56699761609E+02 -0.13820087590E+02 -0.12658280131E+02  0.59725119032E+02  0.10000000000E+01 0.  0.
    9000005    1    3    3    0    0 -0.56699761609E+02  0.13820087590E+02 -0.65338226189E+02  0.87612451108E+02  0.10000000000E+01 0.  0.
<mgrwt>
<rscale>  0 0.12499962E+03</rscale>
<asrwt>0</asrwt>
<pdfrwt beam="2">  1        4 0.17333390E-01 0.12499962E+03</pdfrwt>
<pdfrwt beam="1">  1       -4 0.53339281E-02 0.12499962E+03</pdfrwt>
<totfact> 0.99837944E+03</totfact>
</mgrwt>
</event>
<event>
 5    1  0.3331626E-002  0.1250005E+03  0.7818608E-02  0.1235069E+00
         -4   -1    0    0    0  501 -0.00000000000E+00  0.00000000000E+00  0.27294943761E+03  0.27295239217E+03  0.12700000000E+01 0. -1.
          4   -1    0    0  501    0  0.00000000000E+00 -0.00000000000E+00 -0.14280158448E+02  0.14336520683E+02  0.12700000000E+01 0. -1.
         25    2    1    2    0    0  0.00000000000E+00  0.00000000000E+00  0.25866927916E+03  0.28728891285E+03  0.12500049387E+03 0.  0.
    9000005    1    3    3    0    0 -0.21693068286E+02 -0.46281269911E+01 -0.49395661717E+01  0.22746606012E+02  0.10000000000E+01 0.  0.
    9000005    1    3    3    0    0  0.21693068286E+02  0.46281269911E+01  0.26360884533E+03  0.26454230684E+03  0.10000000000E+01 0.  0.
<mgrwt>
<rscale>  0 0.12500049E+03</rscale>
<asrwt>0</asrwt>
<pdfrwt beam="2">  1        4 0.22015104E-02 0.12500049E+03</pdfrwt>
<pdfrwt beam="1">  1       -4 0.41996781E-01 0.12500049E+03</pdfrwt>
<totfact> 0.77220623E+03</totfact>
</mgrwt>
</event>
<event>
 5    1  0.3331626E-002  0.1249992E+03  0.7818608E-02  0.1235071E+00
         -4   -1    0    0    0  501 -0.00000000000E+00  0.00000000000E+00  0.81403774923E+01  0.82388497812E+01  0.12700000000E+01 0. -1.
          4   -1    0    0  501    0  0.00000000000E+00 -0.00000000000E+00 -0.47687034931E+03  0.47687204044E+03  0.12700000000E+01 0. -1.
         25    2    1    2    0    0  0.00000000000E+00  0.00000000000E+00 -0.46872997182E+03  0.48511089022E+03  0.12499915731E+03 0.  0.
    9000005    1    3    3    0    0  0.19524100708E+02 -0.35336996295E+01 -0.46434044748E+03  0.46476524043E+03  0.10000000000E+01 0.  0.
    9000005    1    3    3    0    0 -0.19524100708E+02  0.35336996295E+01 -0.43895243358E+01  0.20345649792E+02  0.10000000000E+01 0.  0.
<mgrwt>
<rscale>  0 0.12499916E+03</rscale>
<asrwt>0</asrwt>
<pdfrwt beam="2">  1        4 0.73372353E-01 0.12499916E+03</pdfrwt>
<pdfrwt beam="1">  1       -4 0.12600710E-02 0.12499916E+03</pdfrwt>
<totfact> 0.57039437E+03</totfact>
</mgrwt>
</event>
<event>
 5    1  0.3331626E-002  0.1249965E+03  0.7818608E-02  0.1235075E+00
         -4   -1    0    0    0  501 -0.00000000000E+00  0.00000000000E+00  0.70567522806E+02  0.70578949942E+02  0.12700000000E+01 0.  1.
          4   -1    0    0  501    0  0.00000000000E+00 -0.00000000000E+00 -0.55328520527E+02  0.55343094273E+02  0.12700000000E+01 0.  1.
         25    2    1    2    0    0  0.00000000000E+00  0.00000000000E+00  0.15239002278E+02  0.12592204422E+03  0.12499653607E+03 0.  0.
    9000005    1    3    3    0    0 -0.49380296715E+02 -0.38239196056E+02  0.97287296384E+01  0.63216279542E+02  0.10000000000E+01 0.  0.
    9000005    1    3    3    0    0  0.49380296715E+02  0.38239196056E+02  0.55102726398E+01  0.62705764674E+02  0.10000000000E+01 0.  0.
<mgrwt>
<rscale>  0 0.12499654E+03</rscale>
<asrwt>0</asrwt>
<pdfrwt beam="2">  1        4 0.85140802E-02 0.12499654E+03</pdfrwt>
<pdfrwt beam="1">  1       -4 0.10858542E-01 0.12499654E+03</pdfrwt>
<totfact> 0.10433482E+04</totfact>
</mgrwt>
</event>
<event>
 5    1  0.3331626E-002  0.1249986E+03  0.7818608E-02  0.1235072E+00
         -4   -1    0    0    0  501 -0.00000000000E+00  0.00000000000E+00  0.25659299743E+02  0.25690709669E+02  0.12700000000E+01 0.  1.
          4   -1    0    0  501    0  0.00000000000E+00 -0.00000000000E+00 -0.15210459560E+03  0.15210989745E+03  0.12700000000E+01 0.  1.
         25    2    1    2    0    0  0.00000000000E+00  0.00000000000E+00 -0.12644529586E+03  0.17780060712E+03  0.12499857218E+03 0.  0.
    9000005    1    3    3    0    0 -0.18080920290E+02  0.34926476529E+02  0.58546422920E+01  0.39775058486E+02  0.10000000000E+01 0.  0.
    9000005    1    3    3    0    0  0.18080920290E+02 -0.34926476529E+02 -0.13229993815E+03  0.13802554863E+03  0.10000000000E+01 0.  0.
<mgrwt>
<rscale>  0 0.12499857E+03</rscale>
<asrwt>0</asrwt>
<pdfrwt beam="2">  1        4 0.23403530E-01 0.12499857E+03</pdfrwt>
<pdfrwt beam="1">  1       -4 0.39504087E-02 0.12499857E+03</pdfrwt>
<totfact> 0.94017417E+03</totfact>
</mgrwt>
</event>
<event>
 5    1  0.3331626E-002  0.1249992E+03  0.7818608E-02  0.1235071E+00
         -4   -1    0    0    0  501 -0.00000000000E+00  0.00000000000E+00  0.51865148249E+01  0.53397411950E+01  0.12700000000E+01 0.  1.
          4   -1    0    0  501    0  0.00000000000E+00 -0.00000000000E+00 -0.74202838282E+03  0.74202946964E+03  0.12700000000E+01 0.  1.
         25    2    1    2    0    0  0.00000000000E+00  0.00000000000E+00 -0.73684186800E+03  0.74736921083E+03  0.12499919548E+03 0.  0.
    9000005    1    3    3    0    0 -0.33694234506E+01  0.24133057796E+01 -0.74123507603E+03  0.74124733726E+03  0.10000000000E+01 0.  0.
    9000005    1    3    3    0    0  0.33694234506E+01 -0.24133057796E+01  0.43932080355E+01  0.61218735710E+01  0.10000000000E+01 0.  0.
<mgrwt>
<rscale>  0 0.12499920E+03</rscale>
<asrwt>0</asrwt>
<pdfrwt beam="2">  1        4 0.11417000E+00 0.12499920E+03</pdfrwt>
<pdfrwt beam="1">  1       -4 0.80979619E-03 0.12499920E+03</pdfrwt>
<totfact> 0.40701023E+03</totfact>
</mgrwt>
</event>
<event>
 5    1  0.3331626E-002  0.1250040E+03  0.7818608E-02  0.1235063E+00
          4   -1    0    0  501    0  0.00000000000E+00  0.00000000000E+00  0.85454186688E+02  0.85463623387E+02  0.12700000000E+01 0.  1.
         -4   -1    0    0    0  501 -0.00000000000E+00 -0.00000000000E+00 -0.45693765156E+02  0.45711410765E+02  0.12700000000E+01 0.  1.
         25    2    1    2    0    0  0.00000000000E+00  0.00000000000E+00  0.39760421532E+02  0.13117503415E+03  0.12500399379E+03 0.  0.
    9000005    1    3    3    0    0  0.36822697809E+02 -0.31427770980E+02  0.61351892886E+02  0.78157985027E+02  0.10000000000E+01 0.  0.
    9000005    1    3    3    0    0 -0.36822697809E+02  0.31427770980E+02 -0.21591471354E+02  0.53017049125E+02  0.10000000000E+01 0.  0.
<mgrwt>
<rscale>  0 0.12500399E+03</rscale>
<asrwt>0</asrwt>
<pdfrwt beam="1">  1        4 0.13148881E-01 0.12500399E+03</pdfrwt>
<pdfrwt beam="2">  1       -4 0.70318933E-02 0.12500399E+03</pdfrwt>
<totfact> 0.10318409E+04</totfact>
</mgrwt>
</event>
<event>
 5    1  0.3331626E-002  0.1250004E+03  0.7818608E-02  0.1235069E+00
          4   -1    0    0  501    0  0.00000000000E+00  0.00000000000E+00  0.56210064990E+02  0.56224410234E+02  0.12700000000E+01 0. -1.
         -4   -1    0    0    0  501 -0.00000000000E+00 -0.00000000000E+00 -0.69465170405E+02  0.69476778850E+02  0.12700000000E+01 0. -1.
         25    2    1    2    0    0  0.00000000000E+00  0.00000000000E+00 -0.13255105415E+02  0.12570118908E+03  0.12500036447E+03 0.  0.
    9000005    1    3    3    0    0 -0.61023030631E+02 -0.90352664781E+01 -0.16674889665E+02  0.63910079432E+02  0.10000000000E+01 0.  0.
    9000005    1    3    3    0    0  0.61023030631E+02  0.90352664781E+01  0.34197842497E+01  0.61791109652E+02  0.10000000000E+01 0.  0.
<mgrwt>
<rscale>  0 0.12500036E+03</rscale>
<asrwt>0</asrwt>
<pdfrwt beam="1">  1        4 0.86496987E-02 0.12500036E+03</pdfrwt>
<pdfrwt beam="2">  1       -4 0.10688946E-01 0.12500036E+03</pdfrwt>
<totfact> 0.10437432E+04</totfact>
</mgrwt>
</event>
<event>
 5    1  0.3331626E-002  0.1249996E+03  0.7818608E-02  0.1235070E+00
          4   -1    0    0  501    0  0.00000000000E+00  0.00000000000E+00  0.42951334450E+02  0.42970106249E+02  0.12700000000E+01 0.  1.
         -4   -1    0    0    0  501 -0.00000000000E+00 -0.00000000000E+00 -0.90902256355E+02  0.90911127539E+02  0.12700000000E+01 0.  1.
         25    2    1    2    0    0  0.00000000000E+00  0.00000000000E+00 -0.47950921905E+02  0.13388123379E+03  0.12499957540E+03 0.  0.
    9000005    1    3    3    0    0 -0.53435467555E+02  0.24514414291E+02 -0.46668599387E+02  0.75068394612E+02  0.10000000000E+01 0.  0.
    9000005    1    3    3    0    0  0.53435467555E+02 -0.24514414291E+02 -0.12823225182E+01  0.58812839176E+02  0.10000000000E+01 0.  0.
<mgrwt>
<rscale>  0 0.12499958E+03</rscale>
<asrwt>0</asrwt>
<pdfrwt beam="1">  1        4 0.66100240E-02 0.12499958E+03</pdfrwt>
<pdfrwt beam="2">  1       -4 0.13987089E-01 0.12499958E+03</pdfrwt>
<totfact> 0.10261804E+04</totfact>
</mgrwt>
</event>
<event>
 5    1  0.3331626E-002  0.1249967E+03  0.7818608E-02  0.1235074E+00
          4   -1    0    0  501    0  0.00000000000E+00  0.00000000000E+00  0.12325947900E+03  0.12326602153E+03  0.12700000000E+01 0.  1.
         -4   -1    0    0    0  501 -0.00000000000E+00 -0.00000000000E+00 -0.31669487215E+02  0.31694941560E+02  0.12700000000E+01 0.  1.
         25    2    1    2    0    0  0.00000000000E+00  0.00000000000E+00  0.91589991786E+02  0.15496096309E+03  0.12499669390E+03 0.  0.
    9000005    1    3    3    0    0 -0.55332544038E+02  0.20706649552E+02  0.71037471082E+02  0.92400097744E+02  0.10000000000E+01 0.  0.
    9000005    1    3    3    0    0  0.55332544038E+02 -0.20706649552E+02  0.20552520704E+02  0.62560865345E+02  0.10000000000E+01 0.  0.
<mgrwt>
<rscale>  0 0.12499669E+03</rscale>
<asrwt>0</asrwt>
<pdfrwt beam="1">  1        4 0.18965458E-01 0.12499669E+03</pdfrwt>
<pdfrwt beam="2">  1       -4 0.48746901E-02 0.12499669E+03</pdfrwt>
<totfact> 0.98330474E+03</totfact>
</mgrwt>
</event>
<event>
 5    1  0.3331626E-002  0.1250162E+03  0.7818608E-02  0.1235044E+00
          4   -1    0    0  501    0  0.00000000000E+00  0.00000000000E+00  0.57370058101E+01  0.58758944566E+01  0.12700000000E+01 0. -1.
         -4   -1    0    0    0  501 -0.00000000000E+00 -0.00000000000E+00 -0.67277832891E+03  0.67277952760E+03  0.12700000000E+01 0. -1.
         25    2    1    2    0    0  0.00000000000E+00  0.00000000000E+00 -0.66704132310E+03  0.67865542205E+03  0.12501621958E+03 0.  0.
    9000005    1    3    3    0    0  0.21116865760E+02  0.38432271980E+02 -0.91764577441E+02  0.10170889451E+03  0.10000000000E+01 0.  0.
    9000005    1    3    3    0    0 -0.21116865760E+02 -0.38432271980E+02 -0.57527674566E+03  0.57694652755E+03  0.10000000000E+01 0.  0.
<mgrwt>
<rscale>  0 0.12501622E+03</rscale>
<asrwt>0</asrwt>
<pdfrwt beam="1">  1        4 0.89339276E-03 0.12501622E+03</pdfrwt>
<pdfrwt beam="2">  1       -4 0.10351507E+00 0.12501622E+03</pdfrwt>
<totfact> 0.44221976E+03</totfact>
</mgrwt>
</event>
<event>
 5    1  0.3331626E-002  0.1250122E+03  0.7818608E-02  0.1235050E+00
         -4   -1    0    0    0  501 -0.00000000000E+00  0.00000000000E+00  0.52537228864E+03  0.52537382364E+03  0.12700000000E+01 0.  1.
          4   -1    0    0  501    0  0.00000000000E+00 -0.00000000000E+00 -0.73808768340E+01  0.74893419497E+01  0.12700000000E+01 0.  1.
         25    2    1    2    0    0  0.00000000000E+00  0.00000000000E+00  0.51799141180E+03  0.53286316559E+03  0.12501220157E+03 0.  0.
    9000005    1    3    3    0    0 -0.10589878339E+02 -0.61316857066E+02  0.28389030425E+03  0.29063139426E+03  0.10000000000E+01 0.  0.
    9000005    1    3    3    0    0  0.10589878339E+02  0.61316857066E+02  0.23410110755E+03  0.24223177133E+03  0.10000000000E+01 0.  0.
<mgrwt>
<rscale>  0 0.12501220E+03</rscale>
<asrwt>0</asrwt>
<pdfrwt beam="2">  1        4 0.11439810E-02 0.12501220E+03</pdfrwt>
<pdfrwt beam="1">  1       -4 0.80834974E-01 0.12501220E+03</pdfrwt>
<totfact> 0.53387483E+03</totfact>
</mgrwt>
</event>
<event>
 5    1  0.3331626E-002  0.1250146E+03  0.7818608E-02  0.1235047E+00
         -4   -1    0    0    0  501 -0.00000000000E+00  0.00000000000E+00  0.84936806282E+01  0.85881028530E+01  0.12700000000E+01 0. -1.
          4   -1    0    0  501    0  0.00000000000E+00 -0.00000000000E+00 -0.45736975098E+03  0.45737151421E+03  0.12700000000E+01 0. -1.
         25    2    1    2    0    0  0.00000000000E+00  0.00000000000E+00 -0.44887607035E+03  0.46595961707E+03  0.12501455195E+03 0.  0.
    9000005    1    3    3    0    0  0.27987088953E+02 -0.12016484443E+02 -0.42785423151E+03  0.42893812662E+03  0.10000000000E+01 0.  0.
    9000005    1    3    3    0    0 -0.27987088953E+02  0.12016484443E+02 -0.21021838842E+02  0.37021490445E+02  0.10000000000E+01 0.  0.
<mgrwt>
<rscale>  0 0.12501455E+03</rscale>
<asrwt>0</asrwt>
<pdfrwt beam="2">  1        4 0.70371957E-01 0.12501455E+03</pdfrwt>
<pdfrwt beam="1">  1       -4 0.13141193E-02 0.12501455E+03</pdfrwt>
<totfact> 0.58586963E+03</totfact>
</mgrwt>
</event>
<event>
 5    1  0.3331626E-002  0.1250019E+03  0.7818608E-02  0.1235066E+00
          4   -1    0    0  501    0  0.00000000000E+00  0.00000000000E+00  0.10236674936E+04  0.10236682814E+04  0.12700000000E+01 0. -1.
         -4   -1    0    0    0  501 -0.00000000000E+00 -0.00000000000E+00 -0.37095788064E+01  0.39209533178E+01  0.12700000000E+01 0. -1.
         25    2    1    2    0    0  0.00000000000E+00  0.00000000000E+00  0.10199579148E+04  0.10275892347E+04  0.12500194945E+03 0.  0.
    9000005    1    3    3    0    0  0.30719537974E+02 -0.17458381083E+02  0.93370902462E+03  0.93437788273E+03  0.10000000000E+01 0.  0.
    9000005    1    3    3    0    0 -0.30719537974E+02  0.17458381083E+02  0.86248890165E+02  0.93211351981E+02  0.10000000000E+01 0.  0.
<mgrwt>
<rscale>  0 0.12500195E+03</rscale>
<asrwt>0</asrwt>
<pdfrwt beam="1">  1        4 0.15750405E+00 0.12500195E+03</pdfrwt>
<pdfrwt beam="2">  1       -4 0.58702303E-03 0.12500195E+03</pdfrwt>
<totfact> 0.29703610E+03</totfact>
</mgrwt>
</event>
<event>
 5    1  0.3331626E-002  0.1250100E+03  0.7818608E-02  0.1235054E+00
          4   -1    0    0  501    0  0.00000000000E+00  0.00000000000E+00  0.17622904481E+03  0.17623362089E+03  0.12700000000E+01 0. -1.
         -4   -1    0    0    0  501 -0.00000000000E+00 -0.00000000000E+00 -0.22146230863E+02  0.22182615749E+02  0.12700000000E+01 0. -1.
         25    2    1    2    0    0  0.00000000000E+00  0.00000000000E+00  0.15408281394E+03  0.19841623664E+03  0.12500995725E+03 0.  0.
    9000005    1    3    3    0    0 -0.39321317958E+02  0.30836054451E+02  0.17466405335E+02  0.52944344508E+02  0.10000000000E+01 0.  0.
    9000005    1    3    3    0    0  0.39321317958E+02 -0.30836054451E+02  0.13661640861E+03  0.14547189213E+03  0.10000000000E+01 0.  0.
<mgrwt>
<rscale>  0 0.12500996E+03</rscale>
<asrwt>0</asrwt>
<pdfrwt beam="1">  1        4 0.27115311E-01 0.12500996E+03</pdfrwt>
<pdfrwt beam="2">  1       -4 0.34102633E-02 0.12500996E+03</pdfrwt>
<totfact> 0.90383043E+03</totfact>
</mgrwt>
</event>
<event>
 5    1  0.3331626E-002  0.1249986E+03  0.7818608E-02  0.1235071E+00
          4   -1    0    0  501    0  0.00000000000E+00  0.00000000000E+00  0.53710619944E+02  0.53725632568E+02  0.12700000000E+01 0. -1.
         -4   -1    0    0    0  501 -0.00000000000E+00 -0.00000000000E+00 -0.72695394997E+02  0.72706487700E+02  0.12700000000E+01 0. -1.
         25    2    1    2    0    0  0.00000000000E+00  0.00000000000E+00 -0.18984775052E+02  0.12643212027E+03  0.12499863740E+03 0.  0.
    9000005    1    3    3    0    0 -0.18523375687E+02 -0.45203769321E+02 -0.48909395337E+02  0.69134833187E+02  0.10000000000E+01 0.  0.
    9000005    1    3    3    0    0  0.18523375687E+02  0.45203769321E+02  0.29924620285E+02  0.57297287081E+02  0.10000000000E+01 0.  0.
<mgrwt>
<rscale>  0 0.12499864E+03</rscale>
<asrwt>0</asrwt>
<pdfrwt beam="1">  1        4 0.82651804E-02 0.12499864E+03</pdfrwt>
<pdfrwt beam="2">  1       -4 0.11185915E-01 0.12499864E+03</pdfrwt>
<totfact> 0.10421829E+04</totfact>
</mgrwt>
</event>
<event>
 5    1  0.3331626E-002  0.1249979E+03  0.7818608E-02  0.1235073E+00
         -4   -1    0    0    0  501 -0.00000000000E+00  0.00000000000E+00  0.92426702789E+02  0.92435427669E+02  0.12700000000E+01 0.  1.
          4   -1    0    0  501    0  0.00000000000E+00 -0.00000000000E+00 -0.42241551130E+02  0.42260638210E+02  0.12700000000E+01 0.  1.
         25    2    1    2    0    0  0.00000000000E+00  0.00000000000E+00  0.50185151659E+02  0.13469606588E+03  0.12499792285E+03 0.  0.
    9000005    1    3    3    0    0 -0.15451962568E+02 -0.33301141956E+01  0.90242166284E+02  0.91621511575E+02  0.10000000000E+01 0.  0.
    9000005    1    3    3    0    0  0.15451962568E+02  0.33301141956E+01 -0.40057014625E+02  0.43074554304E+02  0.10000000000E+01 0.  0.
<mgrwt>
<rscale>  0 0.12499792E+03</rscale>
<asrwt>0</asrwt>
<pdfrwt beam="2">  1        4 0.65008397E-02 0.12499792E+03</pdfrwt>
<pdfrwt beam="1">  1       -4 0.14221632E-01 0.12499792E+03</pdfrwt>
<totfact> 0.10244961E+04</totfact>
</mgrwt>
</event>
<event>
 5    1  0.3331626E-002  0.1250004E+03  0.7818608E-02  0.1235069E+00
          4   -1    0    0  501    0  0.00000000000E+00  0.00000000000E+00  0.77526283793E+01  0.78559624992E+01  0.12700000000E+01 0.  1.
         -4   -1    0    0    0  501 -0.00000000000E+00 -0.00000000000E+00 -0.50042506218E+03  0.50042667371E+03  0.12700000000E+01 0.  1.
         25    2    1    2    0    0  0.00000000000E+00  0.00000000000E+00 -0.49267243380E+03  0.50828263621E+03  0.12500044497E+03 0.  0.
    9000005    1    3    3    0    0  0.56869890937E+02  0.19155532539E+02 -0.17542025942E+03  0.18540330724E+03  0.10000000000E+01 0.  0.
    9000005    1    3    3    0    0 -0.56869890937E+02 -0.19155532539E+02 -0.31725217438E+03  0.32287932896E+03  0.10000000000E+01 0.  0.
<mgrwt>
<rscale>  0 0.12500044E+03</rscale>
<asrwt>0</asrwt>
<pdfrwt beam="1">  1        4 0.12007852E-02 0.12500044E+03</pdfrwt>
<pdfrwt beam="2">  1       -4 0.76996519E-01 0.12500044E+03</pdfrwt>
<totfact> 0.55226885E+03</totfact>
</mgrwt>
</event>
<event>
 5    1  0.3331626E-002  0.1249975E+03  0.7818608E-02  0.1235073E+00
         -4   -1    0    0    0  501 -0.00000000000E+00  0.00000000000E+00  0.14472308656E+02  0.14527925448E+02  0.12700000000E+01 0. -1.
          4   -1    0    0  501    0  0.00000000000E+00 -0.00000000000E+00 -0.26932661046E+03  0.26932960476E+03  0.12700000000E+01 0. -1.
         25    2    1    2    0    0  0.00000000000E+00  0.00000000000E+00 -0.25485430180E+03  0.28385753021E+03  0.12499752921E+03 0.  0.
    9000005    1    3    3    0    0  0.56183150295E+01  0.26132155909E+02 -0.25570094212E+03  0.25709614318E+03  0.10000000000E+01 0.  0.
    9000005    1    3    3    0    0 -0.56183150295E+01 -0.26132155909E+02  0.84664031407E+00  0.26761387035E+02  0.10000000000E+01 0.  0.
<mgrwt>
<rscale>  0 0.12499753E+03</rscale>
<asrwt>0</asrwt>
<pdfrwt beam="2">  1        4 0.41439368E-01 0.12499753E+03</pdfrwt>
<pdfrwt beam="1">  1       -4 0.22310178E-02 0.12499753E+03</pdfrwt>
<totfact> 0.77673656E+03</totfact>
</mgrwt>
</event>
<event>
 5    1  0.3331626E-002  0.1250069E+03  0.7818608E-02  0.1235059E+00
         -4   -1    0    0    0  501 -0.00000000000E+00  0.00000000000E+00  0.15889994603E+03  0.15890502116E+03  0.12700000000E+01 0. -1.
          4   -1    0    0  501    0  0.00000000000E+00 -0.00000000000E+00 -0.24563903722E+02  0.24596712506E+02  0.12700000000E+01 0. -1.
         25    2    1    2    0    0  0.00000000000E+00  0.00000000000E+00  0.13433604231E+03  0.18350173366E+03  0.12500685579E+03 0.  0.
    9000005    1    3    3    0    0  0.21727040360E+02 -0.48188932089E+02  0.18229645042E+02  0.55924568993E+02  0.10000000000E+01 0.  0.
    9000005    1    3    3    0    0 -0.21727040360E+02  0.48188932089E+02  0.11610639727E+03  0.12757716467E+03  0.10000000000E+01 0.  0.
<mgrwt>
<rscale>  0 0.12500686E+03</rscale>
<asrwt>0</asrwt>
<pdfrwt beam="2">  1        4 0.37819762E-02 0.12500686E+03</pdfrwt>
<pdfrwt beam="1">  1       -4 0.24449060E-01 0.12500686E+03</pdfrwt>
<totfact> 0.92976162E+03</totfact>
</mgrwt>
</event>
<event>
 5    1  0.3331626E-002  0.1250008E+03  0.7818608E-02  0.1235068E+00
         -4   -1    0    0    0  501 -0.00000000000E+00  0.00000000000E+00  0.21735352345E+04  0.21735356055E+04  0.12700000000E+01 0.  1.
          4   -1    0    0  501    0  0.00000000000E+00 -0.00000000000E+00 -0.15724306162E+01  0.20212466556E+01  0.12700000000E+01 0.  1.
         25    2    1    2    0    0  0.00000000000E+00  0.00000000000E+00  0.21719628039E+04  0.21755568522E+04  0.12500078257E+03 0.  0.
    9000005    1    3    3    0    0  0.35839064536E+02  0.21860190799E+02  0.28029131053E+03  0.28341934522E+03  0.10000000000E+01 0.  0.
    9000005    1    3    3    0    0 -0.35839064536E+02 -0.21860190799E+02  0.18916714933E+04  0.18921375069E+04  0.10000000000E+01 0.  0.
<mgrwt>
<rscale>  0 0.12500078E+03</rscale>
<asrwt>0</asrwt>
<pdfrwt beam="2">  1        4 0.27646584E-03 0.12500078E+03</pdfrwt>
<pdfrwt beam="1">  1       -4 0.33442389E+00 0.12500078E+03</pdfrwt>
<totfact> 0.77402579E+02</totfact>
</mgrwt>
</event>
<event>
 5    1  0.3331626E-002  0.1250114E+03  0.7818608E-02  0.1235051E+00
          4   -1    0    0  501    0  0.00000000000E+00  0.00000000000E+00  0.72275598786E+02  0.72286755909E+02  0.12700000000E+01 0. -1.
         -4   -1    0    0    0  501 -0.00000000000E+00 -0.00000000000E+00 -0.54033659975E+02  0.54048582870E+02  0.12700000000E+01 0. -1.
         25    2    1    2    0    0  0.00000000000E+00  0.00000000000E+00  0.18241938811E+02  0.12633533878E+03  0.12501139745E+03 0.  0.
    9000005    1    3    3    0    0 -0.19947618432E+02  0.37685982752E+02  0.55297567232E+02  0.69835246967E+02  0.10000000000E+01 0.  0.
    9000005    1    3    3    0    0  0.19947618432E+02 -0.37685982752E+02 -0.37055628421E+02  0.56500091812E+02  0.10000000000E+01 0.  0.
<mgrwt>
<rscale>  0 0.12501140E+03</rscale>
<asrwt>0</asrwt>
<pdfrwt beam="1">  1        4 0.11121329E-01 0.12501140E+03</pdfrwt>
<pdfrwt beam="2">  1       -4 0.83148769E-02 0.12501140E+03</pdfrwt>
<totfact> 0.10420940E+04</totfact>
</mgrwt>
</event>
<event>
 5    1  0.3331626E-002  0.1249992E+03  0.7818608E-02  0.1235070E+00
         -4   -1    0    0    0  501 -0.00000000000E+00  0.00000000000E+00  0.73996492092E+02  0.74007389779E+02  0.12700000000E+01 0. -1.
          4   -1    0    0  501    0  0.00000000000E+00 -0.00000000000E+00 -0.52766604146E+02  0.52781885274E+02  0.12700000000E+01 0. -1.
         25    2    1    2    0    0  0.00000000000E+00  0.00000000000E+00  0.21229887946E+02  0.12678927505E+03  0.12499924850E+03 0.  0.
    9000005    1    3    3    0    0  0.59153678687E+02  0.19883555448E+02  0.72986358745E+01  0.62839347268E+02  0.10000000000E+01 0.  0.
    9000005    1    3    3    0    0 -0.59153678687E+02 -0.19883555448E+02  0.13931252072E+02  0.63949927785E+02  0.10000000000E+01 0.  0.
<mgrwt>
<rscale>  0 0.12499925E+03</rscale>
<asrwt>0</asrwt>
<pdfrwt beam="2">  1        4 0.81199528E-02 0.12499925E+03</pdfrwt>
<pdfrwt beam="1">  1       -4 0.11386089E-01 0.12499925E+03</pdfrwt>
<totfact> 0.10413904E+04</totfact>
</mgrwt>
</event>
<event>
 5    1  0.3331626E-002  0.1250043E+03  0.7818608E-02  0.1235063E+00
          4   -1    0    0  501    0  0.00000000000E+00  0.00000000000E+00  0.34153601631E+02  0.34177205918E+02  0.12700000000E+01 0.  1.
         -4   -1    0    0    0  501 -0.00000000000E+00 -0.00000000000E+00 -0.11431420856E+03  0.11432126302E+03  0.12700000000E+01 0.  1.
         25    2    1    2    0    0  0.00000000000E+00  0.00000000000E+00 -0.80160606926E+02  0.14849846894E+03  0.12500428942E+03 0.  0.
    9000005    1    3    3    0    0  0.35161893426E+02  0.22537096521E+02  0.15146310976E+02  0.44437486485E+02  0.10000000000E+01 0.  0.
    9000005    1    3    3    0    0 -0.35161893426E+02 -0.22537096521E+02 -0.95306917902E+02  0.10406098245E+03  0.10000000000E+01 0.  0.
<mgrwt>
<rscale>  0 0.12500429E+03</rscale>
<asrwt>0</asrwt>
<pdfrwt beam="1">  1        4 0.52567587E-02 0.12500429E+03</pdfrwt>
<pdfrwt beam="2">  1       -4 0.17589159E-01 0.12500429E+03</pdfrwt>
<totfact> 0.99594235E+03</totfact>
</mgrwt>
</event>
<event>
 5    1  0.3331626E-002  0.1250052E+03  0.7818608E-02  0.1235061E+00
          4   -1    0    0  501    0  0.00000000000E+00  0.00000000000E+00  0.14094977785E+02  0.14152077542E+02  0.12700000000E+01 0. -1.
         -4   -1    0    0    0  501 -0.00000000000E+00 -0.00000000000E+00 -0.27654198226E+03  0.27654489844E+03  0.12700000000E+01 0. -1.
         25    2    1    2    0    0  0.00000000000E+00  0.00000000000E+00 -0.26244700447E+03  0.29069697598E+03  0.12500520663E+03 0.  0.
    9000005    1    3    3    0    0  0.11293470547E+02 -0.43071299625E+02 -0.29249299124E+02  0.53284151749E+02  0.10000000000E+01 0.  0.
    9000005    1    3    3    0    0 -0.11293470547E+02  0.43071299625E+02 -0.23319770535E+03  0.23741282423E+03  0.10000000000E+01 0.  0.
<mgrwt>
<rscale>  0 0.12500521E+03</rscale>
<asrwt>0</asrwt>
<pdfrwt beam="1">  1        4 0.21730749E-02 0.12500521E+03</pdfrwt>
<pdfrwt beam="2">  1       -4 0.42549533E-01 0.12500521E+03</pdfrwt>
<totfact> 0.76771933E+03</totfact>
</mgrwt>
</event>
<event>
 5    1  0.3331626E-002  0.1250011E+03  0.7818608E-02  0.1235068E+00
          4   -1    0    0  501    0  0.00000000000E+00  0.00000000000E+00  0.20959932792E+02  0.20998373333E+02  0.12700000000E+01 0. -1.
         -4   -1    0    0    0  501 -0.00000000000E+00 -0.00000000000E+00 -0.18615937726E+03  0.18616370925E+03  0.12700000000E+01 0. -1.
         25    2    1    2    0    0  0.00000000000E+00  0.00000000000E+00 -0.16519944447E+03  0.20716208259E+03  0.12500108803E+03 0.  0.
    9000005    1    3    3    0    0  0.43503461531E+02  0.36260173246E+01 -0.15670857403E+03  0.16267844461E+03  0.10000000000E+01 0.  0.
    9000005    1    3    3    0    0 -0.43503461531E+02 -0.36260173246E+01 -0.84908704445E+01  0.44483637978E+02  0.10000000000E+01 0.  0.
<mgrwt>
<rscale>  0 0.12500109E+03</rscale>
<asrwt>0</asrwt>
<pdfrwt beam="1">  1        4 0.32278954E-02 0.12500109E+03</pdfrwt>
<pdfrwt beam="2">  1       -4 0.28643193E-01 0.12500109E+03</pdfrwt>
<totfact> 0.88939294E+03</totfact>
</mgrwt>
</event>
<event>
 5    1  0.3331626E-002  0.1250014E+03  0.7818608E-02  0.1235067E+00
          4   -1    0    0  501    0  0.00000000000E+00  0.00000000000E+00  0.27967137052E+02  0.27995957831E+02  0.12700000000E+01 0.  1.
         -4   -1    0    0    0  501 -0.00000000000E+00 -0.00000000000E+00 -0.13957243239E+03  0.13957821027E+03  0.12700000000E+01 0.  1.
         25    2    1    2    0    0  0.00000000000E+00  0.00000000000E+00 -0.11160529533E+03  0.16757416810E+03  0.12500143946E+03 0.  0.
    9000005    1    3    3    0    0  0.39944601641E+02 -0.45336622222E+01 -0.11994358738E+03  0.12650529415E+03  0.10000000000E+01 0.  0.
    9000005    1    3    3    0    0 -0.39944601641E+02  0.45336622222E+01  0.83382920495E+01  0.41068873952E+02  0.10000000000E+01 0.  0.
<mgrwt>
<rscale>  0 0.12500144E+03</rscale>
<asrwt>0</asrwt>
<pdfrwt beam="1">  1        4 0.43052980E-02 0.12500144E+03</pdfrwt>
<pdfrwt beam="2">  1       -4 0.21475343E-01 0.12500144E+03</pdfrwt>
<totfact> 0.95898995E+03</totfact>
</mgrwt>
</event>
<event>
 5    1  0.3331626E-002  0.1250065E+03  0.7818608E-02  0.1235059E+00
          4   -1    0    0  501    0  0.00000000000E+00  0.00000000000E+00  0.23557179385E+03  0.23557521720E+03  0.12700000000E+01 0.  1.
         -4   -1    0    0    0  501 -0.00000000000E+00 -0.00000000000E+00 -0.16555859699E+02  0.16604499101E+02  0.12700000000E+01 0.  1.
         25    2    1    2    0    0  0.00000000000E+00  0.00000000000E+00  0.21901593415E+03  0.25217971630E+03  0.12500651943E+03 0.  0.
    9000005    1    3    3    0    0 -0.51329056838E+02  0.47293670390E+01  0.38223916626E+02  0.64180267923E+02  0.10000000000E+01 0.  0.
    9000005    1    3    3    0    0  0.51329056838E+02 -0.47293670390E+01  0.18079201753E+03  0.18799944838E+03  0.10000000000E+01 0.  0.
<mgrwt>
<rscale>  0 0.12500652E+03</rscale>
<asrwt>0</asrwt>
<pdfrwt beam="1">  1        4 0.36245821E-01 0.12500652E+03</pdfrwt>
<pdfrwt beam="2">  1       -4 0.25510600E-02 0.12500652E+03</pdfrwt>
<totfact> 0.82004298E+03</totfact>
</mgrwt>
</event>
<event>
 5    1  0.3331626E-002  0.1250013E+03  0.7818608E-02  0.1235067E+00
          4   -1    0    0  501    0  0.00000000000E+00  0.00000000000E+00  0.37322808778E+03  0.37323024851E+03  0.12700000000E+01 0. -1.
         -4   -1    0    0    0  501 -0.00000000000E+00 -0.00000000000E+00 -0.10425618913E+02  0.10502686786E+02  0.12700000000E+01 0. -1.
         25    2    1    2    0    0  0.00000000000E+00  0.00000000000E+00  0.36280246886E+03  0.38373293530E+03  0.12500133687E+03 0.  0.
    9000005    1    3    3    0    0 -0.29236504344E+02 -0.46132101295E+02  0.88167814185E+02  0.10371840441E+03  0.10000000000E+01 0.  0.
    9000005    1    3    3    0    0  0.29236504344E+02  0.46132101295E+02  0.27463465468E+03  0.28001453089E+03  0.10000000000E+01 0.  0.
<mgrwt>
<rscale>  0 0.12500134E+03</rscale>
<asrwt>0</asrwt>
<pdfrwt beam="1">  1        4 0.57425795E-01 0.12500134E+03</pdfrwt>
<pdfrwt beam="2">  1       -4 0.16100360E-02 0.12500134E+03</pdfrwt>
<totfact> 0.66164310E+03</totfact>
</mgrwt>
</event>
<event>
 5    1  0.3331626E-002  0.1250058E+03  0.7818608E-02  0.1235060E+00
          4   -1    0    0  501    0  0.00000000000E+00  0.00000000000E+00  0.40319222137E+02  0.40339218804E+02  0.12700000000E+01 0. -1.
         -4   -1    0    0    0  501 -0.00000000000E+00 -0.00000000000E+00 -0.96843826570E+02  0.96852153537E+02  0.12700000000E+01 0. -1.
         25    2    1    2    0    0  0.00000000000E+00  0.00000000000E+00 -0.56524604433E+02  0.13719137234E+03  0.12500576682E+03 0.  0.
    9000005    1    3    3    0    0  0.15471089170E+02 -0.42078545270E+02 -0.76045591571E+02  0.88283014048E+02  0.10000000000E+01 0.  0.
    9000005    1    3    3    0    0 -0.15471089170E+02  0.42078545270E+02  0.19520987138E+02  0.48908358293E+02  0.10000000000E+01 0.  0.
<mgrwt>
<rscale>  0 0.12500577E+03</rscale>
<asrwt>0</asrwt>
<pdfrwt beam="1">  1        4 0.62051360E-02 0.12500577E+03</pdfrwt>
<pdfrwt beam="2">  1       -4 0.14901229E-01 0.12500577E+03</pdfrwt>
<totfact> 0.10190761E+04</totfact>
</mgrwt>
</event>
<event>
 5    1  0.3331626E-002  0.1250015E+03  0.7818608E-02  0.1235067E+00
         -4   -1    0    0    0  501 -0.00000000000E+00  0.00000000000E+00  0.37570485913E+03  0.37570700562E+03  0.12700000000E+01 0.  1.
          4   -1    0    0  501    0  0.00000000000E+00 -0.00000000000E+00 -0.10356406427E+02  0.10433985532E+02  0.12700000000E+01 0.  1.
         25    2    1    2    0    0  0.00000000000E+00  0.00000000000E+00  0.36534845270E+03  0.38614099115E+03  0.12500149262E+03 0.  0.
    9000005    1    3    3    0    0 -0.24634328043E+02 -0.52489720263E+02  0.25467870803E+03  0.26119775109E+03  0.10000000000E+01 0.  0.
    9000005    1    3    3    0    0  0.24634328043E+02  0.52489720263E+02  0.11066974467E+03  0.12494324006E+03  0.10000000000E+01 0.  0.
<mgrwt>
<rscale>  0 0.12500149E+03</rscale>
<asrwt>0</asrwt>
<pdfrwt beam="2">  1        4 0.15994263E-02 0.12500149E+03</pdfrwt>
<pdfrwt beam="1">  1       -4 0.57806872E-01 0.12500149E+03</pdfrwt>
<totfact> 0.65921224E+03</totfact>
</mgrwt>
</event>
<event>
 5    1  0.3331626E-002  0.1249932E+03  0.7818608E-02  0.1235080E+00
          4   -1    0    0  501    0  0.00000000000E+00  0.00000000000E+00  0.44546694581E+02  0.44564794379E+02  0.12700000000E+01 0. -1.
         -4   -1    0    0    0  501 -0.00000000000E+00 -0.00000000000E+00 -0.87638880332E+02  0.87648081815E+02  0.12700000000E+01 0. -1.
         25    2    1    2    0    0  0.00000000000E+00  0.00000000000E+00 -0.43092185751E+02  0.13221287619E+03  0.12499323245E+03 0.  0.
    9000005    1    3    3    0    0 -0.19888160626E+02 -0.29655799611E+02 -0.75789929878E+02  0.83786149539E+02  0.10000000000E+01 0.  0.
    9000005    1    3    3    0    0  0.19888160626E+02  0.29655799611E+02  0.32697744126E+02  0.48426726656E+02  0.10000000000E+01 0.  0.
<mgrwt>
<rscale>  0 0.12499323E+03</rscale>
<asrwt>0</asrwt>
<pdfrwt beam="1">  1        4 0.68554377E-02 0.12499323E+03</pdfrwt>
<pdfrwt beam="2">  1       -4 0.13485005E-01 0.12499323E+03</pdfrwt>
<totfact> 0.10298729E+04</totfact>
</mgrwt>
</event>
<event>
 5    1  0.3331626E-002  0.1249976E+03  0.7818608E-02  0.1235073E+00
         -4   -1    0    0    0  501 -0.00000000000E+00  0.00000000000E+00  0.12598721886E+03  0.12599361974E+03  0.12700000000E+01 0.  1.
          4   -1    0    0  501    0  0.00000000000E+00 -0.00000000000E+00 -0.30983728429E+02  0.31009745683E+02  0.12700000000E+01 0.  1.
         25    2    1    2    0    0  0.00000000000E+00  0.00000000000E+00  0.95003490430E+02  0.15700336543E+03  0.12499757422E+03 0.  0.
    9000005    1    3    3    0    0 -0.28434573999E+02 -0.10698010385E+01  0.11738414246E+03  0.12078785690E+03  0.10000000000E+01 0.  0.
    9000005    1    3    3    0    0  0.28434573999E+02  0.10698010385E+01 -0.22380652030E+02  0.36215508529E+02  0.10000000000E+01 0.  0.
<mgrwt>
<rscale>  0 0.12499757E+03</rscale>
<asrwt>0</asrwt>
<pdfrwt beam="2">  1        4 0.47692211E-02 0.12499757E+03</pdfrwt>
<pdfrwt beam="1">  1       -4 0.19385143E-01 0.12499757E+03</pdfrwt>
<totfact> 0.97928984E+03</totfact>
</mgrwt>
</event>
<event>
 5    1  0.3331626E-002  0.1249996E+03  0.7818608E-02  0.1235070E+00
          4   -1    0    0  501    0  0.00000000000E+00  0.00000000000E+00  0.39293703065E+02  0.39314221353E+02  0.12700000000E+01 0. -1.
         -4   -1    0    0    0  501 -0.00000000000E+00 -0.00000000000E+00 -0.99360511749E+02  0.99368627821E+02  0.12700000000E+01 0. -1.
         25    2    1    2    0    0  0.00000000000E+00  0.00000000000E+00 -0.60066808684E+02  0.13868284917E+03  0.12499964460E+03 0.  0.
    9000005    1    3    3    0    0 -0.17721187324E+02 -0.61122906103E+01 -0.96173090744E+02  0.97988080704E+02  0.10000000000E+01 0.  0.
    9000005    1    3    3    0    0  0.17721187324E+02  0.61122906103E+01  0.36106282060E+02  0.40694768470E+02  0.10000000000E+01 0.  0.
<mgrwt>
<rscale>  0 0.12499964E+03</rscale>
<asrwt>0</asrwt>
<pdfrwt beam="1">  1        4 0.60473878E-02 0.12499964E+03</pdfrwt>
<pdfrwt beam="2">  1       -4 0.15288435E-01 0.12499964E+03</pdfrwt>
<totfact> 0.10161039E+04</totfact>
</mgrwt>
</event>
<event>
 5    1  0.3331626E-002  0.1250007E+03  0.7818608E-02  0.1235068E+00
         -4   -1    0    0    0  501 -0.00000000000E+00  0.00000000000E+00  0.63779509226E+02  0.63792152316E+02  0.12700000000E+01 0. -1.
          4   -1    0    0  501    0  0.00000000000E+00 -0.00000000000E+00 -0.61221504608E+02  0.61234675851E+02  0.12700000000E+01 0. -1.
         25    2    1    2    0    0  0.00000000000E+00  0.00000000000E+00  0.25580046177E+01  0.12502682817E+03  0.12500065749E+03 0.  0.
    9000005    1    3    3    0    0  0.59303821842E+02  0.19307039087E+02  0.52277460375E+01  0.62594203981E+02  0.10000000000E+01 0.  0.
    9000005    1    3    3    0    0 -0.59303821842E+02 -0.19307039087E+02 -0.26697414198E+01  0.62432624185E+02  0.10000000000E+01 0.  0.
<mgrwt>
<rscale>  0 0.12500066E+03</rscale>
<asrwt>0</asrwt>
<pdfrwt beam="2">  1        4 0.94206787E-02 0.12500066E+03</pdfrwt>
<pdfrwt beam="1">  1       -4 0.98142179E-02 0.12500066E+03</pdfrwt>
<totfact> 0.10452125E+04</totfact>
</mgrwt>
</event>
<event>
 5    1  0.3331626E-002  0.1250023E+03  0.7818608E-02  0.1235066E+00
         -4   -1    0    0    0  501 -0.00000000000E+00  0.00000000000E+00  0.91130655719E+02  0.91139504672E+02  0.12700000000E+01 0.  1.
          4   -1    0    0  501    0  0.00000000000E+00 -0.00000000000E+00 -0.42845504990E+02  0.42864323135E+02  0.12700000000E+01 0.  1.
         25    2    1    2    0    0  0.00000000000E+00  0.00000000000E+00  0.48285150729E+02  0.13400382781E+03  0.12500228032E+03 0.  0.
    9000005    1    3    3    0    0 -0.30110973636E+02  0.31591550142E+02 -0.23807555093E+02  0.49724203897E+02  0.10000000000E+01 0.  0.
    9000005    1    3    3    0    0  0.30110973636E+02 -0.31591550142E+02  0.72092705822E+02  0.84279623910E+02  0.10000000000E+01 0.  0.
<mgrwt>
<rscale>  0 0.12500228E+03</rscale>
<asrwt>0</asrwt>
<pdfrwt beam="2">  1        4 0.65937445E-02 0.12500228E+03</pdfrwt>
<pdfrwt beam="1">  1       -4 0.14022229E-01 0.12500228E+03</pdfrwt>
<totfact> 0.10258583E+04</totfact>
</mgrwt>
</event>
<event>
 5    1  0.3331626E-002  0.1249993E+03  0.7818608E-02  0.1235070E+00
         -4   -1    0    0    0  501 -0.00000000000E+00  0.00000000000E+00  0.82252052086E+01  0.83226738926E+01  0.12700000000E+01 0. -1.
          4   -1    0    0  501    0  0.00000000000E+00 -0.00000000000E+00 -0.47201101023E+03  0.47201271877E+03  0.12700000000E+01 0. -1.
         25    2    1    2    0    0  0.00000000000E+00  0.00000000000E+00 -0.46378580502E+03  0.48033539266E+03  0.12499926601E+03 0.  0.
    9000005    1    3    3    0    0 -0.13509600380E+02 -0.38825754529E+02 -0.41275561819E+03  0.41479892583E+03  0.10000000000E+01 0.  0.
    9000005    1    3    3    0    0  0.13509600380E+02  0.38825754529E+02 -0.51030186826E+02  0.65536466831E+02  0.10000000000E+01 0.  0.
<mgrwt>
<rscale>  0 0.12499927E+03</rscale>
<asrwt>0</asrwt>
<pdfrwt beam="2">  1        4 0.72624686E-01 0.12499927E+03</pdfrwt>
<pdfrwt beam="1">  1       -4 0.12730456E-02 0.12499927E+03</pdfrwt>
<totfact> 0.57423980E+03</totfact>
</mgrwt>
</event>
<event>
 5    1  0.3331626E-002  0.1249937E+03  0.7818608E-02  0.1235079E+00
         -4   -1    0    0    0  501 -0.00000000000E+00  0.00000000000E+00  0.27040042451E+03  0.27040340692E+03  0.12700000000E+01 0.  1.
          4   -1    0    0  501    0  0.00000000000E+00 -0.00000000000E+00 -0.14413738106E+02  0.14469580028E+02  0.12700000000E+01 0.  1.
         25    2    1    2    0    0  0.00000000000E+00  0.00000000000E+00  0.25598668640E+03  0.28487298695E+03  0.12499374016E+03 0.  0.
    9000005    1    3    3    0    0 -0.92422792140E+01  0.29715413230E+02  0.25149508226E+03  0.25341507830E+03  0.10000000000E+01 0.  0.
    9000005    1    3    3    0    0  0.92422792140E+01 -0.29715413230E+02  0.44916041353E+01  0.31457908643E+02  0.10000000000E+01 0.  0.
<mgrwt>
<rscale>  0 0.12499374E+03</rscale>
<asrwt>0</asrwt>
<pdfrwt beam="2">  1        4 0.22220233E-02 0.12499374E+03</pdfrwt>
<pdfrwt beam="1">  1       -4 0.41604587E-01 0.12499374E+03</pdfrwt>
<totfact> 0.77547175E+03</totfact>
</mgrwt>
</event>
<event>
 5    1  0.3331626E-002  0.1249962E+03  0.7818608E-02  0.1235075E+00
         -4   -1    0    0    0  501 -0.00000000000E+00  0.00000000000E+00  0.72200083343E+02  0.72211252134E+02  0.12700000000E+01 0.  1.
          4   -1    0    0  501    0  0.00000000000E+00 -0.00000000000E+00 -0.54076998939E+02  0.54091909878E+02  0.12700000000E+01 0.  1.
         25    2    1    2    0    0  0.00000000000E+00  0.00000000000E+00  0.18123084405E+02  0.12630316201E+03  0.12499617013E+03 0.  0.
    9000005    1    3    3    0    0  0.44947179113E+02  0.21760230429E+02 -0.28897926468E+02  0.57704823825E+02  0.10000000000E+01 0.  0.
    9000005    1    3    3    0    0 -0.44947179113E+02 -0.21760230429E+02  0.47021010873E+02  0.68598338187E+02  0.10000000000E+01 0.  0.
<mgrwt>
<rscale>  0 0.12499617E+03</rscale>
<asrwt>0</asrwt>
<pdfrwt beam="2">  1        4 0.83215445E-02 0.12499617E+03</pdfrwt>
<pdfrwt beam="1">  1       -4 0.11109711E-01 0.12499617E+03</pdfrwt>
<totfact> 0.10425225E+04</totfact>
</mgrwt>
</event>
<event>
 5    1  0.3331626E-002  0.1250004E+03  0.7818608E-02  0.1235069E+00
          4   -1    0    0  501    0  0.00000000000E+00  0.00000000000E+00  0.26385804587E+03  0.26386110223E+03  0.12700000000E+01 0.  1.
         -4   -1    0    0    0  501 -0.00000000000E+00 -0.00000000000E+00 -0.14774079444E+02  0.14828564442E+02  0.12700000000E+01 0.  1.
         25    2    1    2    0    0  0.00000000000E+00  0.00000000000E+00  0.24908396643E+03  0.27868966667E+03  0.12500043192E+03 0.  0.
    9000005    1    3    3    0    0 -0.34276022282E+02 -0.72563543462E+01  0.91710183775E+01  0.36229931823E+02  0.10000000000E+01 0.  0.
    9000005    1    3    3    0    0  0.34276022282E+02  0.72563543462E+01  0.23991294805E+03  0.24245973485E+03  0.10000000000E+01 0.  0.
<mgrwt>
<rscale>  0 0.12500043E+03</rscale>
<asrwt>0</asrwt>
<pdfrwt beam="1">  1        4 0.40597969E-01 0.12500043E+03</pdfrwt>
<pdfrwt beam="2">  1       -4 0.22773617E-02 0.12500043E+03</pdfrwt>
<totfact> 0.78351416E+03</totfact>
</mgrwt>
</event>
<event>
 5    1  0.3331626E-002  0.1249978E+03  0.7818608E-02  0.1235073E+00
         -4   -1    0    0    0  501 -0.00000000000E+00  0.00000000000E+00  0.19885255570E+03  0.19885661117E+03  0.12700000000E+01 0.  1.
          4   -1    0    0  501    0  0.00000000000E+00 -0.00000000000E+00 -0.19618485642E+02  0.19659549305E+02  0.12700000000E+01 0.  1.
         25    2    1    2    0    0  0.00000000000E+00  0.00000000000E+00  0.17923407006E+03  0.21851616048E+03  0.12499784207E+03 0.  0.
    9000005    1    3    3    0    0  0.59514616319E+02 -0.19055783691E+02  0.89707581766E+02  0.10933234962E+03  0.10000000000E+01 0.  0.
    9000005    1    3    3    0    0 -0.59514616319E+02  0.19055783691E+02  0.89526488290E+02  0.10918381086E+03  0.10000000000E+01 0.  0.
<mgrwt>
<rscale>  0 0.12499784E+03</rscale>
<asrwt>0</asrwt>
<pdfrwt beam="2">  1        4 0.30216991E-02 0.12499784E+03</pdfrwt>
<pdfrwt beam="1">  1       -4 0.30596173E-01 0.12499784E+03</pdfrwt>
<totfact> 0.87107890E+03</totfact>
</mgrwt>
</event>
<event>
 5    1  0.3331626E-002  0.1250012E+03  0.7818608E-02  0.1235067E+00
         -4   -1    0    0    0  501 -0.00000000000E+00  0.00000000000E+00  0.23968987490E+02  0.24002609469E+02  0.12700000000E+01 0.  1.
          4   -1    0    0  501    0  0.00000000000E+00 -0.00000000000E+00 -0.16282380591E+03  0.16282875874E+03  0.12700000000E+01 0.  1.
         25    2    1    2    0    0  0.00000000000E+00  0.00000000000E+00 -0.13885481842E+03  0.18683136821E+03  0.12500119818E+03 0.  0.
    9000005    1    3    3    0    0 -0.62300274522E+02 -0.37244358889E+01 -0.64670504584E+02  0.89880308140E+02  0.10000000000E+01 0.  0.
    9000005    1    3    3    0    0  0.62300274522E+02  0.37244358889E+01 -0.74184313838E+02  0.96951060066E+02  0.10000000000E+01 0.  0.
<mgrwt>
<rscale>  0 0.12500120E+03</rscale>
<asrwt>0</asrwt>
<pdfrwt beam="2">  1        4 0.25052783E-01 0.12500120E+03</pdfrwt>
<pdfrwt beam="1">  1       -4 0.36905039E-02 0.12500120E+03</pdfrwt>
<totfact> 0.92399107E+03</totfact>
</mgrwt>
</event>
<event>
 5    1  0.3331626E-002  0.1250453E+03  0.7818608E-02  0.1234998E+00
         -4   -1    0    0    0  501 -0.00000000000E+00  0.00000000000E+00  0.37470872824E+01  0.39564584039E+01  0.12700000000E+01 0.  1.
          4   -1    0    0  501    0  0.00000000000E+00 -0.00000000000E+00 -0.10146688723E+04  0.10146696671E+04  0.12700000000E+01 0.  1.
         25    2    1    2    0    0  0.00000000000E+00  0.00000000000E+00 -0.10109217850E+04  0.10186261255E+04  0.12504530426E+03 0.  0.
    9000005    1    3    3    0    0 -0.50192095423E+02 -0.19624991638E+02 -0.24738444846E+03  0.25318857020E+03  0.10000000000E+01 0.  0.
    9000005    1    3    3    0    0  0.50192095423E+02  0.19624991638E+02 -0.76353733658E+03  0.76543755532E+03  0.10000000000E+01 0.  0.
<mgrwt>
<rscale>  0 0.12504530E+03</rscale>
<asrwt>0</asrwt>
<pdfrwt beam="2">  1        4 0.15611886E+00 0.12504530E+03</pdfrwt>
<pdfrwt beam="1">  1       -4 0.59264238E-03 0.12504530E+03</pdfrwt>
<totfact> 0.29965360E+03</totfact>
</mgrwt>
</event>
<event>
 5    1  0.3331626E-002  0.1249940E+03  0.7818608E-02  0.1235079E+00
          4   -1    0    0  501    0  0.00000000000E+00  0.00000000000E+00  0.19626827557E+04  0.19626831665E+04  0.12700000000E+01 0. -1.
         -4   -1    0    0    0  501 -0.00000000000E+00 -0.00000000000E+00 -0.17869995869E+01  0.21923201234E+01  0.12700000000E+01 0. -1.
         25    2    1    2    0    0  0.00000000000E+00  0.00000000000E+00  0.19608957561E+04  0.19648754867E+04  0.12499404766E+03 0.  0.
    9000005    1    3    3    0    0 -0.17759021515E+02 -0.57720094153E+01  0.19178749948E+04  0.19179661610E+04  0.10000000000E+01 0.  0.
    9000005    1    3    3    0    0  0.17759021515E+02  0.57720094153E+01  0.43020761279E+02  0.46909325714E+02  0.10000000000E+01 0.  0.
<mgrwt>
<rscale>  0 0.12499405E+03</rscale>
<asrwt>0</asrwt>
<pdfrwt beam="1">  1        4 0.30198278E+00 0.12499405E+03</pdfrwt>
<pdfrwt beam="2">  1       -4 0.30613274E-03 0.12499405E+03</pdfrwt>
<totfact> 0.10328096E+03</totfact>
</mgrwt>
</event>
<event>
 5    1  0.3331626E-002  0.1250007E+03  0.7818608E-02  0.1235068E+00
          4   -1    0    0  501    0  0.00000000000E+00  0.00000000000E+00  0.76791755381E+02  0.76802256441E+02  0.12700000000E+01 0. -1.
         -4   -1    0    0    0  501 -0.00000000000E+00 -0.00000000000E+00 -0.50846714098E+02  0.50862572041E+02  0.12700000000E+01 0. -1.
         25    2    1    2    0    0  0.00000000000E+00  0.00000000000E+00  0.25945041282E+02  0.12766482848E+03  0.12500065305E+03 0.  0.
    9000005    1    3    3    0    0 -0.55033101416E+02 -0.29582914976E+02  0.11721794967E+02  0.63578232023E+02  0.10000000000E+01 0.  0.
    9000005    1    3    3    0    0  0.55033101416E+02  0.29582914976E+02  0.14223246315E+02  0.64086596459E+02  0.10000000000E+01 0.  0.
<mgrwt>
<rscale>  0 0.12500065E+03</rscale>
<asrwt>0</asrwt>
<pdfrwt beam="1">  1        4 0.11816144E-01 0.12500065E+03</pdfrwt>
<pdfrwt beam="2">  1       -4 0.78245990E-02 0.12500065E+03</pdfrwt>
<totfact> 0.10394579E+04</totfact>
</mgrwt>
</event>
<event>
 5    1  0.3331626E-002  0.1250015E+03  0.7818608E-02  0.1235067E+00
          4   -1    0    0  501    0  0.00000000000E+00  0.00000000000E+00  0.26915620148E+02  0.26945565646E+02  0.12700000000E+01 0.  1.
         -4   -1    0    0    0  501 -0.00000000000E+00 -0.00000000000E+00 -0.14501950587E+03  0.14502506674E+03  0.12700000000E+01 0.  1.
         25    2    1    2    0    0  0.00000000000E+00  0.00000000000E+00 -0.11810388573E+03  0.17197063239E+03  0.12500148231E+03 0.  0.
    9000005    1    3    3    0    0  0.10940015379E+02 -0.75603985855E+01  0.24953252370E+02  0.28293256566E+02  0.10000000000E+01 0.  0.
    9000005    1    3    3    0    0 -0.10940015379E+02  0.75603985855E+01 -0.14305713810E+03  0.14367737582E+03  0.10000000000E+01 0.  0.
<mgrwt>
<rscale>  0 0.12500148E+03</rscale>
<asrwt>0</asrwt>
<pdfrwt beam="1">  1        4 0.41435960E-02 0.12500148E+03</pdfrwt>
<pdfrwt beam="2">  1       -4 0.22313424E-01 0.12500148E+03</pdfrwt>
<totfact> 0.95079446E+03</totfact>
</mgrwt>
</event>
<event>
 5    1  0.3331626E-002  0.1249993E+03  0.7818608E-02  0.1235070E+00
          4   -1    0    0  501    0  0.00000000000E+00  0.00000000000E+00  0.15276330740E+04  0.15276336019E+04  0.12700000000E+01 0.  1.
         -4   -1    0    0    0  501 -0.00000000000E+00 -0.00000000000E+00 -0.23987794510E+01  0.27142296982E+01  0.12700000000E+01 0.  1.
         25    2    1    2    0    0  0.00000000000E+00  0.00000000000E+00  0.15252342946E+04  0.15303478316E+04  0.12499932973E+03 0.  0.
    9000005    1    3    3    0    0 -0.54929711108E+02 -0.30904449961E+01  0.39976917526E+03  0.40353837179E+03  0.10000000000E+01 0.  0.
    9000005    1    3    3    0    0  0.54929711108E+02  0.30904449961E+01  0.11254651193E+04  0.11268094598E+04  0.10000000000E+01 0.  0.
<mgrwt>
<rscale>  0 0.12499933E+03</rscale>
<asrwt>0</asrwt>
<pdfrwt beam="1">  1        4 0.23504547E+00 0.12499933E+03</pdfrwt>
<pdfrwt beam="2">  1       -4 0.39334785E-03 0.12499933E+03</pdfrwt>
<totfact> 0.17341664E+03</totfact>
</mgrwt>
</event>
<event>
 5    1  0.3331626E-002  0.1249979E+03  0.7818608E-02  0.1235073E+00
         -4   -1    0    0    0  501 -0.00000000000E+00  0.00000000000E+00  0.40297256551E+03  0.40297456675E+03  0.12700000000E+01 0. -1.
          4   -1    0    0  501    0  0.00000000000E+00 -0.00000000000E+00 -0.96496357034E+01  0.97328500044E+01  0.12700000000E+01 0. -1.
         25    2    1    2    0    0  0.00000000000E+00  0.00000000000E+00  0.39332292980E+03  0.41270741676E+03  0.12499793894E+03 0.  0.
    9000005    1    3    3    0    0 -0.20010795763E+02  0.41677869343E+02  0.33547661848E+03  0.33864884214E+03  0.10000000000E+01 0.  0.
    9000005    1    3    3    0    0  0.20010795763E+02 -0.41677869343E+02  0.57846311324E+02  0.74058574613E+02  0.10000000000E+01 0.  0.
<mgrwt>
<rscale>  0 0.12499794E+03</rscale>
<asrwt>0</asrwt>
<pdfrwt beam="2">  1        4 0.14911148E-02 0.12499794E+03</pdfrwt>
<pdfrwt beam="1">  1       -4 0.62002316E-01 0.12499794E+03</pdfrwt>
<totfact> 0.63338254E+03</totfact>
</mgrwt>
</event>
<event>
 5    1  0.3331626E-002  0.1249998E+03  0.7818608E-02  0.1235070E+00
         -4   -1    0    0    0  501 -0.00000000000E+00  0.00000000000E+00  0.19360649146E+02  0.19402258511E+02  0.12700000000E+01 0. -1.
          4   -1    0    0  501    0  0.00000000000E+00 -0.00000000000E+00 -0.20150139386E+03  0.20150539603E+03  0.12700000000E+01 0. -1.
         25    2    1    2    0    0  0.00000000000E+00  0.00000000000E+00 -0.18214074472E+03  0.22090765454E+03  0.12499976379E+03 0.  0.
    9000005    1    3    3    0    0  0.16952072543E+02  0.39567279456E+02 -0.11009329942E+02  0.44442633955E+02  0.10000000000E+01 0.  0.
    9000005    1    3    3    0    0 -0.16952072543E+02 -0.39567279456E+02 -0.17113141478E+03  0.17646502059E+03  0.10000000000E+01 0.  0.
<mgrwt>
<rscale>  0 0.12499976E+03</rscale>
<asrwt>0</asrwt>
<pdfrwt beam="2">  1        4 0.31003721E-01 0.12499976E+03</pdfrwt>
<pdfrwt beam="1">  1       -4 0.29820701E-02 0.12499976E+03</pdfrwt>
<totfact> 0.86725387E+03</totfact>
</mgrwt>
</event>
<event>
 5    1  0.3331626E-002  0.1250030E+03  0.7818608E-02  0.1235065E+00
          4   -1    0    0  501    0  0.00000000000E+00  0.00000000000E+00  0.37578487507E+02  0.37599941799E+02  0.12700000000E+01 0. -1.
         -4   -1    0    0    0  501 -0.00000000000E+00 -0.00000000000E+00 -0.10389906169E+03  0.10390682326E+03  0.12700000000E+01 0. -1.
         25    2    1    2    0    0  0.00000000000E+00  0.00000000000E+00 -0.66320574179E+02  0.14150676506E+03  0.12500298395E+03 0.  0.
    9000005    1    3    3    0    0 -0.55195976812E+02  0.18322833086E+02 -0.59051665552E+02  0.82888004397E+02  0.10000000000E+01 0.  0.
    9000005    1    3    3    0    0  0.55195976812E+02 -0.18322833086E+02 -0.72689086273E+01  0.58618760658E+02  0.10000000000E+01 0.  0.
<mgrwt>
<rscale>  0 0.12500298E+03</rscale>
<asrwt>0</asrwt>
<pdfrwt beam="1">  1        4 0.57835532E-02 0.12500298E+03</pdfrwt>
<pdfrwt beam="2">  1       -4 0.15986718E-01 0.12500298E+03</pdfrwt>
<totfact> 0.10101773E+04</totfact>
</mgrwt>
</event>
<event>
 5    1  0.3331626E-002  0.1250006E+03  0.7818608E-02  0.1235068E+00
          4   -1    0    0  501    0  0.00000000000E+00  0.00000000000E+00  0.33454712386E+03  0.33454953443E+03  0.12700000000E+01 0. -1.
         -4   -1    0    0    0  501 -0.00000000000E+00 -0.00000000000E+00 -0.11639351626E+02  0.11708433126E+02  0.12700000000E+01 0. -1.
         25    2    1    2    0    0  0.00000000000E+00  0.00000000000E+00  0.32290777224E+03  0.34625796755E+03  0.12500060289E+03 0.  0.
    9000005    1    3    3    0    0  0.11498172126E+02  0.22608934415E+02  0.32474886700E+01  0.25591366909E+02  0.10000000000E+01 0.  0.
    9000005    1    3    3    0    0 -0.11498172126E+02 -0.22608934415E+02  0.31966028357E+03  0.32066660064E+03  0.10000000000E+01 0.  0.
<mgrwt>
<rscale>  0 0.12500060E+03</rscale>
<asrwt>0</asrwt>
<pdfrwt beam="1">  1        4 0.51474292E-01 0.12500060E+03</pdfrwt>
<pdfrwt beam="2">  1       -4 0.17961687E-02 0.12500060E+03</pdfrwt>
<totfact> 0.70137255E+03</totfact>
</mgrwt>
</event>
<event>
 5    1  0.3331626E-002  0.1249991E+03  0.7818608E-02  0.1235071E+00
         -4   -1    0    0    0  501 -0.00000000000E+00  0.00000000000E+00  0.31768823916E+02  0.31794198732E+02  0.12700000000E+01 0.  1.
          4   -1    0    0  501    0  0.00000000000E+00 -0.00000000000E+00 -0.12287914130E+03  0.12288570408E+03  0.12700000000E+01 0.  1.
         25    2    1    2    0    0  0.00000000000E+00  0.00000000000E+00 -0.91110317383E+02  0.15467990281E+03  0.12499912959E+03 0.  0.
    9000005    1    3    3    0    0  0.46532097678E+02  0.26584875462E+02 -0.57792677417E+01  0.53910960418E+02  0.10000000000E+01 0.  0.
    9000005    1    3    3    0    0 -0.46532097678E+02 -0.26584875462E+02 -0.85331049641E+02  0.10076894239E+03  0.10000000000E+01 0.  0.
<mgrwt>
<rscale>  0 0.12499913E+03</rscale>
<asrwt>0</asrwt>
<pdfrwt beam="2">  1        4 0.18906940E-01 0.12499913E+03</pdfrwt>
<pdfrwt beam="1">  1       -4 0.48899682E-02 0.12499913E+03</pdfrwt>
<totfact> 0.98380301E+03</totfact>
</mgrwt>
</event>
<event>
 5    1  0.3331626E-002  0.1249991E+03  0.7818608E-02  0.1235071E+00
         -4   -1    0    0    0  501 -0.00000000000E+00  0.00000000000E+00  0.12579556443E+02  0.12643501900E+02  0.12700000000E+01 0. -1.
          4   -1    0    0  501    0  0.00000000000E+00 -0.00000000000E+00 -0.30966653050E+03  0.30966913474E+03  0.12700000000E+01 0. -1.
         25    2    1    2    0    0  0.00000000000E+00  0.00000000000E+00 -0.29708697406E+03  0.32231263664E+03  0.12499906234E+03 0.  0.
    9000005    1    3    3    0    0  0.36386863293E+01  0.13086412725E+02  0.87398587537E+01  0.16182687269E+02  0.10000000000E+01 0.  0.
    9000005    1    3    3    0    0 -0.36386863293E+01 -0.13086412725E+02 -0.30582683281E+03  0.30612994937E+03  0.10000000000E+01 0.  0.
<mgrwt>
<rscale>  0 0.12499906E+03</rscale>
<asrwt>0</asrwt>
<pdfrwt beam="2">  1        4 0.47646118E-01 0.12499906E+03</pdfrwt>
<pdfrwt beam="1">  1       -4 0.19404358E-02 0.12499906E+03</pdfrwt>
<totfact> 0.72883427E+03</totfact>
</mgrwt>
</event>
<event>
 5    1  0.3331626E-002  0.1250280E+03  0.7818608E-02  0.1235025E+00
         -4   -1    0    0    0  501 -0.00000000000E+00  0.00000000000E+00  0.26821806885E+03  0.26822107553E+03  0.12700000000E+01 0.  1.
          4   -1    0    0  501    0  0.00000000000E+00 -0.00000000000E+00 -0.14539475305E+02  0.14594836147E+02  0.12700000000E+01 0.  1.
         25    2    1    2    0    0  0.00000000000E+00  0.00000000000E+00  0.25367859354E+03  0.28281591167E+03  0.12502804115E+03 0.  0.
    9000005    1    3    3    0    0 -0.41782022864E+02  0.39342658498E+02  0.18286348540E+03  0.19166021106E+03  0.10000000000E+01 0.  0.
    9000005    1    3    3    0    0  0.41782022864E+02 -0.39342658498E+02  0.70815108143E+02  0.91155700610E+02  0.10000000000E+01 0.  0.
<mgrwt>
<rscale>  0 0.12502804E+03</rscale>
<asrwt>0</asrwt>
<pdfrwt beam="2">  1        4 0.22413322E-02 0.12502804E+03</pdfrwt>
<pdfrwt beam="1">  1       -4 0.41268808E-01 0.12502804E+03</pdfrwt>
<totfact> 0.77757742E+03</totfact>
</mgrwt>
</event>
<event>
 5    1  0.3331626E-002  0.1250028E+03  0.7818608E-02  0.1235065E+00
         -4   -1    0    0    0  501 -0.00000000000E+00  0.00000000000E+00  0.19714810063E+02  0.19755673510E+02  0.12700000000E+01 0. -1.
          4   -1    0    0  501    0  0.00000000000E+00 -0.00000000000E+00 -0.19789879362E+03  0.19790286864E+03  0.12700000000E+01 0. -1.
         25    2    1    2    0    0  0.00000000000E+00  0.00000000000E+00 -0.17818398356E+03  0.21765854215E+03  0.12500283587E+03 0.  0.
    9000005    1    3    3    0    0  0.42766220130E+02  0.15810897850E+02 -0.14676239509E+02  0.47909561480E+02  0.10000000000E+01 0.  0.
    9000005    1    3    3    0    0 -0.42766220130E+02 -0.15810897850E+02 -0.16350774405E+03  0.16974898067E+03  0.10000000000E+01 0.  0.
<mgrwt>
<rscale>  0 0.12500284E+03</rscale>
<asrwt>0</asrwt>
<pdfrwt beam="2">  1        4 0.30449424E-01 0.12500284E+03</pdfrwt>
<pdfrwt beam="1">  1       -4 0.30365046E-02 0.12500284E+03</pdfrwt>
<totfact> 0.87234690E+03</totfact>
</mgrwt>
</event>
<event>
 5    1  0.3331626E-002  0.1249950E+03  0.7818608E-02  0.1235077E+00
          4   -1    0    0  501    0  0.00000000000E+00  0.00000000000E+00  0.26175439924E+02  0.26206231229E+02  0.12700000000E+01 0.  1.
         -4   -1    0    0    0  501 -0.00000000000E+00 -0.00000000000E+00 -0.14910032468E+03  0.14910573336E+03  0.12700000000E+01 0.  1.
         25    2    1    2    0    0  0.00000000000E+00  0.00000000000E+00 -0.12292488476E+03  0.17531196458E+03  0.12499503044E+03 0.  0.
    9000005    1    3    3    0    0  0.38995243690E+02  0.72459217941E+01 -0.12918995258E+03  0.13514501937E+03  0.10000000000E+01 0.  0.
    9000005    1    3    3    0    0 -0.38995243690E+02 -0.72459217941E+01  0.62650678236E+01  0.40166945215E+02  0.10000000000E+01 0.  0.
<mgrwt>
<rscale>  0 0.12499503E+03</rscale>
<asrwt>0</asrwt>
<pdfrwt beam="1">  1        4 0.40297755E-02 0.12499503E+03</pdfrwt>
<pdfrwt beam="2">  1       -4 0.22941296E-01 0.12499503E+03</pdfrwt>
<totfact> 0.94478268E+03</totfact>
</mgrwt>
</event>
<event>
 5    1  0.3331626E-002  0.1249953E+03  0.7818608E-02  0.1235077E+00
          4   -1    0    0  501    0  0.00000000000E+00  0.00000000000E+00  0.19074827596E+02  0.19117059079E+02  0.12700000000E+01 0.  1.
         -4   -1    0    0    0  501 -0.00000000000E+00 -0.00000000000E+00 -0.20449944565E+03  0.20450338914E+03  0.12700000000E+01 0.  1.
         25    2    1    2    0    0  0.00000000000E+00  0.00000000000E+00 -0.18542461805E+03  0.22362044822E+03  0.12499526344E+03 0.  0.
    9000005    1    3    3    0    0  0.38687703046E+02  0.20245876564E+02 -0.12738002254E+02  0.45496050226E+02  0.10000000000E+01 0.  0.
    9000005    1    3    3    0    0 -0.38687703046E+02 -0.20245876564E+02 -0.17268661580E+03  0.17812439800E+03  0.10000000000E+01 0.  0.
<mgrwt>
<rscale>  0 0.12499526E+03</rscale>
<asrwt>0</asrwt>
<pdfrwt beam="1">  1        4 0.29381409E-02 0.12499526E+03</pdfrwt>
<pdfrwt beam="2">  1       -4 0.31465003E-01 0.12499526E+03</pdfrwt>
<totfact> 0.86307812E+03</totfact>
</mgrwt>
</event>
<event>
 5    1  0.3331626E-002  0.1250050E+03  0.7818608E-02  0.1235061E+00
          4   -1    0    0  501    0  0.00000000000E+00  0.00000000000E+00  0.18857081347E+02  0.18899799388E+02  0.12700000000E+01 0. -1.
         -4   -1    0    0    0  501 -0.00000000000E+00 -0.00000000000E+00 -0.20688796103E+03  0.20689185900E+03  0.12700000000E+01 0. -1.
         25    2    1    2    0    0  0.00000000000E+00  0.00000000000E+00 -0.18803087968E+03  0.22579165839E+03  0.12500504503E+03 0.  0.
    9000005    1    3    3    0    0  0.35641529671E+02 -0.15235731048E+02 -0.18256124830E+03  0.18663347910E+03  0.10000000000E+01 0.  0.
    9000005    1    3    3    0    0 -0.35641529671E+02  0.15235731048E+02 -0.54696313823E+01  0.39158179290E+02  0.10000000000E+01 0.  0.
<mgrwt>
<rscale>  0 0.12500505E+03</rscale>
<asrwt>0</asrwt>
<pdfrwt beam="1">  1        4 0.29046754E-02 0.12500505E+03</pdfrwt>
<pdfrwt beam="2">  1       -4 0.31832501E-01 0.12500505E+03</pdfrwt>
<totfact> 0.85950331E+03</totfact>
</mgrwt>
</event>
<event>
 4    1  0.3331626E-002  0.1249220E+03  0.7818608E-02  0.1235191E+00
          4   -1    0    0  501    0  0.00000000000E+00  0.00000000000E+00  0.91774851623E+02  0.91783638468E+02  0.12700000000E+01 0.  1.
         -4   -1    0    0    0  501 -0.00000000000E+00 -0.00000000000E+00 -0.42489982746E+02  0.42508958277E+02  0.12700000000E+01 0.  1.
    9000005    1    1    2    0    0 -0.24790178288E+01  0.58469728871E+02  0.12002503260E+01  0.58543106550E+02  0.10000000000E+01 0.  0.
    9000005    1    1    2    0    0  0.24790178288E+01 -0.58469728871E+02  0.48084618550E+02  0.75749490195E+02  0.10000000000E+01 0.  0.
<mgrwt>
<rscale>  0 0.12492199E+03</rscale>
<asrwt>0</asrwt>
<pdfrwt beam="1">  1        4 0.14121343E-01 0.12492199E+03</pdfrwt>
<pdfrwt beam="2">  1       -4 0.65390560E-02 0.12492199E+03</pdfrwt>
<totfact> 0.10271063E+04</totfact>
</mgrwt>
</event>
<event>
 5    1  0.3331626E-002  0.1249963E+03  0.7818608E-02  0.1235075E+00
          4   -1    0    0  501    0  0.00000000000E+00  0.00000000000E+00  0.25833032773E+02  0.25864231716E+02  0.12700000000E+01 0. -1.
         -4   -1    0    0    0  501 -0.00000000000E+00 -0.00000000000E+00 -0.15107729711E+03  0.15108263501E+03  0.12700000000E+01 0. -1.
         25    2    1    2    0    0  0.00000000000E+00  0.00000000000E+00 -0.12524426434E+03  0.17694686673E+03  0.12499627153E+03 0.  0.
    9000005    1    3    3    0    0 -0.69229828093E+01  0.14316623547E+02 -0.14817184380E+03  0.14902613427E+03  0.10000000000E+01 0.  0.
    9000005    1    3    3    0    0  0.69229828093E+01 -0.14316623547E+02  0.22927579464E+02  0.27920732455E+02  0.10000000000E+01 0.  0.
<mgrwt>
<rscale>  0 0.12499627E+03</rscale>
<asrwt>0</asrwt>
<pdfrwt beam="1">  1        4 0.39771234E-02 0.12499627E+03</pdfrwt>
<pdfrwt beam="2">  1       -4 0.23245471E-01 0.12499627E+03</pdfrwt>
<totfact> 0.94177357E+03</totfact>
</mgrwt>
</event>
<event>
 5    1  0.3331626E-002  0.1249996E+03  0.7818608E-02  0.1235070E+00
          4   -1    0    0  501    0  0.00000000000E+00  0.00000000000E+00  0.94808177718E+02  0.94816683460E+02  0.12700000000E+01 0.  1.
         -4   -1    0    0    0  501 -0.00000000000E+00 -0.00000000000E+00 -0.41181177797E+02  0.41200756119E+02  0.12700000000E+01 0.  1.
         25    2    1    2    0    0  0.00000000000E+00  0.00000000000E+00  0.53626999921E+02  0.13601743958E+03  0.12499955500E+03 0.  0.
    9000005    1    3    3    0    0  0.38962919230E+02 -0.40389659590E+02 -0.31013115801E+01  0.56214338120E+02  0.10000000000E+01 0.  0.
    9000005    1    3    3    0    0 -0.38962919230E+02  0.40389659590E+02  0.56728311501E+02  0.79803101459E+02  0.10000000000E+01 0.  0.
<mgrwt>
<rscale>  0 0.12499955E+03</rscale>
<asrwt>0</asrwt>
<pdfrwt beam="1">  1        4 0.14588034E-01 0.12499955E+03</pdfrwt>
<pdfrwt beam="2">  1       -4 0.63377262E-02 0.12499955E+03</pdfrwt>
<totfact> 0.10216773E+04</totfact>
</mgrwt>
</event>
<event>
 5    1  0.3331626E-002  0.1249994E+03  0.7818608E-02  0.1235070E+00
         -4   -1    0    0    0  501 -0.00000000000E+00  0.00000000000E+00  0.48679814791E+02  0.48696378388E+02  0.12700000000E+01 0. -1.
          4   -1    0    0  501    0  0.00000000000E+00 -0.00000000000E+00 -0.80207747742E+02  0.80217801627E+02  0.12700000000E+01 0. -1.
         25    2    1    2    0    0  0.00000000000E+00  0.00000000000E+00 -0.31527932951E+02  0.12891418001E+03  0.12499942101E+03 0.  0.
    9000005    1    3    3    0    0  0.17251324433E+02  0.34878188155E+02 -0.66194453009E+02  0.76790636231E+02  0.10000000000E+01 0.  0.
    9000005    1    3    3    0    0 -0.17251324433E+02 -0.34878188155E+02  0.34666520058E+02  0.52123543783E+02  0.10000000000E+01 0.  0.
<mgrwt>
<rscale>  0 0.12499942E+03</rscale>
<asrwt>0</asrwt>
<pdfrwt beam="2">  1        4 0.12341701E-01 0.12499942E+03</pdfrwt>
<pdfrwt beam="1">  1       -4 0.74912498E-02 0.12499942E+03</pdfrwt>
<totfact> 0.10367927E+04</totfact>
</mgrwt>
</event>
<event>
 5    1  0.3331626E-002  0.1250067E+03  0.7818608E-02  0.1235059E+00
         -4   -1    0    0    0  501 -0.00000000000E+00  0.00000000000E+00  0.11782558414E+02  0.11850805154E+02  0.12700000000E+01 0.  1.
          4   -1    0    0  501    0  0.00000000000E+00 -0.00000000000E+00 -0.33053694821E+03  0.33053938802E+03  0.12700000000E+01 0.  1.
         25    2    1    2    0    0  0.00000000000E+00  0.00000000000E+00 -0.31875438980E+03  0.34239019317E+03  0.12500673329E+03 0.  0.
    9000005    1    3    3    0    0  0.36100199287E+02 -0.27577772946E+02 -0.27692714651E+03  0.28063036618E+03  0.10000000000E+01 0.  0.
    9000005    1    3    3    0    0 -0.36100199287E+02  0.27577772946E+02 -0.41827243288E+02  0.61759826994E+02  0.10000000000E+01 0.  0.
<mgrwt>
<rscale>  0 0.12500673E+03</rscale>
<asrwt>0</asrwt>
<pdfrwt beam="2">  1        4 0.50857269E-01 0.12500673E+03</pdfrwt>
<pdfrwt beam="1">  1       -4 0.18181390E-02 0.12500673E+03</pdfrwt>
<totfact> 0.70559405E+03</totfact>
</mgrwt>
</event>
<event>
 5    1  0.3331626E-002  0.1250019E+03  0.7818608E-02  0.1235066E+00
         -4   -1    0    0    0  501 -0.00000000000E+00  0.00000000000E+00  0.32073501994E+01  0.34496369812E+01  0.12700000000E+01 0.  1.
          4   -1    0    0  501    0  0.00000000000E+00 -0.00000000000E+00 -0.11733722433E+04  0.11733729306E+04  0.12700000000E+01 0.  1.
         25    2    1    2    0    0  0.00000000000E+00  0.00000000000E+00 -0.11701648931E+04  0.11768225676E+04  0.12500191401E+03 0.  0.
    9000005    1    3    3    0    0  0.19310132292E+02  0.40636156939E+02 -0.99341197823E+03  0.99443076026E+03  0.10000000000E+01 0.  0.
    9000005    1    3    3    0    0 -0.19310132292E+02 -0.40636156939E+02 -0.17675291487E+03  0.18239180731E+03  0.10000000000E+01 0.  0.
<mgrwt>
<rscale>  0 0.12500191E+03</rscale>
<asrwt>0</asrwt>
<pdfrwt beam="2">  1        4 0.18053717E+00 0.12500191E+03</pdfrwt>
<pdfrwt beam="1">  1       -4 0.51212974E-03 0.12500191E+03</pdfrwt>
<totfact> 0.25326605E+03</totfact>
</mgrwt>
</event>
<event>
 5    1  0.3331626E-002  0.1249988E+03  0.7818608E-02  0.1235071E+00
         -4   -1    0    0    0  501 -0.00000000000E+00  0.00000000000E+00  0.37841002694E+03  0.37841215809E+03  0.12700000000E+01 0. -1.
          4   -1    0    0  501    0  0.00000000000E+00 -0.00000000000E+00 -0.10281364452E+02  0.10359505538E+02  0.12700000000E+01 0. -1.
         25    2    1    2    0    0  0.00000000000E+00  0.00000000000E+00  0.36812866249E+03  0.38877166362E+03  0.12499877717E+03 0.  0.
    9000005    1    3    3    0    0  0.60118105543E+02  0.15234621915E+02  0.16019602424E+03  0.17178488438E+03  0.10000000000E+01 0.  0.
    9000005    1    3    3    0    0 -0.60118105543E+02 -0.15234621915E+02  0.20793263825E+03  0.21698677924E+03  0.10000000000E+01 0.  0.
<mgrwt>
<rscale>  0 0.12499878E+03</rscale>
<asrwt>0</asrwt>
<pdfrwt beam="2">  1        4 0.15879235E-02 0.12499878E+03</pdfrwt>
<pdfrwt beam="1">  1       -4 0.58223089E-01 0.12499878E+03</pdfrwt>
<totfact> 0.65661473E+03</totfact>
</mgrwt>
</event>
<event>
 5    1  0.3331626E-002  0.1250321E+03  0.7818608E-02  0.1235019E+00
         -4   -1    0    0    0  501 -0.00000000000E+00  0.00000000000E+00  0.33949785727E+02  0.33973531623E+02  0.12700000000E+01 0.  1.
          4   -1    0    0  501    0  0.00000000000E+00 -0.00000000000E+00 -0.11505124273E+03  0.11505825200E+03  0.12700000000E+01 0.  1.
         25    2    1    2    0    0  0.00000000000E+00  0.00000000000E+00 -0.81101457002E+02  0.14903178362E+03  0.12503210069E+03 0.  0.
    9000005    1    3    3    0    0  0.31825048799E+02  0.43261116219E+02 -0.78672552545E+02  0.95261369041E+02  0.10000000000E+01 0.  0.
    9000005    1    3    3    0    0 -0.31825048799E+02 -0.43261116219E+02 -0.24289044567E+01  0.53770414583E+02  0.10000000000E+01 0.  0.
<mgrwt>
<rscale>  0 0.12503210E+03</rscale>
<asrwt>0</asrwt>
<pdfrwt beam="2">  1        4 0.17702557E-01 0.12503210E+03</pdfrwt>
<pdfrwt beam="1">  1       -4 0.52254098E-02 0.12503210E+03</pdfrwt>
<totfact> 0.99425193E+03</totfact>
</mgrwt>
</event>
<event>
 5    1  0.3331626E-002  0.1250106E+03  0.7818608E-02  0.1235053E+00
         -4   -1    0    0    0  501 -0.00000000000E+00  0.00000000000E+00  0.32276582921E+03  0.32276832776E+03  0.12700000000E+01 0.  1.
          4   -1    0    0  501    0  0.00000000000E+00 -0.00000000000E+00 -0.12068615734E+02  0.12135253839E+02  0.12700000000E+01 0.  1.
         25    2    1    2    0    0  0.00000000000E+00  0.00000000000E+00  0.31069721347E+03  0.33490358159E+03  0.12501060157E+03 0.  0.
    9000005    1    3    3    0    0 -0.17119266693E+01 -0.15060839442E+02  0.31777991379E+03  0.31814278742E+03  0.10000000000E+01 0.  0.
    9000005    1    3    3    0    0  0.17119266693E+01  0.15060839442E+02 -0.70827003187E+01  0.16760794177E+02  0.10000000000E+01 0.  0.
<mgrwt>
<rscale>  0 0.12501060E+03</rscale>
<asrwt>0</asrwt>
<pdfrwt beam="2">  1        4 0.18620281E-02 0.12501060E+03</pdfrwt>
<pdfrwt beam="1">  1       -4 0.49661606E-01 0.12501060E+03</pdfrwt>
<totfact> 0.71401140E+03</totfact>
</mgrwt>
</event>
<event>
 5    1  0.3331626E-002  0.1249992E+03  0.7818608E-02  0.1235070E+00
          4   -1    0    0  501    0  0.00000000000E+00  0.00000000000E+00  0.59306550803E+03  0.59306686783E+03  0.12700000000E+01 0. -1.
         -4   -1    0    0    0  501 -0.00000000000E+00 -0.00000000000E+00 -0.65238590277E+01  0.66463250457E+01  0.12700000000E+01 0. -1.
         25    2    1    2    0    0  0.00000000000E+00  0.00000000000E+00  0.58654164900E+03  0.59971319287E+03  0.12499923077E+03 0.  0.
    9000005    1    3    3    0    0 -0.22070056315E+02 -0.23107758723E+02  0.35612080827E+02  0.47856830231E+02  0.10000000000E+01 0.  0.
    9000005    1    3    3    0    0  0.22070056315E+02  0.23107758723E+02  0.55092956818E+03  0.55185636264E+03  0.10000000000E+01 0.  0.
<mgrwt>
<rscale>  0 0.12499923E+03</rscale>
<asrwt>0</asrwt>
<pdfrwt beam="1">  1        4 0.91250377E-01 0.12499923E+03</pdfrwt>
<pdfrwt beam="2">  1       -4 0.10131956E-02 0.12499923E+03</pdfrwt>
<totfact> 0.48886542E+03</totfact>
</mgrwt>
</event>
<event>
 5    1  0.3331626E-002  0.1250013E+03  0.7818608E-02  0.1235067E+00
          4   -1    0    0  501    0  0.00000000000E+00  0.00000000000E+00  0.12391874709E+03  0.12392525481E+03  0.12700000000E+01 0. -1.
         -4   -1    0    0    0  501 -0.00000000000E+00 -0.00000000000E+00 -0.31503185321E+02  0.31528773927E+02  0.12700000000E+01 0. -1.
         25    2    1    2    0    0  0.00000000000E+00  0.00000000000E+00  0.92415561768E+02  0.15545402874E+03  0.12500127597E+03 0.  0.
    9000005    1    3    3    0    0  0.40628397726E+01  0.13721520135E+02  0.12185975427E+03  0.12270120819E+03  0.10000000000E+01 0.  0.
    9000005    1    3    3    0    0 -0.40628397726E+01 -0.13721520135E+02 -0.29444192499E+02  0.32752820546E+02  0.10000000000E+01 0.  0.
<mgrwt>
<rscale>  0 0.12500128E+03</rscale>
<asrwt>0</asrwt>
<pdfrwt beam="1">  1        4 0.19066892E-01 0.12500128E+03</pdfrwt>
<pdfrwt beam="2">  1       -4 0.48491128E-02 0.12500128E+03</pdfrwt>
<totfact> 0.98223622E+03</totfact>
</mgrwt>
</event>
<event>
 5    1  0.3331626E-002  0.1250091E+03  0.7818608E-02  0.1235055E+00
         -4   -1    0    0    0  501 -0.00000000000E+00  0.00000000000E+00  0.12958132772E+02  0.13020219082E+02  0.12700000000E+01 0. -1.
          4   -1    0    0  501    0  0.00000000000E+00 -0.00000000000E+00 -0.30071150087E+03  0.30071418266E+03  0.12700000000E+01 0. -1.
         25    2    1    2    0    0  0.00000000000E+00  0.00000000000E+00 -0.28775336810E+03  0.31373440174E+03  0.12500909562E+03 0.  0.
    9000005    1    3    3    0    0  0.90547843196E+01 -0.25152437117E+01  0.11187043198E+02  0.14644640846E+02  0.10000000000E+01 0.  0.
    9000005    1    3    3    0    0 -0.90547843196E+01  0.25152437117E+01 -0.29894041129E+03  0.29908976090E+03  0.10000000000E+01 0.  0.
<mgrwt>
<rscale>  0 0.12500910E+03</rscale>
<asrwt>0</asrwt>
<pdfrwt beam="2">  1        4 0.46268285E-01 0.12500910E+03</pdfrwt>
<pdfrwt beam="1">  1       -4 0.19985413E-02 0.12500910E+03</pdfrwt>
<totfact> 0.73892682E+03</totfact>
</mgrwt>
</event>
<event>
 5    1  0.3331626E-002  0.1250010E+03  0.7818608E-02  0.1235068E+00
          4   -1    0    0  501    0  0.00000000000E+00  0.00000000000E+00  0.15185348115E+03  0.15185879177E+03  0.12700000000E+01 0. -1.
         -4   -1    0    0    0  501 -0.00000000000E+00 -0.00000000000E+00 -0.25702794056E+02  0.25734150895E+02  0.12700000000E+01 0. -1.
         25    2    1    2    0    0  0.00000000000E+00  0.00000000000E+00  0.12615068709E+03  0.17759294266E+03  0.12500102971E+03 0.  0.
    9000005    1    3    3    0    0 -0.31957355755E+02 -0.39688384632E+02  0.11675592447E+02  0.52285370042E+02  0.10000000000E+01 0.  0.
    9000005    1    3    3    0    0  0.31957355755E+02  0.39688384632E+02  0.11447509465E+03  0.12530757262E+03  0.10000000000E+01 0.  0.
<mgrwt>
<rscale>  0 0.12500103E+03</rscale>
<asrwt>0</asrwt>
<pdfrwt beam="1">  1        4 0.23364894E-01 0.12500103E+03</pdfrwt>
<pdfrwt beam="2">  1       -4 0.39570966E-02 0.12500103E+03</pdfrwt>
<totfact> 0.94049912E+03</totfact>
</mgrwt>
</event>
<event>
 5    1  0.3331626E-002  0.1250048E+03  0.7818608E-02  0.1235062E+00
          4   -1    0    0  501    0  0.00000000000E+00  0.00000000000E+00  0.46723213757E+01  0.48418474819E+01  0.12700000000E+01 0.  1.
         -4   -1    0    0    0  501 -0.00000000000E+00 -0.00000000000E+00 -0.82103672061E+03  0.82103770285E+03  0.12700000000E+01 0.  1.
         25    2    1    2    0    0  0.00000000000E+00  0.00000000000E+00 -0.81636439924E+03  0.82587955033E+03  0.12500479714E+03 0.  0.
    9000005    1    3    3    0    0  0.19065353702E+01 -0.10203310925E+02 -0.81533413258E+03  0.81540081566E+03  0.10000000000E+01 0.  0.
    9000005    1    3    3    0    0 -0.19065353702E+01  0.10203310925E+02 -0.10302666630E+01  0.10478734673E+02  0.10000000000E+01 0.  0.
<mgrwt>
<rscale>  0 0.12500480E+03</rscale>
<asrwt>0</asrwt>
<pdfrwt beam="1">  1        4 0.73193535E-03 0.12500480E+03</pdfrwt>
<pdfrwt beam="2">  1       -4 0.12632635E+00 0.12500480E+03</pdfrwt>
<totfact> 0.37131312E+03</totfact>
</mgrwt>
</event>
<event>
 5    1  0.3331626E-002  0.1249992E+03  0.7818608E-02  0.1235071E+00
         -4   -1    0    0    0  501 -0.00000000000E+00  0.00000000000E+00  0.20913003198E+02  0.20951529843E+02  0.12700000000E+01 0. -1.
          4   -1    0    0  501    0  0.00000000000E+00 -0.00000000000E+00 -0.18657064318E+03  0.18657496562E+03  0.12700000000E+01 0. -1.
         25    2    1    2    0    0  0.00000000000E+00  0.00000000000E+00 -0.16565763998E+03  0.20752649547E+03  0.12499917054E+03 0.  0.
    9000005    1    3    3    0    0 -0.13923614940E+02  0.91519749869E+01 -0.18282294144E+03  0.18358336966E+03  0.10000000000E+01 0.  0.
    9000005    1    3    3    0    0  0.13923614940E+02 -0.91519749869E+01  0.17165301458E+02  0.23943125805E+02  0.10000000000E+01 0.  0.
<mgrwt>
<rscale>  0 0.12499917E+03</rscale>
<asrwt>0</asrwt>
<pdfrwt beam="2">  1        4 0.28706471E-01 0.12499917E+03</pdfrwt>
<pdfrwt beam="1">  1       -4 0.32206813E-02 0.12499917E+03</pdfrwt>
<totfact> 0.88883085E+03</totfact>
</mgrwt>
</event>
<event>
 5    1  0.3331626E-002  0.1250013E+03  0.7818608E-02  0.1235067E+00
          4   -1    0    0  501    0  0.00000000000E+00  0.00000000000E+00  0.10299125251E+02  0.10377132597E+02  0.12700000000E+01 0. -1.
         -4   -1    0    0    0  501 -0.00000000000E+00 -0.00000000000E+00 -0.37777766161E+03  0.37777979633E+03  0.12700000000E+01 0. -1.
         25    2    1    2    0    0  0.00000000000E+00  0.00000000000E+00 -0.36747853636E+03  0.38815692893E+03  0.12500130714E+03 0.  0.
    9000005    1    3    3    0    0 -0.13030620195E+02 -0.36916990710E+02 -0.32483656019E+02  0.50880734803E+02  0.10000000000E+01 0.  0.
    9000005    1    3    3    0    0  0.13030620195E+02  0.36916990710E+02 -0.33499488034E+03  0.33727619412E+03  0.10000000000E+01 0.  0.
<mgrwt>
<rscale>  0 0.12500131E+03</rscale>
<asrwt>0</asrwt>
<pdfrwt beam="1">  1        4 0.15906459E-02 0.12500131E+03</pdfrwt>
<pdfrwt beam="2">  1       -4 0.58125794E-01 0.12500131E+03</pdfrwt>
<totfact> 0.65719271E+03</totfact>
</mgrwt>
</event>
<event>
 5    1  0.3331626E-002  0.1249961E+03  0.7818608E-02  0.1235075E+00
          4   -1    0    0  501    0  0.00000000000E+00  0.00000000000E+00  0.12856158897E+03  0.12856786169E+03  0.12700000000E+01 0.  1.
         -4   -1    0    0    0  501 -0.00000000000E+00 -0.00000000000E+00 -0.30362086180E+02  0.30388635659E+02  0.12700000000E+01 0.  1.
         25    2    1    2    0    0  0.00000000000E+00  0.00000000000E+00  0.98199502790E+02  0.15895649734E+03  0.12499610274E+03 0.  0.
    9000005    1    3    3    0    0 -0.20838015195E+01  0.56270321456E+02  0.83560368254E+02  0.10076718934E+03  0.10000000000E+01 0.  0.
    9000005    1    3    3    0    0  0.20838015195E+01 -0.56270321456E+02  0.14639134536E+02  0.58189308000E+02  0.10000000000E+01 0.  0.
<mgrwt>
<rscale>  0 0.12499610E+03</rscale>
<asrwt>0</asrwt>
<pdfrwt beam="1">  1        4 0.19781231E-01 0.12499610E+03</pdfrwt>
<pdfrwt beam="2">  1       -4 0.46736150E-02 0.12499610E+03</pdfrwt>
<totfact> 0.97552888E+03</totfact>
</mgrwt>
</event>
<event>
 4    1  0.3331626E-002  0.1251083E+03  0.7818608E-02  0.1234900E+00
         -4   -1    0    0    0  501 -0.00000000000E+00  0.00000000000E+00  0.23944026140E+03  0.23944362944E+03  0.12700000000E+01 0. -1.
          4   -1    0    0  501    0  0.00000000000E+00 -0.00000000000E+00 -0.16314204293E+02  0.16363562012E+02  0.12700000000E+01 0. -1.
    9000005    1    1    2    0    0  0.83746940288E+01 -0.11626481786E+02  0.23604916615E+03  0.23648577001E+03  0.10000000000E+01 0.  0.
    9000005    1    1    2    0    0 -0.83746940288E+01  0.11626481786E+02 -0.12923109047E+02  0.19321421434E+02  0.10000000000E+01 0.  0.
<mgrwt>
<rscale>  0 0.12510828E+03</rscale>
<asrwt>0</asrwt>
<pdfrwt beam="2">  1        4 0.25139338E-02 0.12510828E+03</pdfrwt>
<pdfrwt beam="1">  1       -4 0.36841013E-01 0.12510828E+03</pdfrwt>
<totfact> 0.81301906E+03</totfact>
</mgrwt>
</event>
<event>
 5    1  0.3331626E-002  0.1250254E+03  0.7818608E-02  0.1235030E+00
          4   -1    0    0  501    0  0.00000000000E+00  0.00000000000E+00  0.36608902572E+03  0.36609122859E+03  0.12700000000E+01 0. -1.
         -4   -1    0    0    0  501 -0.00000000000E+00 -0.00000000000E+00 -0.10634539915E+02  0.10710104537E+02  0.12700000000E+01 0. -1.
         25    2    1    2    0    0  0.00000000000E+00  0.00000000000E+00  0.35545448580E+03  0.37680133313E+03  0.12502541010E+03 0.  0.
    9000005    1    3    3    0    0 -0.22299818081E+02 -0.15989421629E+02  0.34698077655E+03  0.34806551508E+03  0.10000000000E+01 0.  0.
    9000005    1    3    3    0    0  0.22299818081E+02  0.15989421629E+02  0.84737092507E+01  0.28735818049E+02  0.10000000000E+01 0.  0.
<mgrwt>
<rscale>  0 0.12502541E+03</rscale>
<asrwt>0</asrwt>
<pdfrwt beam="1">  1        4 0.56327370E-01 0.12502541E+03</pdfrwt>
<pdfrwt beam="2">  1       -4 0.16420652E-02 0.12502541E+03</pdfrwt>
<totfact> 0.66835800E+03</totfact>
</mgrwt>
</event>
<event>
 5    1  0.3331626E-002  0.1249990E+03  0.7818608E-02  0.1235071E+00
         -4   -1    0    0    0  501 -0.00000000000E+00  0.00000000000E+00  0.87522854814E+03  0.87522946956E+03  0.12700000000E+01 0.  1.
          4   -1    0    0  501    0  0.00000000000E+00 -0.00000000000E+00 -0.43717618482E+01  0.45524940041E+01  0.12700000000E+01 0.  1.
         25    2    1    2    0    0  0.00000000000E+00  0.00000000000E+00  0.87085678629E+03  0.87978196356E+03  0.12499904470E+03 0.  0.
    9000005    1    3    3    0    0 -0.26683970640E+02 -0.49147810661E+02  0.23915560638E+03  0.24560933542E+03  0.10000000000E+01 0.  0.
    9000005    1    3    3    0    0  0.26683970640E+02  0.49147810661E+02  0.63170117991E+03  0.63417262814E+03  0.10000000000E+01 0.  0.
<mgrwt>
<rscale>  0 0.12499904E+03</rscale>
<asrwt>0</asrwt>
<pdfrwt beam="2">  1        4 0.68655220E-03 0.12499904E+03</pdfrwt>
<pdfrwt beam="1">  1       -4 0.13466450E+00 0.12499904E+03</pdfrwt>
<totfact> 0.34939364E+03</totfact>
</mgrwt>
</event>
<event>
 5    1  0.3331626E-002  0.1249997E+03  0.7818608E-02  0.1235070E+00
         -4   -1    0    0    0  501 -0.00000000000E+00  0.00000000000E+00  0.23027787668E+03  0.23028137873E+03  0.12700000000E+01 0.  1.
          4   -1    0    0  501    0  0.00000000000E+00 -0.00000000000E+00 -0.16935705409E+02  0.16983256982E+02  0.12700000000E+01 0.  1.
         25    2    1    2    0    0  0.00000000000E+00  0.00000000000E+00  0.21334217127E+03  0.24726463571E+03  0.12499967212E+03 0.  0.
    9000005    1    3    3    0    0  0.48055394472E+02 -0.39886787286E+02  0.11107336089E+03  0.12743064089E+03  0.10000000000E+01 0.  0.
    9000005    1    3    3    0    0 -0.48055394472E+02  0.39886787286E+02  0.10226881039E+03  0.11983399482E+03  0.10000000000E+01 0.  0.
<mgrwt>
<rscale>  0 0.12499967E+03</rscale>
<asrwt>0</asrwt>
<pdfrwt beam="2">  1        4 0.26094206E-02 0.12499967E+03</pdfrwt>
<pdfrwt beam="1">  1       -4 0.35431290E-01 0.12499967E+03</pdfrwt>
<totfact> 0.82727793E+03</totfact>
</mgrwt>
</event>
<event>
 5    1  0.3331626E-002  0.1249918E+03  0.7818608E-02  0.1235082E+00
          4   -1    0    0  501    0  0.00000000000E+00  0.00000000000E+00  0.12001396674E+03  0.12002068618E+03  0.12700000000E+01 0.  1.
         -4   -1    0    0    0  501 -0.00000000000E+00 -0.00000000000E+00 -0.32524014879E+02  0.32548800958E+02  0.12700000000E+01 0.  1.
         25    2    1    2    0    0  0.00000000000E+00  0.00000000000E+00  0.87489951859E+02  0.15256948714E+03  0.12499182666E+03 0.  0.
    9000005    1    3    3    0    0  0.27896358390E+02  0.48237129405E+02  0.92264055050E+01  0.56490300257E+02  0.10000000000E+01 0.  0.
    9000005    1    3    3    0    0 -0.27896358390E+02 -0.48237129405E+02  0.78263546354E+02  0.96079186885E+02  0.10000000000E+01 0.  0.
<mgrwt>
<rscale>  0 0.12499183E+03</rscale>
<asrwt>0</asrwt>
<pdfrwt beam="1">  1        4 0.18466110E-01 0.12499183E+03</pdfrwt>
<pdfrwt beam="2">  1       -4 0.50061182E-02 0.12499183E+03</pdfrwt>
<totfact> 0.98812123E+03</totfact>
</mgrwt>
</event>
<event>
 5    1  0.3331626E-002  0.1250015E+03  0.7818608E-02  0.1235067E+00
         -4   -1    0    0    0  501 -0.00000000000E+00  0.00000000000E+00  0.96014727807E+02  0.96023126672E+02  0.12700000000E+01 0.  1.
          4   -1    0    0  501    0  0.00000000000E+00 -0.00000000000E+00 -0.40664719269E+02  0.40684546123E+02  0.12700000000E+01 0.  1.
         25    2    1    2    0    0  0.00000000000E+00  0.00000000000E+00  0.55350008538E+02  0.13670767280E+03  0.12500145742E+03 0.  0.
    9000005    1    3    3    0    0  0.18917014840E+02  0.59423490532E+02  0.23254659480E+02  0.66564133473E+02  0.10000000000E+01 0.  0.
    9000005    1    3    3    0    0 -0.18917014840E+02 -0.59423490532E+02  0.32095349057E+02  0.70143539322E+02  0.10000000000E+01 0.  0.
<mgrwt>
<rscale>  0 0.12500146E+03</rscale>
<asrwt>0</asrwt>
<pdfrwt beam="2">  1        4 0.62582819E-02 0.12500146E+03</pdfrwt>
<pdfrwt beam="1">  1       -4 0.14773668E-01 0.12500146E+03</pdfrwt>
<totfact> 0.10201866E+04</totfact>
</mgrwt>
</event>
<event>
 5    1  0.3331626E-002  0.1250015E+03  0.7818608E-02  0.1235067E+00
         -4   -1    0    0    0  501 -0.00000000000E+00  0.00000000000E+00  0.27672025101E+01  0.30447183338E+01  0.12700000000E+01 0. -1.
          4   -1    0    0  501    0  0.00000000000E+00 -0.00000000000E+00 -0.13439733152E+04  0.13439739152E+04  0.12700000000E+01 0. -1.
         25    2    1    2    0    0  0.00000000000E+00  0.00000000000E+00 -0.13412061127E+04  0.13470186336E+04  0.12500145000E+03 0.  0.
    9000005    1    3    3    0    0  0.46651201684E+02  0.37449764921E+01 -0.22434278093E+03  0.22917469935E+03  0.10000000000E+01 0.  0.
    9000005    1    3    3    0    0 -0.46651201684E+02 -0.37449764921E+01 -0.11168633318E+04  0.11178439342E+04  0.10000000000E+01 0.  0.
<mgrwt>
<rscale>  0 0.12500145E+03</rscale>
<asrwt>0</asrwt>
<pdfrwt beam="2">  1        4 0.20678602E+00 0.12500145E+03</pdfrwt>
<pdfrwt beam="1">  1       -4 0.44711806E-03 0.12500145E+03</pdfrwt>
<totfact> 0.21144622E+03</totfact>
</mgrwt>
</event>
<event>
 5    1  0.3331626E-002  0.1250002E+03  0.7818608E-02  0.1235069E+00
         -4   -1    0    0    0  501 -0.00000000000E+00  0.00000000000E+00  0.14559762648E+04  0.14559768187E+04  0.12700000000E+01 0. -1.
          4   -1    0    0  501    0  0.00000000000E+00 -0.00000000000E+00 -0.25320382069E+01  0.28326873250E+01  0.12700000000E+01 0. -1.
         25    2    1    2    0    0  0.00000000000E+00  0.00000000000E+00  0.14534442266E+04  0.14588095060E+04  0.12500022009E+03 0.  0.
    9000005    1    3    3    0    0 -0.58786423813E+02  0.47918221907E+01  0.96772721196E+03  0.96952347159E+03  0.10000000000E+01 0.  0.
    9000005    1    3    3    0    0  0.58786423813E+02 -0.47918221907E+01  0.48571701465E+03  0.48928603445E+03  0.10000000000E+01 0.  0.
<mgrwt>
<rscale>  0 0.12500022E+03</rscale>
<asrwt>0</asrwt>
<pdfrwt beam="2">  1        4 0.41271399E-03 0.12500022E+03</pdfrwt>
<pdfrwt beam="1">  1       -4 0.22401941E+00 0.12500022E+03</pdfrwt>
<totfact> 0.18752942E+03</totfact>
</mgrwt>
</event>
<event>
 5    1  0.3331626E-002  0.1249963E+03  0.7818608E-02  0.1235075E+00
          4   -1    0    0  501    0  0.00000000000E+00  0.00000000000E+00  0.40180623239E+03  0.40180823945E+03  0.12700000000E+01 0. -1.
         -4   -1    0    0    0  501 -0.00000000000E+00 -0.00000000000E+00 -0.96776381109E+01  0.97606136798E+01  0.12700000000E+01 0. -1.
         25    2    1    2    0    0  0.00000000000E+00  0.00000000000E+00  0.39212859428E+03  0.41156885313E+03  0.12499634560E+03 0.  0.
    9000005    1    3    3    0    0  0.32203650288E+02  0.15676651039E+02  0.27456680158E+02  0.45140910103E+02  0.10000000000E+01 0.  0.
    9000005    1    3    3    0    0 -0.32203650288E+02 -0.15676651039E+02  0.36467191412E+03  0.36642794302E+03  0.10000000000E+01 0.  0.
<mgrwt>
<rscale>  0 0.12499635E+03</rscale>
<asrwt>0</asrwt>
<pdfrwt beam="1">  1        4 0.61822875E-01 0.12499635E+03</pdfrwt>
<pdfrwt beam="2">  1       -4 0.14954047E-02 0.12499635E+03</pdfrwt>
<totfact> 0.63448074E+03</totfact>
</mgrwt>
</event>
<event>
 5    1  0.3331626E-002  0.1249904E+03  0.7818608E-02  0.1235084E+00
         -4   -1    0    0    0  501 -0.00000000000E+00  0.00000000000E+00  0.29401220999E+03  0.29401495289E+03  0.12700000000E+01 0. -1.
          4   -1    0    0  501    0  0.00000000000E+00 -0.00000000000E+00 -0.13250807460E+02  0.13311528776E+02  0.12700000000E+01 0. -1.
         25    2    1    2    0    0  0.00000000000E+00  0.00000000000E+00  0.28076140253E+03  0.30732648167E+03  0.12499040436E+03 0.  0.
    9000005    1    3    3    0    0 -0.38803517438E+02  0.47596688837E+02  0.16878943083E+03  0.17961634033E+03  0.10000000000E+01 0.  0.
    9000005    1    3    3    0    0  0.38803517438E+02 -0.47596688837E+02  0.11197197171E+03  0.12771014134E+03  0.10000000000E+01 0.  0.
<mgrwt>
<rscale>  0 0.12499040E+03</rscale>
<asrwt>0</asrwt>
<pdfrwt beam="2">  1        4 0.20434677E-02 0.12499040E+03</pdfrwt>
<pdfrwt beam="1">  1       -4 0.45237527E-01 0.12499040E+03</pdfrwt>
<totfact> 0.74704819E+03</totfact>
</mgrwt>
</event>
<event>
 5    1  0.3331626E-002  0.1249957E+03  0.7818608E-02  0.1235076E+00
         -4   -1    0    0    0  501 -0.00000000000E+00  0.00000000000E+00  0.30965664201E+02  0.30991696620E+02  0.12700000000E+01 0.  1.
          4   -1    0    0  501    0  0.00000000000E+00 -0.00000000000E+00 -0.12605697069E+03  0.12606336803E+03  0.12700000000E+01 0.  1.
         25    2    1    2    0    0  0.00000000000E+00  0.00000000000E+00 -0.95091306490E+02  0.15705506465E+03  0.12499574698E+03 0.  0.
    9000005    1    3    3    0    0  0.21104792223E+02 -0.56588876276E+02 -0.67699230386E+02  0.90729813004E+02  0.10000000000E+01 0.  0.
    9000005    1    3    3    0    0 -0.21104792223E+02  0.56588876276E+02 -0.27392076104E+02  0.66325251648E+02  0.10000000000E+01 0.  0.
<mgrwt>
<rscale>  0 0.12499575E+03</rscale>
<asrwt>0</asrwt>
<pdfrwt beam="2">  1        4 0.19395875E-01 0.12499575E+03</pdfrwt>
<pdfrwt beam="1">  1       -4 0.47664430E-02 0.12499575E+03</pdfrwt>
<totfact> 0.97922932E+03</totfact>
</mgrwt>
</event>
<event>
 5    1  0.3331626E-002  0.1250006E+03  0.7818608E-02  0.1235068E+00
         -4   -1    0    0    0  501 -0.00000000000E+00  0.00000000000E+00  0.84623568499E+02  0.84633097814E+02  0.12700000000E+01 0.  1.
          4   -1    0    0  501    0  0.00000000000E+00 -0.00000000000E+00 -0.46139899168E+02  0.46157374223E+02  0.12700000000E+01 0.  1.
         25    2    1    2    0    0  0.00000000000E+00  0.00000000000E+00  0.38483669332E+02  0.13079047204E+03  0.12500061908E+03 0.  0.
    9000005    1    3    3    0    0 -0.46128116478E+02  0.30560147654E+02 -0.11147604738E+02  0.56453475055E+02  0.10000000000E+01 0.  0.
    9000005    1    3    3    0    0  0.46128116478E+02 -0.30560147654E+02  0.49631274070E+02  0.74336996981E+02  0.10000000000E+01 0.  0.
<mgrwt>
<rscale>  0 0.12500062E+03</rscale>
<asrwt>0</asrwt>
<pdfrwt beam="2">  1        4 0.71005234E-02 0.12500062E+03</pdfrwt>
<pdfrwt beam="1">  1       -4 0.13021088E-01 0.12500062E+03</pdfrwt>
<totfact> 0.10327439E+04</totfact>
</mgrwt>
</event>
<event>
 5    1  0.3331626E-002  0.1249992E+03  0.7818608E-02  0.1235070E+00
         -4   -1    0    0    0  501 -0.00000000000E+00  0.00000000000E+00  0.50843682668E+03  0.50843841282E+03  0.12700000000E+01 0. -1.
          4   -1    0    0  501    0  0.00000000000E+00 -0.00000000000E+00 -0.76286755118E+01  0.77336660171E+01  0.12700000000E+01 0. -1.
         25    2    1    2    0    0  0.00000000000E+00  0.00000000000E+00  0.50080815117E+03  0.51617207883E+03  0.12499924275E+03 0.  0.
    9000005    1    3    3    0    0 -0.35185315601E+02  0.50974865832E+02  0.28464557888E+03  0.29130834001E+03  0.10000000000E+01 0.  0.
    9000005    1    3    3    0    0  0.35185315601E+02 -0.50974865832E+02  0.21616257229E+03  0.22486373883E+03  0.10000000000E+01 0.  0.
<mgrwt>
<rscale>  0 0.12499924E+03</rscale>
<asrwt>0</asrwt>
<pdfrwt beam="2">  1        4 0.11818409E-02 0.12499924E+03</pdfrwt>
<pdfrwt beam="1">  1       -4 0.78229231E-01 0.12499924E+03</pdfrwt>
<totfact> 0.54632004E+03</totfact>
</mgrwt>
</event>
<event>
 5    1  0.3331626E-002  0.1249958E+03  0.7818608E-02  0.1235076E+00
         -4   -1    0    0    0  501 -0.00000000000E+00  0.00000000000E+00  0.10252964091E+03  0.10253750614E+03  0.12700000000E+01 0. -1.
          4   -1    0    0  501    0  0.00000000000E+00 -0.00000000000E+00 -0.38076257811E+02  0.38097431789E+02  0.12700000000E+01 0. -1.
         25    2    1    2    0    0  0.00000000000E+00  0.00000000000E+00  0.64453383101E+02  0.14063493793E+03  0.12499578862E+03 0.  0.
    9000005    1    3    3    0    0 -0.48944667854E+02  0.30529101841E+02  0.59261842375E+02  0.82707753761E+02  0.10000000000E+01 0.  0.
    9000005    1    3    3    0    0  0.48944667854E+02 -0.30529101841E+02  0.51915407263E+01  0.57927184168E+02  0.10000000000E+01 0.  0.
<mgrwt>
<rscale>  0 0.12499579E+03</rscale>
<asrwt>0</asrwt>
<pdfrwt beam="2">  1        4 0.58601196E-02 0.12499579E+03</pdfrwt>
<pdfrwt beam="1">  1       -4 0.15776025E-01 0.12499579E+03</pdfrwt>
<totfact> 0.10121404E+04</totfact>
</mgrwt>
</event>
<event>
 5    1  0.3331626E-002  0.1250012E+03  0.7818608E-02  0.1235067E+00
          4   -1    0    0  501    0  0.00000000000E+00  0.00000000000E+00  0.14336980798E+02  0.14393120523E+02  0.12700000000E+01 0. -1.
         -4   -1    0    0    0  501 -0.00000000000E+00 -0.00000000000E+00 -0.27187503580E+03  0.27187800203E+03  0.12700000000E+01 0. -1.
         25    2    1    2    0    0  0.00000000000E+00  0.00000000000E+00 -0.25753805500E+03  0.28627112256E+03  0.12500122334E+03 0.  0.
    9000005    1    3    3    0    0 -0.90574324190E+01 -0.54226788376E+02 -0.19681162145E+03  0.20434871175E+03  0.10000000000E+01 0.  0.
    9000005    1    3    3    0    0  0.90574324190E+01  0.54226788376E+02 -0.60726433553E+02  0.81922410802E+02  0.10000000000E+01 0.  0.
<mgrwt>
<rscale>  0 0.12500122E+03</rscale>
<asrwt>0</asrwt>
<pdfrwt beam="1">  1        4 0.22102362E-02 0.12500122E+03</pdfrwt>
<pdfrwt beam="2">  1       -4 0.41831471E-01 0.12500122E+03</pdfrwt>
<totfact> 0.77351780E+03</totfact>
</mgrwt>
</event>
<event>
 5    1  0.3331626E-002  0.1249998E+03  0.7818608E-02  0.1235070E+00
          4   -1    0    0  501    0  0.00000000000E+00  0.00000000000E+00  0.28391717257E+01  0.31102726710E+01  0.12700000000E+01 0.  1.
         -4   -1    0    0    0  501 -0.00000000000E+00 -0.00000000000E+00 -0.13128718850E+04  0.13128724993E+04  0.12700000000E+01 0.  1.
         25    2    1    2    0    0  0.00000000000E+00  0.00000000000E+00 -0.13100327133E+04  0.13159827720E+04  0.12499978472E+03 0.  0.
    9000005    1    3    3    0    0 -0.47163032411E+02 -0.39242667267E+02 -0.77998277703E+03  0.78239278564E+03  0.10000000000E+01 0.  0.
    9000005    1    3    3    0    0  0.47163032411E+02  0.39242667267E+02 -0.53004993629E+03  0.53358998634E+03  0.10000000000E+01 0.  0.
<mgrwt>
<rscale>  0 0.12499978E+03</rscale>
<asrwt>0</asrwt>
<pdfrwt beam="1">  1        4 0.45769787E-03 0.12499978E+03</pdfrwt>
<pdfrwt beam="2">  1       -4 0.20200073E+00 0.12499978E+03</pdfrwt>
<totfact> 0.21854584E+03</totfact>
</mgrwt>
</event>
<event>
 5    1  0.3331626E-002  0.1249991E+03  0.7818608E-02  0.1235071E+00
         -4   -1    0    0    0  501 -0.00000000000E+00  0.00000000000E+00  0.37888312594E+02  0.37909591547E+02  0.12700000000E+01 0.  1.
          4   -1    0    0  501    0  0.00000000000E+00 -0.00000000000E+00 -0.10304351005E+03  0.10305133606E+03  0.12700000000E+01 0.  1.
         25    2    1    2    0    0  0.00000000000E+00  0.00000000000E+00 -0.65155197455E+02  0.14096092760E+03  0.12499913342E+03 0.  0.
    9000005    1    3    3    0    0 -0.27030087836E+02 -0.56126470611E+02 -0.38146802163E+02  0.73054670398E+02  0.10000000000E+01 0.  0.
    9000005    1    3    3    0    0  0.27030087836E+02  0.56126470611E+02 -0.27008395292E+02  0.67906257207E+02  0.10000000000E+01 0.  0.
<mgrwt>
<rscale>  0 0.12499913E+03</rscale>
<asrwt>0</asrwt>
<pdfrwt beam="2">  1        4 0.15855086E-01 0.12499913E+03</pdfrwt>
<pdfrwt beam="1">  1       -4 0.58312101E-02 0.12499913E+03</pdfrwt>
<totfact> 0.10113906E+04</totfact>
</mgrwt>
</event>
<event>
 5    1  0.3331626E-002  0.1249873E+03  0.7818608E-02  0.1235089E+00
          4   -1    0    0  501    0  0.00000000000E+00  0.00000000000E+00  0.69919277957E+02  0.69930811020E+02  0.12700000000E+01 0. -1.
         -4   -1    0    0    0  501 -0.00000000000E+00 -0.00000000000E+00 -0.55833277572E+02  0.55847719599E+02  0.12700000000E+01 0. -1.
         25    2    1    2    0    0  0.00000000000E+00  0.00000000000E+00  0.14086000384E+02  0.12577853062E+03  0.12498729279E+03 0.  0.
    9000005    1    3    3    0    0 -0.55704220351E+02  0.24797809170E+02  0.20788323760E+02  0.64428610953E+02  0.10000000000E+01 0.  0.
    9000005    1    3    3    0    0  0.55704220351E+02 -0.24797809170E+02 -0.67023233752E+01  0.61349919667E+02  0.10000000000E+01 0.  0.
<mgrwt>
<rscale>  0 0.12498729E+03</rscale>
<asrwt>0</asrwt>
<pdfrwt beam="1">  1        4 0.10758810E-01 0.12498729E+03</pdfrwt>
<pdfrwt beam="2">  1       -4 0.85917331E-02 0.12498729E+03</pdfrwt>
<totfact> 0.10438810E+04</totfact>
</mgrwt>
</event>
<event>
 5    1  0.3331626E-002  0.1250011E+03  0.7818608E-02  0.1235068E+00
          4   -1    0    0  501    0  0.00000000000E+00  0.00000000000E+00  0.37768212647E+02  0.37789559227E+02  0.12700000000E+01 0.  1.
         -4   -1    0    0    0  501 -0.00000000000E+00 -0.00000000000E+00 -0.10337432167E+03  0.10338212264E+03  0.12700000000E+01 0.  1.
         25    2    1    2    0    0  0.00000000000E+00  0.00000000000E+00 -0.65606109025E+02  0.14117168187E+03  0.12500112887E+03 0.  0.
    9000005    1    3    3    0    0  0.10026938509E+02 -0.18322488983E+02 -0.99321183675E+02  0.10149852524E+03  0.10000000000E+01 0.  0.
    9000005    1    3    3    0    0 -0.10026938509E+02  0.18322488983E+02  0.33715074650E+02  0.39673156631E+02  0.10000000000E+01 0.  0.
<mgrwt>
<rscale>  0 0.12500113E+03</rscale>
<asrwt>0</asrwt>
<pdfrwt beam="1">  1        4 0.58127364E-02 0.12500113E+03</pdfrwt>
<pdfrwt beam="2">  1       -4 0.15905984E-01 0.12500113E+03</pdfrwt>
<totfact> 0.10109103E+04</totfact>
</mgrwt>
</event>
<event>
 4    1  0.3331626E-002  0.1250726E+03  0.7818608E-02  0.1234956E+00
         -4   -1    0    0    0  501 -0.00000000000E+00  0.00000000000E+00  0.77617457286E+01  0.78649600607E+01  0.12700000000E+01 0. -1.
          4   -1    0    0  501    0  0.00000000000E+00 -0.00000000000E+00 -0.50042211181E+03  0.50042372335E+03  0.12700000000E+01 0. -1.
    9000005    1    1    2    0    0 -0.25026780535E+02  0.19000066542E+02 -0.46602586597E+03  0.46708505652E+03  0.10000000000E+01 0.  0.
    9000005    1    1    2    0    0  0.25026780535E+02 -0.19000066542E+02 -0.26634500117E+02  0.41203626891E+02  0.10000000000E+01 0.  0.
<mgrwt>
<rscale>  0 0.12507258E+03</rscale>
<asrwt>0</asrwt>
<pdfrwt beam="2">  1        4 0.76996056E-01 0.12507258E+03</pdfrwt>
<pdfrwt beam="1">  1       -4 0.12021786E-02 0.12507258E+03</pdfrwt>
<totfact> 0.55138948E+03</totfact>
</mgrwt>
</event>
<event>
 5    1  0.3331626E-002  0.1250021E+03  0.7818608E-02  0.1235066E+00
          4   -1    0    0  501    0  0.00000000000E+00  0.00000000000E+00  0.11724430814E+03  0.11725118631E+03  0.12700000000E+01 0.  1.
         -4   -1    0    0    0  501 -0.00000000000E+00 -0.00000000000E+00 -0.33298364270E+02  0.33322574376E+02  0.12700000000E+01 0.  1.
         25    2    1    2    0    0  0.00000000000E+00  0.00000000000E+00  0.83945943871E+02  0.15057376069E+03  0.12500214364E+03 0.  0.
    9000005    1    3    3    0    0 -0.29238782512E+02 -0.52080614844E+02  0.64121565729E+02  0.87634879111E+02  0.10000000000E+01 0.  0.
    9000005    1    3    3    0    0  0.29238782512E+02  0.52080614844E+02  0.19824378142E+02  0.62938881576E+02  0.10000000000E+01 0.  0.
<mgrwt>
<rscale>  0 0.12500214E+03</rscale>
<asrwt>0</asrwt>
<pdfrwt beam="1">  1        4 0.18039977E-01 0.12500214E+03</pdfrwt>
<pdfrwt beam="2">  1       -4 0.51252167E-02 0.12500214E+03</pdfrwt>
<totfact> 0.99184666E+03</totfact>
</mgrwt>
</event>
<event>
 5    1  0.3331626E-002  0.1250102E+03  0.7818608E-02  0.1235053E+00
          4   -1    0    0  501    0  0.00000000000E+00  0.00000000000E+00  0.21886013816E+02  0.21922830582E+02  0.12700000000E+01 0. -1.
         -4   -1    0    0    0  501 -0.00000000000E+00 -0.00000000000E+00 -0.17832166962E+03  0.17832619201E+03  0.12700000000E+01 0. -1.
         25    2    1    2    0    0  0.00000000000E+00  0.00000000000E+00 -0.15643565580E+03  0.20024902259E+03  0.12501022615E+03 0.  0.
    9000005    1    3    3    0    0 -0.38841788571E+02  0.28873638904E+01  0.74808560788E-01  0.38961866048E+02  0.10000000000E+01 0.  0.
    9000005    1    3    3    0    0  0.38841788571E+02 -0.28873638904E+01 -0.15651046437E+03  0.16128715654E+03  0.10000000000E+01 0.  0.
<mgrwt>
<rscale>  0 0.12501023E+03</rscale>
<asrwt>0</asrwt>
<pdfrwt beam="1">  1        4 0.33702591E-02 0.12501023E+03</pdfrwt>
<pdfrwt beam="2">  1       -4 0.27437282E-01 0.12501023E+03</pdfrwt>
<totfact> 0.90072911E+03</totfact>
</mgrwt>
</event>
<event>
 5    1  0.3331626E-002  0.1250077E+03  0.7818608E-02  0.1235057E+00
          4   -1    0    0  501    0  0.00000000000E+00  0.00000000000E+00  0.73172731084E+02  0.73183751437E+02  0.12700000000E+01 0.  1.
         -4   -1    0    0    0  501 -0.00000000000E+00 -0.00000000000E+00 -0.53367976366E+02  0.53383085349E+02  0.12700000000E+01 0.  1.
         25    2    1    2    0    0  0.00000000000E+00  0.00000000000E+00  0.19804754719E+02  0.12656683679E+03  0.12500774322E+03 0.  0.
    9000005    1    3    3    0    0  0.71885314523E+01  0.50080574884E+02  0.47047751302E+02  0.69095802099E+02  0.10000000000E+01 0.  0.
    9000005    1    3    3    0    0 -0.71885314523E+01 -0.50080574884E+02 -0.27242996583E+02  0.57471034687E+02  0.10000000000E+01 0.  0.
<mgrwt>
<rscale>  0 0.12500774E+03</rscale>
<asrwt>0</asrwt>
<pdfrwt beam="1">  1        4 0.11259353E-01 0.12500774E+03</pdfrwt>
<pdfrwt beam="2">  1       -4 0.82124678E-02 0.12500774E+03</pdfrwt>
<totfact> 0.10416750E+04</totfact>
</mgrwt>
</event>
<event>
 5    1  0.3331626E-002  0.1249995E+03  0.7818608E-02  0.1235070E+00
         -4   -1    0    0    0  501 -0.00000000000E+00  0.00000000000E+00  0.17584284788E+02  0.17630087109E+02  0.12700000000E+01 0.  1.
          4   -1    0    0  501    0  0.00000000000E+00 -0.00000000000E+00 -0.22180591318E+03  0.22180954899E+03  0.12700000000E+01 0.  1.
         25    2    1    2    0    0  0.00000000000E+00  0.00000000000E+00 -0.20422162840E+03  0.23943963610E+03  0.12499946332E+03 0.  0.
    9000005    1    3    3    0    0 -0.51249638176E+02  0.10449513608E+02 -0.36603805411E+02  0.63847915537E+02  0.10000000000E+01 0.  0.
    9000005    1    3    3    0    0  0.51249638176E+02 -0.10449513608E+02 -0.16761782299E+03  0.17559172056E+03  0.10000000000E+01 0.  0.
<mgrwt>
<rscale>  0 0.12499946E+03</rscale>
<asrwt>0</asrwt>
<pdfrwt beam="2">  1        4 0.34127788E-01 0.12499946E+03</pdfrwt>
<pdfrwt beam="1">  1       -4 0.27090777E-02 0.12499946E+03</pdfrwt>
<totfact> 0.83881899E+03</totfact>
</mgrwt>
</event>
<event>
 5    1  0.3331626E-002  0.1249991E+03  0.7818608E-02  0.1235071E+00
         -4   -1    0    0    0  501 -0.00000000000E+00  0.00000000000E+00  0.26589960812E+02  0.26620272651E+02  0.12700000000E+01 0. -1.
          4   -1    0    0  501    0  0.00000000000E+00 -0.00000000000E+00 -0.14678818635E+03  0.14679368021E+03  0.12700000000E+01 0. -1.
         25    2    1    2    0    0  0.00000000000E+00  0.00000000000E+00 -0.12019822553E+03  0.17341395286E+03  0.12499914250E+03 0.  0.
    9000005    1    3    3    0    0 -0.33865871072E+02  0.11705885552E+02 -0.13112767125E+03  0.13593892433E+03  0.10000000000E+01 0.  0.
    9000005    1    3    3    0    0  0.33865871072E+02 -0.11705885552E+02  0.10929445718E+02  0.37475028536E+02  0.10000000000E+01 0.  0.
<mgrwt>
<rscale>  0 0.12499914E+03</rscale>
<asrwt>0</asrwt>
<pdfrwt beam="2">  1        4 0.22585552E-01 0.12499914E+03</pdfrwt>
<pdfrwt beam="1">  1       -4 0.40935176E-02 0.12499914E+03</pdfrwt>
<totfact> 0.94817951E+03</totfact>
</mgrwt>
</event>
<event>
 5    1  0.3331626E-002  0.1249990E+03  0.7818608E-02  0.1235071E+00
          4   -1    0    0  501    0  0.00000000000E+00  0.00000000000E+00  0.87404673609E+01  0.88322516770E+01  0.12700000000E+01 0.  1.
         -4   -1    0    0    0  501 -0.00000000000E+00 -0.00000000000E+00 -0.44448145119E+03  0.44448326555E+03  0.12700000000E+01 0.  1.
         25    2    1    2    0    0  0.00000000000E+00  0.00000000000E+00 -0.43574098383E+03  0.45331551723E+03  0.12499901267E+03 0.  0.
    9000005    1    3    3    0    0  0.56715031726E+02 -0.24973459939E+02 -0.24709064450E+03  0.25474507870E+03  0.10000000000E+01 0.  0.
    9000005    1    3    3    0    0 -0.56715031726E+02  0.24973459939E+02 -0.18865033934E+03  0.19857043853E+03  0.10000000000E+01 0.  0.
<mgrwt>
<rscale>  0 0.12499901E+03</rscale>
<asrwt>0</asrwt>
<pdfrwt beam="1">  1        4 0.13518875E-02 0.12499901E+03</pdfrwt>
<pdfrwt beam="2">  1       -4 0.68388944E-01 0.12499901E+03</pdfrwt>
<totfact> 0.59678949E+03</totfact>
</mgrwt>
</event>
<event>
 5    1  0.3331626E-002  0.1250000E+03  0.7818608E-02  0.1235069E+00
          4   -1    0    0  501    0  0.00000000000E+00  0.00000000000E+00  0.13577066245E+03  0.13577660211E+03  0.12700000000E+01 0. -1.
         -4   -1    0    0    0  501 -0.00000000000E+00 -0.00000000000E+00 -0.28750373471E+02  0.28778409872E+02  0.12700000000E+01 0. -1.
         25    2    1    2    0    0  0.00000000000E+00  0.00000000000E+00  0.10702028898E+03  0.16455501198E+03  0.12500003887E+03 0.  0.
    9000005    1    3    3    0    0  0.19470121401E+02 -0.45987140431E+01  0.13144758366E+03  0.13296503693E+03  0.10000000000E+01 0.  0.
    9000005    1    3    3    0    0 -0.19470121401E+02  0.45987140431E+01 -0.24427294680E+02  0.31589975049E+02  0.10000000000E+01 0.  0.
<mgrwt>
<rscale>  0 0.12500004E+03</rscale>
<asrwt>0</asrwt>
<pdfrwt beam="1">  1        4 0.20890408E-01 0.12500004E+03</pdfrwt>
<pdfrwt beam="2">  1       -4 0.44257480E-02 0.12500004E+03</pdfrwt>
<totfact> 0.96471648E+03</totfact>
</mgrwt>
</event>
<event>
 5    1  0.3331626E-002  0.1249969E+03  0.7818608E-02  0.1235074E+00
         -4   -1    0    0    0  501 -0.00000000000E+00  0.00000000000E+00  0.29278597508E+02  0.29306128574E+02  0.12700000000E+01 0. -1.
          4   -1    0    0  501    0  0.00000000000E+00 -0.00000000000E+00 -0.13331671612E+03  0.13332276511E+03  0.12700000000E+01 0. -1.
         25    2    1    2    0    0  0.00000000000E+00  0.00000000000E+00 -0.10403811861E+03  0.16262889369E+03  0.12499690771E+03 0.  0.
    9000005    1    3    3    0    0 -0.14749727083E+02  0.14378290703E+02  0.24741108863E+02  0.32208883252E+02  0.10000000000E+01 0.  0.
    9000005    1    3    3    0    0  0.14749727083E+02 -0.14378290703E+02 -0.12877922748E+03  0.13042001044E+03  0.10000000000E+01 0.  0.
<mgrwt>
<rscale>  0 0.12499691E+03</rscale>
<asrwt>0</asrwt>
<pdfrwt beam="2">  1        4 0.20512847E-01 0.12499691E+03</pdfrwt>
<pdfrwt beam="1">  1       -4 0.45069828E-02 0.12499691E+03</pdfrwt>
<totfact> 0.96845065E+03</totfact>
</mgrwt>
</event>
<event>
 5    1  0.3331626E-002  0.1250020E+03  0.7818608E-02  0.1235066E+00
         -4   -1    0    0    0  501 -0.00000000000E+00  0.00000000000E+00  0.19238289224E+03  0.19238708410E+03  0.12700000000E+01 0.  1.
          4   -1    0    0  501    0  0.00000000000E+00 -0.00000000000E+00 -0.20280936667E+02  0.20320661704E+02  0.12700000000E+01 0.  1.
         25    2    1    2    0    0  0.00000000000E+00  0.00000000000E+00  0.17210195557E+03  0.21270774580E+03  0.12500200803E+03 0.  0.
    9000005    1    3    3    0    0 -0.32415935142E+02 -0.43471521186E+02  0.13890610233E+03  0.14911898360E+03  0.10000000000E+01 0.  0.
    9000005    1    3    3    0    0  0.32415935142E+02  0.43471521186E+02  0.33195853241E+02  0.63588762197E+02  0.10000000000E+01 0.  0.
<mgrwt>
<rscale>  0 0.12500201E+03</rscale>
<asrwt>0</asrwt>
<pdfrwt beam="2">  1        4 0.31235221E-02 0.12500201E+03</pdfrwt>
<pdfrwt beam="1">  1       -4 0.29600748E-01 0.12500201E+03</pdfrwt>
<totfact> 0.88031618E+03</totfact>
</mgrwt>
</event>
<event>
 5    1  0.3331626E-002  0.1250128E+03  0.7818608E-02  0.1235049E+00
          4   -1    0    0  501    0  0.00000000000E+00  0.00000000000E+00  0.26188970457E+02  0.26219745872E+02  0.12700000000E+01 0.  1.
         -4   -1    0    0    0  501 -0.00000000000E+00 -0.00000000000E+00 -0.14906565516E+03  0.14907106509E+03  0.12700000000E+01 0.  1.
         25    2    1    2    0    0  0.00000000000E+00  0.00000000000E+00 -0.12287668470E+03  0.17529081097E+03  0.12501275441E+03 0.  0.
    9000005    1    3    3    0    0 -0.11456545662E+02 -0.41394088435E+02 -0.12510000496E+03  0.13227144151E+03  0.10000000000E+01 0.  0.
    9000005    1    3    3    0    0  0.11456545662E+02  0.41394088435E+02  0.22233202609E+01  0.43019369461E+02  0.10000000000E+01 0.  0.
<mgrwt>
<rscale>  0 0.12501275E+03</rscale>
<asrwt>0</asrwt>
<pdfrwt beam="1">  1        4 0.40318559E-02 0.12501275E+03</pdfrwt>
<pdfrwt beam="2">  1       -4 0.22935961E-01 0.12501275E+03</pdfrwt>
<totfact> 0.94444582E+03</totfact>
</mgrwt>
</event>
<event>
 5    1  0.3331626E-002  0.1249945E+03  0.7818608E-02  0.1235078E+00
         -4   -1    0    0    0  501 -0.00000000000E+00  0.00000000000E+00  0.32314515427E+02  0.32339462075E+02  0.12700000000E+01 0.  1.
          4   -1    0    0  501    0  0.00000000000E+00 -0.00000000000E+00 -0.12079668458E+03  0.12080336049E+03  0.12700000000E+01 0.  1.
         25    2    1    2    0    0  0.00000000000E+00  0.00000000000E+00 -0.88482169153E+02  0.15314282256E+03  0.12499451926E+03 0.  0.
    9000005    1    3    3    0    0 -0.27854639540E+02  0.10793579799E+01  0.24280821340E+02  0.36981133602E+02  0.10000000000E+01 0.  0.
    9000005    1    3    3    0    0  0.27854639540E+02 -0.10793579799E+01 -0.11276299049E+03  0.11616168896E+03  0.10000000000E+01 0.  0.
<mgrwt>
<rscale>  0 0.12499452E+03</rscale>
<asrwt>0</asrwt>
<pdfrwt beam="2">  1        4 0.18586538E-01 0.12499452E+03</pdfrwt>
<pdfrwt beam="1">  1       -4 0.49738965E-02 0.12499452E+03</pdfrwt>
<totfact> 0.98693041E+03</totfact>
</mgrwt>
</event>
<event>
 5    1  0.3331626E-002  0.1250041E+03  0.7818608E-02  0.1235063E+00
          4   -1    0    0  501    0  0.00000000000E+00  0.00000000000E+00  0.61413311711E+03  0.61413443026E+03  0.12700000000E+01 0. -1.
         -4   -1    0    0    0  501 -0.00000000000E+00 -0.00000000000E+00 -0.62962906231E+01  0.64230970420E+01  0.12700000000E+01 0. -1.
         25    2    1    2    0    0  0.00000000000E+00  0.00000000000E+00  0.60783682648E+03  0.62055752730E+03  0.12500414816E+03 0.  0.
    9000005    1    3    3    0    0  0.43503426540E+02  0.41636639043E+02  0.38689070288E+03  0.39155021876E+03  0.10000000000E+01 0.  0.
    9000005    1    3    3    0    0 -0.43503426540E+02 -0.41636639043E+02  0.22094612360E+03  0.22900730854E+03  0.10000000000E+01 0.  0.
<mgrwt>
<rscale>  0 0.12500415E+03</rscale>
<asrwt>0</asrwt>
<pdfrwt beam="1">  1        4 0.94491864E-01 0.12500415E+03</pdfrwt>
<pdfrwt beam="2">  1       -4 0.97851555E-03 0.12500415E+03</pdfrwt>
<totfact> 0.47590827E+03</totfact>
</mgrwt>
</event>
<event>
 5    1  0.3331626E-002  0.1249991E+03  0.7818608E-02  0.1235071E+00
          4   -1    0    0  501    0  0.00000000000E+00  0.00000000000E+00  0.39752370619E+01  0.41731774104E+01  0.12700000000E+01 0.  1.
         -4   -1    0    0    0  501 -0.00000000000E+00 -0.00000000000E+00 -0.95856301649E+03  0.95856385780E+03  0.12700000000E+01 0.  1.
         25    2    1    2    0    0  0.00000000000E+00  0.00000000000E+00 -0.95458777943E+03  0.96273703521E+03  0.12499908133E+03 0.  0.
    9000005    1    3    3    0    0  0.25126476289E+02 -0.56769179177E+02 -0.53235777278E+03  0.53596630281E+03  0.10000000000E+01 0.  0.
    9000005    1    3    3    0    0 -0.25126476289E+02  0.56769179177E+02 -0.42223000665E+03  0.42677073239E+03  0.10000000000E+01 0.  0.
<mgrwt>
<rscale>  0 0.12499908E+03</rscale>
<asrwt>0</asrwt>
<pdfrwt beam="1">  1        4 0.62686659E-03 0.12499908E+03</pdfrwt>
<pdfrwt beam="2">  1       -4 0.14748635E+00 0.12499908E+03</pdfrwt>
<totfact> 0.31868706E+03</totfact>
</mgrwt>
</event>
<event>
 5    1  0.3331626E-002  0.1249944E+03  0.7818608E-02  0.1235078E+00
          4   -1    0    0  501    0  0.00000000000E+00  0.00000000000E+00  0.28313390602E+02  0.28341859278E+02  0.12700000000E+01 0.  1.
         -4   -1    0    0    0  501 -0.00000000000E+00 -0.00000000000E+00 -0.13785168836E+03  0.13785753836E+03  0.12700000000E+01 0.  1.
         25    2    1    2    0    0  0.00000000000E+00  0.00000000000E+00 -0.10953829775E+03  0.16619939764E+03  0.12499440428E+03 0.  0.
    9000005    1    3    3    0    0 -0.61930356356E+02  0.83340489192E+01 -0.54405334929E+02  0.82859917201E+02  0.10000000000E+01 0.  0.
    9000005    1    3    3    0    0  0.61930356356E+02 -0.83340489192E+01 -0.55132962825E+02  0.83339480437E+02  0.10000000000E+01 0.  0.
<mgrwt>
<rscale>  0 0.12499440E+03</rscale>
<asrwt>0</asrwt>
<pdfrwt beam="1">  1        4 0.43585462E-02 0.12499440E+03</pdfrwt>
<pdfrwt beam="2">  1       -4 0.21210591E-01 0.12499440E+03</pdfrwt>
<totfact> 0.96172814E+03</totfact>
</mgrwt>
</event>
<event>
 5    1  0.3331626E-002  0.1250013E+03  0.7818608E-02  0.1235067E+00
          4   -1    0    0  501    0  0.00000000000E+00  0.00000000000E+00  0.11437115947E+02  0.11507411576E+02  0.12700000000E+01 0.  1.
         -4   -1    0    0    0  501 -0.00000000000E+00 -0.00000000000E+00 -0.34043068303E+03  0.34043305193E+03  0.12700000000E+01 0.  1.
         25    2    1    2    0    0  0.00000000000E+00  0.00000000000E+00 -0.32899356708E+03  0.35194046350E+03  0.12500129068E+03 0.  0.
    9000005    1    3    3    0    0 -0.28036404740E+01 -0.61552775195E+02 -0.13513910725E+03  0.14852670750E+03  0.10000000000E+01 0.  0.
    9000005    1    3    3    0    0  0.28036404740E+01  0.61552775195E+02 -0.19385445983E+03  0.20341375600E+03  0.10000000000E+01 0.  0.
<mgrwt>
<rscale>  0 0.12500129E+03</rscale>
<asrwt>0</asrwt>
<pdfrwt beam="1">  1        4 0.17651461E-02 0.12500129E+03</pdfrwt>
<pdfrwt beam="2">  1       -4 0.52379533E-01 0.12500129E+03</pdfrwt>
<totfact> 0.69509626E+03</totfact>
</mgrwt>
</event>
<event>
 5    1  0.3331626E-002  0.1250020E+03  0.7818608E-02  0.1235066E+00
         -4   -1    0    0    0  501 -0.00000000000E+00  0.00000000000E+00  0.48355348856E+03  0.48355515632E+03  0.12700000000E+01 0.  1.
          4   -1    0    0  501    0  0.00000000000E+00 -0.00000000000E+00 -0.80268718432E+01  0.81267196080E+01  0.12700000000E+01 0.  1.
         25    2    1    2    0    0  0.00000000000E+00  0.00000000000E+00  0.47552661672E+03  0.49168187592E+03  0.12500201560E+03 0.  0.
    9000005    1    3    3    0    0  0.42852913340E+02  0.48994033364E+01  0.41563785333E+03  0.41787103448E+03  0.10000000000E+01 0.  0.
    9000005    1    3    3    0    0 -0.42852913340E+02 -0.48994033364E+01  0.59888763384E+02  0.73810841442E+02  0.10000000000E+01 0.  0.
<mgrwt>
<rscale>  0 0.12500202E+03</rscale>
<asrwt>0</asrwt>
<pdfrwt beam="2">  1        4 0.12427126E-02 0.12500202E+03</pdfrwt>
<pdfrwt beam="1">  1       -4 0.74400632E-01 0.12500202E+03</pdfrwt>
<totfact> 0.56513079E+03</totfact>
</mgrwt>
</event>
<event>
 5    1  0.3331626E-002  0.1249984E+03  0.7818608E-02  0.1235072E+00
         -4   -1    0    0    0  501 -0.00000000000E+00  0.00000000000E+00  0.31219579327E+03  0.31219837641E+03  0.12700000000E+01 0.  1.
          4   -1    0    0  501    0  0.00000000000E+00 -0.00000000000E+00 -0.12476990136E+02  0.12541458562E+02  0.12700000000E+01 0.  1.
         25    2    1    2    0    0  0.00000000000E+00  0.00000000000E+00  0.29971880313E+03  0.32473983497E+03  0.12499839786E+03 0.  0.
    9000005    1    3    3    0    0  0.25528709186E+02  0.53423105630E+02  0.20177989005E+03  0.21028995990E+03  0.10000000000E+01 0.  0.
    9000005    1    3    3    0    0 -0.25528709186E+02 -0.53423105630E+02  0.97938913083E+02  0.11444987507E+03  0.10000000000E+01 0.  0.
<mgrwt>
<rscale>  0 0.12499840E+03</rscale>
<asrwt>0</asrwt>
<pdfrwt beam="2">  1        4 0.19246948E-02 0.12499840E+03</pdfrwt>
<pdfrwt beam="1">  1       -4 0.48035278E-01 0.12499840E+03</pdfrwt>
<totfact> 0.72598486E+03</totfact>
</mgrwt>
</event>
<event>
 5    1  0.3331626E-002  0.1249689E+03  0.7818608E-02  0.1235118E+00
         -4   -1    0    0    0  501 -0.00000000000E+00  0.00000000000E+00  0.35477592890E+03  0.35477820201E+03  0.12700000000E+01 0. -1.
          4   -1    0    0  501    0  0.00000000000E+00 -0.00000000000E+00 -0.10966041364E+02  0.11039337081E+02  0.12700000000E+01 0. -1.
         25    2    1    2    0    0  0.00000000000E+00  0.00000000000E+00  0.34380988753E+03  0.36581753910E+03  0.12496892872E+03 0.  0.
    9000005    1    3    3    0    0  0.12951901469E+02 -0.18338850379E+02  0.12363581470E+01  0.22507637955E+02  0.10000000000E+01 0.  0.
    9000005    1    3    3    0    0 -0.12951901469E+02  0.18338850379E+02  0.34257352939E+03  0.34330990114E+03  0.10000000000E+01 0.  0.
<mgrwt>
<rscale>  0 0.12496893E+03</rscale>
<asrwt>0</asrwt>
<pdfrwt beam="2">  1        4 0.16928965E-02 0.12496893E+03</pdfrwt>
<pdfrwt beam="1">  1       -4 0.54586718E-01 0.12496893E+03</pdfrwt>
<totfact> 0.68065540E+03</totfact>
</mgrwt>
</event>
<event>
 5    1  0.3331626E-002  0.1249947E+03  0.7818608E-02  0.1235078E+00
         -4   -1    0    0    0  501 -0.00000000000E+00  0.00000000000E+00  0.15528121652E+03  0.15528640992E+03  0.12700000000E+01 0. -1.
          4   -1    0    0  501    0  0.00000000000E+00 -0.00000000000E+00 -0.25132186940E+02  0.25164254815E+02  0.12700000000E+01 0. -1.
         25    2    1    2    0    0  0.00000000000E+00  0.00000000000E+00  0.13014902958E+03  0.18045066473E+03  0.12499468989E+03 0.  0.
    9000005    1    3    3    0    0 -0.48929087712E+02 -0.11221237992E+02  0.11880037688E+03  0.12897480899E+03  0.10000000000E+01 0.  0.
    9000005    1    3    3    0    0  0.48929087712E+02  0.11221237992E+02  0.11348652702E+02  0.51475855743E+02  0.10000000000E+01 0.  0.
<mgrwt>
<rscale>  0 0.12499469E+03</rscale>
<asrwt>0</asrwt>
<pdfrwt beam="2">  1        4 0.38693566E-02 0.12499469E+03</pdfrwt>
<pdfrwt beam="1">  1       -4 0.23892284E-01 0.12499469E+03</pdfrwt>
<totfact> 0.93547082E+03</totfact>
</mgrwt>
</event>
<event>
 5    1  0.3331626E-002  0.1249971E+03  0.7818608E-02  0.1235074E+00
          4   -1    0    0  501    0  0.00000000000E+00  0.00000000000E+00  0.23197212381E+03  0.23197560028E+03  0.12700000000E+01 0. -1.
         -4   -1    0    0    0  501 -0.00000000000E+00 -0.00000000000E+00 -0.16810985106E+02  0.16858888464E+02  0.12700000000E+01 0. -1.
         25    2    1    2    0    0  0.00000000000E+00  0.00000000000E+00  0.21516113870E+03  0.24883448874E+03  0.12499714869E+03 0.  0.
    9000005    1    3    3    0    0  0.46683429956E+02  0.37311940607E+02  0.14393771676E+03  0.15585438669E+03  0.10000000000E+01 0.  0.
    9000005    1    3    3    0    0 -0.46683429956E+02 -0.37311940607E+02  0.71223421940E+02  0.92980102049E+02  0.10000000000E+01 0.  0.
<mgrwt>
<rscale>  0 0.12499715E+03</rscale>
<asrwt>0</asrwt>
<pdfrwt beam="1">  1        4 0.35691972E-01 0.12499715E+03</pdfrwt>
<pdfrwt beam="2">  1       -4 0.25902577E-02 0.12499715E+03</pdfrwt>
<totfact> 0.82504212E+03</totfact>
</mgrwt>
</event>
<event>
 5    1  0.3331626E-002  0.1249978E+03  0.7818608E-02  0.1235073E+00
          4   -1    0    0  501    0  0.00000000000E+00  0.00000000000E+00  0.96727780465E+01  0.97557949515E+01  0.12700000000E+01 0.  1.
         -4   -1    0    0    0  501 -0.00000000000E+00 -0.00000000000E+00 -0.40201592008E+03  0.40201792609E+03  0.12700000000E+01 0.  1.
         25    2    1    2    0    0  0.00000000000E+00  0.00000000000E+00 -0.39234314203E+03  0.41177372104E+03  0.12499782494E+03 0.  0.
    9000005    1    3    3    0    0  0.34318317633E+02 -0.57922686773E+01 -0.36714955663E+03  0.36879681972E+03  0.10000000000E+01 0.  0.
    9000005    1    3    3    0    0 -0.34318317633E+02  0.57922686773E+01 -0.25193585399E+02  0.42976901318E+02  0.10000000000E+01 0.  0.
<mgrwt>
<rscale>  0 0.12499782E+03</rscale>
<asrwt>0</asrwt>
<pdfrwt beam="1">  1        4 0.14946602E-02 0.12499782E+03</pdfrwt>
<pdfrwt beam="2">  1       -4 0.61855130E-01 0.12499782E+03</pdfrwt>
<totfact> 0.63426626E+03</totfact>
</mgrwt>
</event>
<event>
 5    1  0.3331626E-002  0.1250008E+03  0.7818608E-02  0.1235068E+00
          4   -1    0    0  501    0  0.00000000000E+00  0.00000000000E+00  0.83129600407E+01  0.84094116702E+01  0.12700000000E+01 0.  1.
         -4   -1    0    0    0  501 -0.00000000000E+00 -0.00000000000E+00 -0.46709688472E+03  0.46709861124E+03  0.12700000000E+01 0.  1.
         25    2    1    2    0    0  0.00000000000E+00  0.00000000000E+00 -0.45878392468E+03  0.47550802291E+03  0.12500076120E+03 0.  0.
    9000005    1    3    3    0    0  0.53568068125E+02 -0.31421656765E+02 -0.25586741517E+03  0.26329829582E+03  0.10000000000E+01 0.  0.
    9000005    1    3    3    0    0 -0.53568068125E+02  0.31421656765E+02 -0.20291650951E+03  0.21220972708E+03  0.10000000000E+01 0.  0.
<mgrwt>
<rscale>  0 0.12500076E+03</rscale>
<asrwt>0</asrwt>
<pdfrwt beam="1">  1        4 0.12864695E-02 0.12500076E+03</pdfrwt>
<pdfrwt beam="2">  1       -4 0.71868591E-01 0.12500076E+03</pdfrwt>
<totfact> 0.57815051E+03</totfact>
</mgrwt>
</event>
<event>
 5    1  0.3331626E-002  0.1250012E+03  0.7818608E-02  0.1235067E+00
         -4   -1    0    0    0  501 -0.00000000000E+00  0.00000000000E+00  0.43819768410E+03  0.43819952448E+03  0.12700000000E+01 0. -1.
          4   -1    0    0  501    0  0.00000000000E+00 -0.00000000000E+00 -0.88674278210E+01  0.89579113727E+01  0.12700000000E+01 0. -1.
         25    2    1    2    0    0  0.00000000000E+00  0.00000000000E+00  0.42933025628E+03  0.44715743585E+03  0.12500121391E+03 0.  0.
    9000005    1    3    3    0    0  0.14777696068E+01  0.36117179855E+02  0.39702260727E+03  0.39866600704E+03  0.10000000000E+01 0.  0.
    9000005    1    3    3    0    0 -0.14777696068E+01 -0.36117179855E+02  0.32307649010E+02  0.48491428812E+02  0.10000000000E+01 0.  0.
<mgrwt>
<rscale>  0 0.12500121E+03</rscale>
<asrwt>0</asrwt>
<pdfrwt beam="2">  1        4 0.13713215E-02 0.12500121E+03</pdfrwt>
<pdfrwt beam="1">  1       -4 0.67422130E-01 0.12500121E+03</pdfrwt>
<totfact> 0.60209227E+03</totfact>
</mgrwt>
</event>
<event>
 5    1  0.3331626E-002  0.1249998E+03  0.7818608E-02  0.1235070E+00
         -4   -1    0    0    0  501 -0.00000000000E+00  0.00000000000E+00  0.27611388689E+03  0.27611680759E+03  0.12700000000E+01 0. -1.
          4   -1    0    0  501    0  0.00000000000E+00 -0.00000000000E+00 -0.14115692301E+02  0.14172708602E+02  0.12700000000E+01 0. -1.
         25    2    1    2    0    0  0.00000000000E+00  0.00000000000E+00  0.26199819459E+03  0.29028951619E+03  0.12499979697E+03 0.  0.
    9000005    1    3    3    0    0  0.39963692053E+02  0.36829344874E+02  0.20264332434E+03  0.20980661149E+03  0.10000000000E+01 0.  0.
    9000005    1    3    3    0    0 -0.39963692053E+02 -0.36829344874E+02  0.59354870246E+02  0.80482904696E+02  0.10000000000E+01 0.  0.
<mgrwt>
<rscale>  0 0.12499980E+03</rscale>
<asrwt>0</asrwt>
<pdfrwt beam="2">  1        4 0.21762557E-02 0.12499980E+03</pdfrwt>
<pdfrwt beam="1">  1       -4 0.42483665E-01 0.12499980E+03</pdfrwt>
<totfact> 0.76833624E+03</totfact>
</mgrwt>
</event>
<event>
 5    1  0.3331626E-002  0.1249991E+03  0.7818608E-02  0.1235071E+00
         -4   -1    0    0    0  501 -0.00000000000E+00  0.00000000000E+00  0.14638897799E+04  0.14638903308E+04  0.12700000000E+01 0.  1.
          4   -1    0    0  501    0  0.00000000000E+00 -0.00000000000E+00 -0.25166692220E+01  0.28189579588E+01  0.12700000000E+01 0.  1.
         25    2    1    2    0    0  0.00000000000E+00  0.00000000000E+00  0.14613731107E+04  0.14667092887E+04  0.12499907641E+03 0.  0.
    9000005    1    3    3    0    0  0.25141892623E+02 -0.19583827411E+02  0.13614295511E+04  0.13618028725E+04  0.10000000000E+01 0.  0.
    9000005    1    3    3    0    0 -0.25141892623E+02  0.19583827411E+02  0.99943559561E+02  0.10490641619E+03  0.10000000000E+01 0.  0.
<mgrwt>
<rscale>  0 0.12499908E+03</rscale>
<asrwt>0</asrwt>
<pdfrwt beam="2">  1        4 0.41047619E-03 0.12499908E+03</pdfrwt>
<pdfrwt beam="1">  1       -4 0.22523658E+00 0.12499908E+03</pdfrwt>
<totfact> 0.18593522E+03</totfact>
</mgrwt>
</event>
<event>
 5    1  0.3331626E-002  0.1250002E+03  0.7818608E-02  0.1235069E+00
          4   -1    0    0  501    0  0.00000000000E+00  0.00000000000E+00  0.15877602506E+03  0.15878110414E+03  0.12700000000E+01 0. -1.
         -4   -1    0    0    0  501 -0.00000000000E+00 -0.00000000000E+00 -0.24580474731E+02  0.24613261425E+02  0.12700000000E+01 0. -1.
         25    2    1    2    0    0  0.00000000000E+00  0.00000000000E+00  0.13419555033E+03  0.18339436557E+03  0.12500019038E+03 0.  0.
    9000005    1    3    3    0    0  0.19043938921E+02  0.11623073150E+02  0.15274097662E+03  0.15436506528E+03  0.10000000000E+01 0.  0.
    9000005    1    3    3    0    0 -0.19043938921E+02 -0.11623073150E+02 -0.18545426293E+02  0.29029300292E+02  0.10000000000E+01 0.  0.
<mgrwt>
<rscale>  0 0.12500019E+03</rscale>
<asrwt>0</asrwt>
<pdfrwt beam="1">  1        4 0.24429994E-01 0.12500019E+03</pdfrwt>
<pdfrwt beam="2">  1       -4 0.37845242E-02 0.12500019E+03</pdfrwt>
<totfact> 0.93009153E+03</totfact>
</mgrwt>
</event>
<event>
 5    1  0.3331626E-002  0.1249569E+03  0.7818608E-02  0.1235137E+00
         -4   -1    0    0    0  501 -0.00000000000E+00  0.00000000000E+00  0.23410446654E+03  0.23410791135E+03  0.12700000000E+01 0.  1.
          4   -1    0    0  501    0  0.00000000000E+00 -0.00000000000E+00 -0.16646661774E+02  0.16695036634E+02  0.12700000000E+01 0.  1.
         25    2    1    2    0    0  0.00000000000E+00  0.00000000000E+00  0.21745780477E+03  0.25080294798E+03  0.12495688001E+03 0.  0.
    9000005    1    3    3    0    0 -0.39666626153E+02 -0.26402618744E+02  0.27644995816E+02  0.55097960948E+02  0.10000000000E+01 0.  0.
    9000005    1    3    3    0    0  0.39666626153E+02  0.26402618744E+02  0.18981280895E+03  0.19570498703E+03  0.10000000000E+01 0.  0.
<mgrwt>
<rscale>  0 0.12495688E+03</rscale>
<asrwt>0</asrwt>
<pdfrwt beam="2">  1        4 0.25650110E-02 0.12495688E+03</pdfrwt>
<pdfrwt beam="1">  1       -4 0.36020058E-01 0.12495688E+03</pdfrwt>
<totfact> 0.82293331E+03</totfact>
</mgrwt>
</event>
<event>
 5    1  0.3331626E-002  0.1250018E+03  0.7818608E-02  0.1235067E+00
          4   -1    0    0  501    0  0.00000000000E+00  0.00000000000E+00  0.14511054462E+03  0.14511610200E+03  0.12700000000E+01 0. -1.
         -4   -1    0    0    0  501 -0.00000000000E+00 -0.00000000000E+00 -0.26898831881E+02  0.26928796047E+02  0.12700000000E+01 0. -1.
         25    2    1    2    0    0  0.00000000000E+00  0.00000000000E+00  0.11821171274E+03  0.17204489805E+03  0.12500175165E+03 0.  0.
    9000005    1    3    3    0    0 -0.18278255798E+02  0.52459850855E+02  0.19712015196E+02  0.58955017851E+02  0.10000000000E+01 0.  0.
    9000005    1    3    3    0    0  0.18278255798E+02 -0.52459850855E+02  0.98499697544E+02  0.11308988020E+03  0.10000000000E+01 0.  0.
<mgrwt>
<rscale>  0 0.12500175E+03</rscale>
<asrwt>0</asrwt>
<pdfrwt beam="1">  1        4 0.22327432E-01 0.12500175E+03</pdfrwt>
<pdfrwt beam="2">  1       -4 0.41410142E-02 0.12500175E+03</pdfrwt>
<totfact> 0.95065127E+03</totfact>
</mgrwt>
</event>
<event>
 5    1  0.3331626E-002  0.1249930E+03  0.7818608E-02  0.1235080E+00
          4   -1    0    0  501    0  0.00000000000E+00  0.00000000000E+00  0.31428250628E+03  0.31428507227E+03  0.12700000000E+01 0. -1.
         -4   -1    0    0    0  501 -0.00000000000E+00 -0.00000000000E+00 -0.12392650195E+02  0.12457555091E+02  0.12700000000E+01 0. -1.
         25    2    1    2    0    0  0.00000000000E+00  0.00000000000E+00  0.30188985608E+03  0.32674262736E+03  0.12499303712E+03 0.  0.
    9000005    1    3    3    0    0  0.37719325946E+02  0.49650256410E+02  0.14019237876E+03  0.15343662722E+03  0.10000000000E+01 0.  0.
    9000005    1    3    3    0    0 -0.37719325946E+02 -0.49650256410E+02  0.16169747732E+03  0.17330600014E+03  0.10000000000E+01 0.  0.
<mgrwt>
<rscale>  0 0.12499304E+03</rscale>
<asrwt>0</asrwt>
<pdfrwt beam="1">  1        4 0.48356349E-01 0.12499304E+03</pdfrwt>
<pdfrwt beam="2">  1       -4 0.19117515E-02 0.12499304E+03</pdfrwt>
<totfact> 0.72372452E+03</totfact>
</mgrwt>
</event>
<event>
 5    1  0.3331626E-002  0.1250023E+03  0.7818608E-02  0.1235066E+00
         -4   -1    0    0    0  501 -0.00000000000E+00  0.00000000000E+00  0.12591330340E+03  0.12591970804E+03  0.12700000000E+01 0.  1.
          4   -1    0    0  501    0  0.00000000000E+00 -0.00000000000E+00 -0.31004256364E+02  0.31030256407E+02  0.12700000000E+01 0.  1.
         25    2    1    2    0    0  0.00000000000E+00  0.00000000000E+00  0.94909047032E+02  0.15694996444E+03  0.12500225650E+03 0.  0.
    9000005    1    3    3    0    0  0.32677314659E+02 -0.51793388756E+02  0.31821252015E+02  0.69021403144E+02  0.10000000000E+01 0.  0.
    9000005    1    3    3    0    0 -0.32677314659E+02  0.51793388756E+02  0.63087795016E+02  0.87928561299E+02  0.10000000000E+01 0.  0.
<mgrwt>
<rscale>  0 0.12500226E+03</rscale>
<asrwt>0</asrwt>
<pdfrwt beam="2">  1        4 0.47723782E-02 0.12500226E+03</pdfrwt>
<pdfrwt beam="1">  1       -4 0.19373770E-01 0.12500226E+03</pdfrwt>
<totfact> 0.97929082E+03</totfact>
</mgrwt>
</event>
<event>
 5    1  0.3331626E-002  0.1250039E+03  0.7818608E-02  0.1235063E+00
         -4   -1    0    0    0  501 -0.00000000000E+00  0.00000000000E+00  0.27552661911E+03  0.27552954604E+03  0.12700000000E+01 0. -1.
          4   -1    0    0  501    0  0.00000000000E+00 -0.00000000000E+00 -0.14146839244E+02  0.14203730516E+02  0.12700000000E+01 0. -1.
         25    2    1    2    0    0  0.00000000000E+00  0.00000000000E+00  0.26137977987E+03  0.28973327655E+03  0.12500392881E+03 0.  0.
    9000005    1    3    3    0    0 -0.33419659073E+02 -0.49920246671E+02  0.90773281263E+02  0.10885629624E+03  0.10000000000E+01 0.  0.
    9000005    1    3    3    0    0  0.33419659073E+02  0.49920246671E+02  0.17060649860E+03  0.18087698031E+03  0.10000000000E+01 0.  0.
<mgrwt>
<rscale>  0 0.12500393E+03</rscale>
<asrwt>0</asrwt>
<pdfrwt beam="2">  1        4 0.21810382E-02 0.12500393E+03</pdfrwt>
<pdfrwt beam="1">  1       -4 0.42393312E-01 0.12500393E+03</pdfrwt>
<totfact> 0.76898280E+03</totfact>
</mgrwt>
</event>
<event>
 5    1  0.3331626E-002  0.1250028E+03  0.7818608E-02  0.1235065E+00
         -4   -1    0    0    0  501 -0.00000000000E+00  0.00000000000E+00  0.20573044102E+04  0.20573048022E+04  0.12700000000E+01 0. -1.
          4   -1    0    0  501    0  0.00000000000E+00 -0.00000000000E+00 -0.16860142153E+01  0.21108159404E+01  0.12700000000E+01 0. -1.
         25    2    1    2    0    0  0.00000000000E+00  0.00000000000E+00  0.20556183960E+04  0.20594156182E+04  0.12500279318E+03 0.  0.
    9000005    1    3    3    0    0 -0.42837626376E+02  0.32283470313E+02  0.49954596053E+03  0.50241860174E+03  0.10000000000E+01 0.  0.
    9000005    1    3    3    0    0  0.42837626376E+02 -0.32283470313E+02  0.15560724355E+04  0.15569970164E+04  0.10000000000E+01 0.  0.
<mgrwt>
<rscale>  0 0.12500279E+03</rscale>
<asrwt>0</asrwt>
<pdfrwt beam="2">  1        4 0.29209301E-03 0.12500279E+03</pdfrwt>
<pdfrwt beam="1">  1       -4 0.31654216E+00 0.12500279E+03</pdfrwt>
<totfact> 0.91049027E+02</totfact>
</mgrwt>
</event>
<event>
 5    1  0.3331626E-002  0.1250010E+03  0.7818608E-02  0.1235068E+00
          4   -1    0    0  501    0  0.00000000000E+00  0.00000000000E+00  0.20919160630E+02  0.20957675956E+02  0.12700000000E+01 0.  1.
         -4   -1    0    0    0  501 -0.00000000000E+00 -0.00000000000E+00 -0.18652138850E+03  0.18652571208E+03  0.12700000000E+01 0.  1.
         25    2    1    2    0    0  0.00000000000E+00  0.00000000000E+00 -0.16560222787E+03  0.20748338804E+03  0.12500103374E+03 0.  0.
    9000005    1    3    3    0    0 -0.48158294918E+02 -0.39817377977E+02 -0.84159408314E+02  0.10482581250E+03  0.10000000000E+01 0.  0.
    9000005    1    3    3    0    0  0.48158294918E+02  0.39817377977E+02 -0.81442819556E+02  0.10265757554E+03  0.10000000000E+01 0.  0.
<mgrwt>
<rscale>  0 0.12500103E+03</rscale>
<asrwt>0</asrwt>
<pdfrwt beam="1">  1        4 0.32216278E-02 0.12500103E+03</pdfrwt>
<pdfrwt beam="2">  1       -4 0.28698892E-01 0.12500103E+03</pdfrwt>
<totfact> 0.88886479E+03</totfact>
</mgrwt>
</event>
<event>
 5    1  0.3331626E-002  0.1250026E+03  0.7818608E-02  0.1235065E+00
         -4   -1    0    0    0  501 -0.00000000000E+00  0.00000000000E+00  0.21572589247E+02  0.21609940000E+02  0.12700000000E+01 0.  1.
          4   -1    0    0  501    0  0.00000000000E+00 -0.00000000000E+00 -0.18088590401E+03  0.18089036229E+03  0.12700000000E+01 0.  1.
         25    2    1    2    0    0  0.00000000000E+00  0.00000000000E+00 -0.15931331476E+03  0.20250030229E+03  0.12500256064E+03 0.  0.
    9000005    1    3    3    0    0 -0.51282962822E+02 -0.35498129512E+02 -0.86003664394E+02  0.10624353987E+03  0.10000000000E+01 0.  0.
    9000005    1    3    3    0    0  0.51282962822E+02  0.35498129512E+02 -0.73309650370E+02  0.96256762422E+02  0.10000000000E+01 0.  0.
<mgrwt>
<rscale>  0 0.12500256E+03</rscale>
<asrwt>0</asrwt>
<pdfrwt beam="2">  1        4 0.27831816E-01 0.12500256E+03</pdfrwt>
<pdfrwt beam="1">  1       -4 0.33220761E-02 0.12500256E+03</pdfrwt>
<totfact> 0.89710378E+03</totfact>
</mgrwt>
</event>
<event>
 5    1  0.3331626E-002  0.1250064E+03  0.7818608E-02  0.1235059E+00
         -4   -1    0    0    0  501 -0.00000000000E+00  0.00000000000E+00  0.11721691186E+04  0.11721698066E+04  0.12700000000E+01 0.  1.
          4   -1    0    0  501    0  0.00000000000E+00 -0.00000000000E+00 -0.32111397883E+01  0.34531606884E+01  0.12700000000E+01 0.  1.
         25    2    1    2    0    0  0.00000000000E+00  0.00000000000E+00  0.11689579788E+04  0.11756229673E+04  0.12500641977E+03 0.  0.
    9000005    1    3    3    0    0  0.39251205660E+02 -0.42585665401E+02  0.36363231490E+03  0.36821686067E+03  0.10000000000E+01 0.  0.
    9000005    1    3    3    0    0 -0.39251205660E+02  0.42585665401E+02  0.80532566391E+03  0.80740610661E+03  0.10000000000E+01 0.  0.
<mgrwt>
<rscale>  0 0.12500642E+03</rscale>
<asrwt>0</asrwt>
<pdfrwt beam="2">  1        4 0.51269174E-03 0.12500642E+03</pdfrwt>
<pdfrwt beam="1">  1       -4 0.18035227E+00 0.12500642E+03</pdfrwt>
<totfact> 0.25356350E+03</totfact>
</mgrwt>
</event>
<event>
 5    1  0.3331626E-002  0.1249961E+03  0.7818608E-02  0.1235075E+00
          4   -1    0    0  501    0  0.00000000000E+00  0.00000000000E+00  0.12521812541E+03  0.12522456560E+03  0.12700000000E+01 0. -1.
         -4   -1    0    0    0  501 -0.00000000000E+00 -0.00000000000E+00 -0.31173430610E+02  0.31199289672E+02  0.12700000000E+01 0. -1.
         25    2    1    2    0    0  0.00000000000E+00  0.00000000000E+00  0.94044694798E+02  0.15642385528E+03  0.12499607146E+03 0.  0.
    9000005    1    3    3    0    0  0.45899419460E+02 -0.16919290851E+02  0.95683278525E+02  0.10746771096E+03  0.10000000000E+01 0.  0.
    9000005    1    3    3    0    0 -0.45899419460E+02  0.16919290851E+02 -0.16385837265E+01  0.48956144316E+02  0.10000000000E+01 0.  0.
<mgrwt>
<rscale>  0 0.12499607E+03</rscale>
<asrwt>0</asrwt>
<pdfrwt beam="1">  1        4 0.19266811E-01 0.12499607E+03</pdfrwt>
<pdfrwt beam="2">  1       -4 0.47983970E-02 0.12499607E+03</pdfrwt>
<totfact> 0.98045362E+03</totfact>
</mgrwt>
</event>
<event>
 5    1  0.3331626E-002  0.1250003E+03  0.7818608E-02  0.1235069E+00
          4   -1    0    0  501    0  0.00000000000E+00  0.00000000000E+00  0.61225074977E+01  0.62528391999E+01  0.12700000000E+01 0. -1.
         -4   -1    0    0    0  501 -0.00000000000E+00 -0.00000000000E+00 -0.63116716173E+03  0.63116843945E+03  0.12700000000E+01 0. -1.
         25    2    1    2    0    0  0.00000000000E+00  0.00000000000E+00 -0.62504465424E+03  0.63742127865E+03  0.12500026672E+03 0.  0.
    9000005    1    3    3    0    0  0.48574266601E+01 -0.36724376089E+02 -0.56916717503E+03  0.57037228853E+03  0.10000000000E+01 0.  0.
    9000005    1    3    3    0    0 -0.48574266601E+01  0.36724376089E+02 -0.55877479210E+02  0.67048990117E+02  0.10000000000E+01 0.  0.
<mgrwt>
<rscale>  0 0.12500027E+03</rscale>
<asrwt>0</asrwt>
<pdfrwt beam="1">  1        4 0.95204853E-03 0.12500027E+03</pdfrwt>
<pdfrwt beam="2">  1       -4 0.97112713E-01 0.12500027E+03</pdfrwt>
<totfact> 0.46587303E+03</totfact>
</mgrwt>
</event>
<event>
 5    1  0.3331626E-002  0.1249988E+03  0.7818608E-02  0.1235071E+00
         -4   -1    0    0    0  501 -0.00000000000E+00  0.00000000000E+00  0.22332693224E+02  0.22368774813E+02  0.12700000000E+01 0. -1.
          4   -1    0    0  501    0  0.00000000000E+00 -0.00000000000E+00 -0.17472874155E+03  0.17473335693E+03  0.12700000000E+01 0. -1.
         25    2    1    2    0    0  0.00000000000E+00  0.00000000000E+00 -0.15239604833E+03  0.19710213174E+03  0.12499877916E+03 0.  0.
    9000005    1    3    3    0    0 -0.97341935894E+01  0.25735840376E+02 -0.16467063079E+03  0.16695659511E+03  0.10000000000E+01 0.  0.
    9000005    1    3    3    0    0  0.97341935894E+01 -0.25735840376E+02  0.12274582460E+02  0.30145536639E+02  0.10000000000E+01 0.  0.
<mgrwt>
<rscale>  0 0.12499878E+03</rscale>
<asrwt>0</asrwt>
<pdfrwt beam="2">  1        4 0.26884475E-01 0.12499878E+03</pdfrwt>
<pdfrwt beam="1">  1       -4 0.34389296E-02 0.12499878E+03</pdfrwt>
<totfact> 0.90628518E+03</totfact>
</mgrwt>
</event>
<event>
 5    1  0.3331626E-002  0.1249998E+03  0.7818608E-02  0.1235070E+00
         -4   -1    0    0    0  501 -0.00000000000E+00  0.00000000000E+00  0.13398678011E+02  0.13458732200E+02  0.12700000000E+01 0.  1.
          4   -1    0    0  501    0  0.00000000000E+00 -0.00000000000E+00 -0.29082546893E+03  0.29082824188E+03  0.12700000000E+01 0.  1.
         25    2    1    2    0    0  0.00000000000E+00  0.00000000000E+00 -0.27742679092E+03  0.30428697408E+03  0.12499975311E+03 0.  0.
    9000005    1    3    3    0    0  0.83264338398E+01 -0.56422612566E+02 -0.76536484925E+02  0.95455090141E+02  0.10000000000E+01 0.  0.
    9000005    1    3    3    0    0 -0.83264338398E+01  0.56422612566E+02 -0.20089030599E+03  0.20883188394E+03  0.10000000000E+01 0.  0.
<mgrwt>
<rscale>  0 0.12499975E+03</rscale>
<asrwt>0</asrwt>
<pdfrwt beam="2">  1        4 0.44747208E-01 0.12499975E+03</pdfrwt>
<pdfrwt beam="1">  1       -4 0.20661682E-02 0.12499975E+03</pdfrwt>
<totfact> 0.75064630E+03</totfact>
</mgrwt>
</event>
<event>
 5    1  0.3331626E-002  0.1250025E+03  0.7818608E-02  0.1235065E+00
          4   -1    0    0  501    0  0.00000000000E+00  0.00000000000E+00  0.60084073230E+02  0.60097493757E+02  0.12700000000E+01 0.  1.
         -4   -1    0    0    0  501 -0.00000000000E+00 -0.00000000000E+00 -0.64988777682E+02  0.65001185563E+02  0.12700000000E+01 0.  1.
         25    2    1    2    0    0  0.00000000000E+00  0.00000000000E+00 -0.49047044518E+01  0.12509867932E+03  0.12500249374E+03 0.  0.
    9000005    1    3    3    0    0 -0.26665233775E+02  0.35780854613E+02 -0.46236463835E+02  0.64265969510E+02  0.10000000000E+01 0.  0.
    9000005    1    3    3    0    0  0.26665233775E+02 -0.35780854613E+02  0.41331759383E+02  0.60832709810E+02  0.10000000000E+01 0.  0.
<mgrwt>
<rscale>  0 0.12500249E+03</rscale>
<asrwt>0</asrwt>
<pdfrwt beam="1">  1        4 0.92456904E-02 0.12500249E+03</pdfrwt>
<pdfrwt beam="2">  1       -4 0.10000260E-01 0.12500249E+03</pdfrwt>
<totfact> 0.10450131E+04</totfact>
</mgrwt>
</event>
<event>
 5    1  0.3331626E-002  0.1249991E+03  0.7818608E-02  0.1235071E+00
          4   -1    0    0  501    0  0.00000000000E+00  0.00000000000E+00  0.48800603385E+02  0.48817125999E+02  0.12700000000E+01 0. -1.
         -4   -1    0    0    0  501 -0.00000000000E+00 -0.00000000000E+00 -0.80008838042E+02  0.80018916918E+02  0.12700000000E+01 0. -1.
         25    2    1    2    0    0  0.00000000000E+00  0.00000000000E+00 -0.31208234656E+02  0.12883604292E+03  0.12499908817E+03 0.  0.
    9000005    1    3    3    0    0  0.39373054498E+02 -0.83790456676E+01  0.33662144181E+02  0.52484147870E+02  0.10000000000E+01 0.  0.
    9000005    1    3    3    0    0 -0.39373054498E+02  0.83790456676E+01 -0.64870378837E+02  0.76351895047E+02  0.10000000000E+01 0.  0.
<mgrwt>
<rscale>  0 0.12499909E+03</rscale>
<asrwt>0</asrwt>
<pdfrwt beam="1">  1        4 0.75098314E-02 0.12499909E+03</pdfrwt>
<pdfrwt beam="2">  1       -4 0.12311098E-01 0.12499909E+03</pdfrwt>
<totfact> 0.10369685E+04</totfact>
</mgrwt>
</event>
<event>
 5    1  0.3331626E-002  0.1250010E+03  0.7818608E-02  0.1235068E+00
          4   -1    0    0  501    0  0.00000000000E+00  0.00000000000E+00  0.26366023076E+03  0.26366328941E+03  0.12700000000E+01 0.  1.
         -4   -1    0    0    0  501 -0.00000000000E+00 -0.00000000000E+00 -0.14785346405E+02  0.14839790036E+02  0.12700000000E+01 0.  1.
         25    2    1    2    0    0  0.00000000000E+00  0.00000000000E+00  0.24887488435E+03  0.27850307945E+03  0.12500102880E+03 0.  0.
    9000005    1    3    3    0    0 -0.19320842387E+02  0.15698070932E+02  0.25214690931E+03  0.25337479799E+03  0.10000000000E+01 0.  0.
    9000005    1    3    3    0    0  0.19320842387E+02 -0.15698070932E+02 -0.32720249605E+01  0.25128281455E+02  0.10000000000E+01 0.  0.
<mgrwt>
<rscale>  0 0.12500103E+03</rscale>
<asrwt>0</asrwt>
<pdfrwt beam="1">  1        4 0.40567537E-01 0.12500103E+03</pdfrwt>
<pdfrwt beam="2">  1       -4 0.22790919E-02 0.12500103E+03</pdfrwt>
<totfact> 0.78375211E+03</totfact>
</mgrwt>
</event>
<event>
 5    1  0.3331626E-002  0.1250225E+03  0.7818608E-02  0.1235034E+00
         -4   -1    0    0    0  501 -0.00000000000E+00  0.00000000000E+00  0.78136789324E+03  0.78136892533E+03  0.12700000000E+01 0.  1.
          4   -1    0    0  501    0  0.00000000000E+00 -0.00000000000E+00 -0.49193630523E+01  0.50806527967E+01  0.12700000000E+01 0.  1.
         25    2    1    2    0    0  0.00000000000E+00  0.00000000000E+00  0.77644853018E+03  0.78644957813E+03  0.12502247366E+03 0.  0.
    9000005    1    3    3    0    0 -0.12181722424E+02 -0.60100740827E+02  0.46427423138E+03  0.46830765030E+03  0.10000000000E+01 0.  0.
    9000005    1    3    3    0    0  0.12181722424E+02  0.60100740827E+02  0.31217429880E+03  0.31814192783E+03  0.10000000000E+01 0.  0.
<mgrwt>
<rscale>  0 0.12502247E+03</rscale>
<asrwt>0</asrwt>
<pdfrwt beam="2">  1        4 0.76931144E-03 0.12502247E+03</pdfrwt>
<pdfrwt beam="1">  1       -4 0.12022292E+00 0.12502247E+03</pdfrwt>
<totfact> 0.38857777E+03</totfact>
</mgrwt>
</event>
<event>
 5    1  0.3331626E-002  0.1250007E+03  0.7818608E-02  0.1235068E+00
         -4   -1    0    0    0  501 -0.00000000000E+00  0.00000000000E+00  0.36253602948E+02  0.36275840814E+02  0.12700000000E+01 0. -1.
          4   -1    0    0  501    0  0.00000000000E+00 -0.00000000000E+00 -0.10769014163E+03  0.10769762998E+03  0.12700000000E+01 0. -1.
         25    2    1    2    0    0  0.00000000000E+00  0.00000000000E+00 -0.71436538678E+02  0.14397347079E+03  0.12500072494E+03 0.  0.
    9000005    1    3    3    0    0  0.45571019785E+02 -0.35765171981E+02 -0.62715928026E+02  0.85382392794E+02  0.10000000000E+01 0.  0.
    9000005    1    3    3    0    0 -0.45571019785E+02  0.35765171981E+02 -0.87206106519E+01  0.58591078000E+02  0.10000000000E+01 0.  0.
<mgrwt>
<rscale>  0 0.12500072E+03</rscale>
<asrwt>0</asrwt>
<pdfrwt beam="2">  1        4 0.16570001E-01 0.12500072E+03</pdfrwt>
<pdfrwt beam="1">  1       -4 0.55797641E-02 0.12500072E+03</pdfrwt>
<totfact> 0.10051723E+04</totfact>
</mgrwt>
</event>
<event>
 5    1  0.3331626E-002  0.1249993E+03  0.7818608E-02  0.1235070E+00
          4   -1    0    0  501    0  0.00000000000E+00  0.00000000000E+00  0.10265933005E+02  0.10344190663E+02  0.12700000000E+01 0.  1.
         -4   -1    0    0    0  501 -0.00000000000E+00 -0.00000000000E+00 -0.37897775749E+03  0.37897988545E+03  0.12700000000E+01 0.  1.
         25    2    1    2    0    0  0.00000000000E+00  0.00000000000E+00 -0.36871182449E+03  0.38932407611E+03  0.12499930689E+03 0.  0.
    9000005    1    3    3    0    0 -0.62171348049E+02 -0.44694085279E+01 -0.17044278922E+03  0.18148552705E+03  0.10000000000E+01 0.  0.
    9000005    1    3    3    0    0  0.62171348049E+02  0.44694085279E+01 -0.19826903527E+03  0.20783854907E+03  0.10000000000E+01 0.  0.
<mgrwt>
<rscale>  0 0.12499931E+03</rscale>
<asrwt>0</asrwt>
<pdfrwt beam="1">  1        4 0.15855581E-02 0.12499931E+03</pdfrwt>
<pdfrwt beam="2">  1       -4 0.58310443E-01 0.12499931E+03</pdfrwt>
<totfact> 0.65605541E+03</totfact>
</mgrwt>
</event>
<event>
 5    1  0.3331626E-002  0.1249985E+03  0.7818608E-02  0.1235072E+00
          4   -1    0    0  501    0  0.00000000000E+00  0.00000000000E+00  0.85515681481E+02  0.85525111395E+02  0.12700000000E+01 0.  1.
         -4   -1    0    0    0  501 -0.00000000000E+00 -0.00000000000E+00 -0.45656894101E+02  0.45674553954E+02  0.12700000000E+01 0.  1.
         25    2    1    2    0    0  0.00000000000E+00  0.00000000000E+00  0.39858787381E+02  0.13119966535E+03  0.12499851702E+03 0.  0.
    9000005    1    3    3    0    0 -0.30183268249E+02 -0.35686151552E+02 -0.23608872970E+02  0.52372798070E+02  0.10000000000E+01 0.  0.
    9000005    1    3    3    0    0  0.30183268249E+02  0.35686151552E+02  0.63467660350E+02  0.78826867280E+02  0.10000000000E+01 0.  0.
<mgrwt>
<rscale>  0 0.12499852E+03</rscale>
<asrwt>0</asrwt>
<pdfrwt beam="1">  1        4 0.13158343E-01 0.12499852E+03</pdfrwt>
<pdfrwt beam="2">  1       -4 0.70262214E-02 0.12499852E+03</pdfrwt>
<totfact> 0.10319156E+04</totfact>
</mgrwt>
</event>
<event>
 5    1  0.3331626E-002  0.1249982E+03  0.7818608E-02  0.1235072E+00
          4   -1    0    0  501    0  0.00000000000E+00  0.00000000000E+00  0.95096111142E+03  0.95096195946E+03  0.12700000000E+01 0. -1.
         -4   -1    0    0    0  501 -0.00000000000E+00 -0.00000000000E+00 -0.40085311481E+01  0.42049045132E+01  0.12700000000E+01 0. -1.
         25    2    1    2    0    0  0.00000000000E+00  0.00000000000E+00  0.94695258027E+03  0.95516686397E+03  0.12499819495E+03 0.  0.
    9000005    1    3    3    0    0  0.30336035510E+02 -0.39432051390E+02  0.76243766712E+03  0.76405978691E+03  0.10000000000E+01 0.  0.
    9000005    1    3    3    0    0 -0.30336035510E+02  0.39432051390E+02  0.18451491315E+03  0.19110707706E+03  0.10000000000E+01 0.  0.
<mgrwt>
<rscale>  0 0.12499819E+03</rscale>
<asrwt>0</asrwt>
<pdfrwt beam="1">  1        4 0.14631685E+00 0.12499819E+03</pdfrwt>
<pdfrwt beam="2">  1       -4 0.63186812E-03 0.12499819E+03</pdfrwt>
<totfact> 0.32134504E+03</totfact>
</mgrwt>
</event>
<event>
 5    1  0.3331626E-002  0.1250003E+03  0.7818608E-02  0.1235069E+00
         -4   -1    0    0    0  501 -0.00000000000E+00  0.00000000000E+00  0.12503636557E+02  0.12567968299E+02  0.12700000000E+01 0.  1.
          4   -1    0    0  501    0  0.00000000000E+00 -0.00000000000E+00 -0.31154334530E+03  0.31154593385E+03  0.12700000000E+01 0.  1.
         25    2    1    2    0    0  0.00000000000E+00  0.00000000000E+00 -0.29903970874E+03  0.32411390215E+03  0.12500029665E+03 0.  0.
    9000005    1    3    3    0    0  0.48486350800E+02  0.38127551734E+02 -0.17553072801E+03  0.18605556398E+03  0.10000000000E+01 0.  0.
    9000005    1    3    3    0    0 -0.48486350800E+02 -0.38127551734E+02 -0.12350898073E+03  0.13805833817E+03  0.10000000000E+01 0.  0.
<mgrwt>
<rscale>  0 0.12500030E+03</rscale>
<asrwt>0</asrwt>
<pdfrwt beam="2">  1        4 0.47934887E-01 0.12500030E+03</pdfrwt>
<pdfrwt beam="1">  1       -4 0.19287843E-02 0.12500030E+03</pdfrwt>
<totfact> 0.72669013E+03</totfact>
</mgrwt>
</event>
<event>
 5    1  0.3331626E-002  0.1249948E+03  0.7818608E-02  0.1235077E+00
         -4   -1    0    0    0  501 -0.00000000000E+00  0.00000000000E+00  0.11115036570E+03  0.11115762095E+03  0.12700000000E+01 0.  1.
          4   -1    0    0  501    0  0.00000000000E+00 -0.00000000000E+00 -0.35121035524E+02  0.35143990045E+02  0.12700000000E+01 0.  1.
         25    2    1    2    0    0  0.00000000000E+00  0.00000000000E+00  0.76029330176E+02  0.14630161100E+03  0.12499480922E+03 0.  0.
    9000005    1    3    3    0    0  0.49193991683E+02  0.10580151120E+02  0.81383969981E+02  0.95688761019E+02  0.10000000000E+01 0.  0.
    9000005    1    3    3    0    0 -0.49193991683E+02 -0.10580151120E+02 -0.53546398051E+01  0.50612849977E+02  0.10000000000E+01 0.  0.
<mgrwt>
<rscale>  0 0.12499481E+03</rscale>
<asrwt>0</asrwt>
<pdfrwt beam="2">  1        4 0.54055602E-02 0.12499481E+03</pdfrwt>
<pdfrwt beam="1">  1       -4 0.17102380E-01 0.12499481E+03</pdfrwt>
<totfact> 0.10005779E+04</totfact>
</mgrwt>
</event>
<event>
 5    1  0.3331626E-002  0.1250051E+03  0.7818608E-02  0.1235061E+00
          4   -1    0    0  501    0  0.00000000000E+00  0.00000000000E+00  0.22777962908E+02  0.22813340269E+02  0.12700000000E+01 0.  1.
         -4   -1    0    0    0  501 -0.00000000000E+00 -0.00000000000E+00 -0.17133575082E+03  0.17134045760E+03  0.12700000000E+01 0.  1.
         25    2    1    2    0    0  0.00000000000E+00  0.00000000000E+00 -0.14855778792E+03  0.19415379787E+03  0.12500512340E+03 0.  0.
    9000005    1    3    3    0    0  0.36455942247E+02 -0.21848817584E+01 -0.15304390932E+03  0.15734435997E+03  0.10000000000E+01 0.  0.
    9000005    1    3    3    0    0 -0.36455942247E+02  0.21848817584E+01  0.44861214034E+01  0.36809437902E+02  0.10000000000E+01 0.  0.
<mgrwt>
<rscale>  0 0.12500512E+03</rscale>
<asrwt>0</asrwt>
<pdfrwt beam="1">  1        4 0.35073855E-02 0.12500512E+03</pdfrwt>
<pdfrwt beam="2">  1       -4 0.26362429E-01 0.12500512E+03</pdfrwt>
<totfact> 0.91119096E+03</totfact>
</mgrwt>
</event>
<event>
 5    1  0.3331626E-002  0.1249998E+03  0.7818608E-02  0.1235070E+00
          4   -1    0    0  501    0  0.00000000000E+00  0.00000000000E+00  0.14517088746E+04  0.14517094301E+04  0.12700000000E+01 0.  1.
         -4   -1    0    0    0  501 -0.00000000000E+00 -0.00000000000E+00 -0.25403442929E+01  0.28401142805E+01  0.12700000000E+01 0.  1.
         25    2    1    2    0    0  0.00000000000E+00  0.00000000000E+00  0.14491685303E+04  0.14545495444E+04  0.12499979151E+03 0.  0.
    9000005    1    3    3    0    0  0.15143377658E+02 -0.60246635896E+02  0.80372724538E+03  0.80612496797E+03  0.10000000000E+01 0.  0.
    9000005    1    3    3    0    0 -0.15143377658E+02  0.60246635896E+02  0.64544128496E+03  0.64842457645E+03  0.10000000000E+01 0.  0.
<mgrwt>
<rscale>  0 0.12499979E+03</rscale>
<asrwt>0</asrwt>
<pdfrwt beam="1">  1        4 0.22336343E+00 0.12499979E+03</pdfrwt>
<pdfrwt beam="2">  1       -4 0.41392324E-03 0.12499979E+03</pdfrwt>
<totfact> 0.18839761E+03</totfact>
</mgrwt>
</event>
<event>
 5    1  0.3331626E-002  0.1250069E+03  0.7818608E-02  0.1235059E+00
         -4   -1    0    0    0  501 -0.00000000000E+00  0.00000000000E+00  0.21323703642E+02  0.21361489578E+02  0.12700000000E+01 0. -1.
          4   -1    0    0  501    0  0.00000000000E+00 -0.00000000000E+00 -0.18300609671E+03  0.18301050334E+03  0.12700000000E+01 0. -1.
         25    2    1    2    0    0  0.00000000000E+00  0.00000000000E+00 -0.16168239307E+03  0.20437199292E+03  0.12500686086E+03 0.  0.
    9000005    1    3    3    0    0 -0.56296669776E+02  0.97770292621E+01 -0.12222589519E+03  0.13492618273E+03  0.10000000000E+01 0.  0.
    9000005    1    3    3    0    0  0.56296669776E+02 -0.97770292621E+01 -0.39456497877E+02  0.69445810196E+02  0.10000000000E+01 0.  0.
<mgrwt>
<rscale>  0 0.12500686E+03</rscale>
<asrwt>0</asrwt>
<pdfrwt beam="2">  1        4 0.28158029E-01 0.12500686E+03</pdfrwt>
<pdfrwt beam="1">  1       -4 0.32838155E-02 0.12500686E+03</pdfrwt>
<totfact> 0.89389618E+03</totfact>
</mgrwt>
</event>
<event>
 5    1  0.3331626E-002  0.1249957E+03  0.7818608E-02  0.1235076E+00
         -4   -1    0    0    0  501 -0.00000000000E+00  0.00000000000E+00  0.59490378983E+02  0.59503933412E+02  0.12700000000E+01 0.  1.
          4   -1    0    0  501    0  0.00000000000E+00 -0.00000000000E+00 -0.65630145528E+02  0.65642432176E+02  0.12700000000E+01 0.  1.
         25    2    1    2    0    0  0.00000000000E+00  0.00000000000E+00 -0.61397665449E+01  0.12514636559E+03  0.12499566427E+03 0.  0.
    9000005    1    3    3    0    0  0.27245594150E+02 -0.23042504120E+02  0.48292060617E+02  0.60053330593E+02  0.10000000000E+01 0.  0.
    9000005    1    3    3    0    0 -0.27245594150E+02  0.23042504120E+02 -0.54431827162E+02  0.65093034995E+02  0.10000000000E+01 0.  0.
<mgrwt>
<rscale>  0 0.12499566E+03</rscale>
<asrwt>0</asrwt>
<pdfrwt beam="2">  1        4 0.10098933E-01 0.12499566E+03</pdfrwt>
<pdfrwt beam="1">  1       -4 0.91543537E-02 0.12499566E+03</pdfrwt>
<totfact> 0.10450708E+04</totfact>
</mgrwt>
</event>
<event>
 5    1  0.3331626E-002  0.1250009E+03  0.7818608E-02  0.1235068E+00
         -4   -1    0    0    0  501 -0.00000000000E+00  0.00000000000E+00  0.71757296837E+02  0.71768534536E+02  0.12700000000E+01 0. -1.
          4   -1    0    0  501    0  0.00000000000E+00 -0.00000000000E+00 -0.54414870049E+02  0.54429688428E+02  0.12700000000E+01 0. -1.
         25    2    1    2    0    0  0.00000000000E+00  0.00000000000E+00  0.17342426788E+02  0.12619822296E+03  0.12500092685E+03 0.  0.
    9000005    1    3    3    0    0 -0.59186318407E+02 -0.88826787529E+01 -0.94839593302E+01  0.60604189237E+02  0.10000000000E+01 0.  0.
    9000005    1    3    3    0    0  0.59186318407E+02  0.88826787529E+01  0.26826386119E+02  0.65594033727E+02  0.10000000000E+01 0.  0.
<mgrwt>
<rscale>  0 0.12500093E+03</rscale>
<asrwt>0</asrwt>
<pdfrwt beam="2">  1        4 0.83735228E-02 0.12500093E+03</pdfrwt>
<pdfrwt beam="1">  1       -4 0.11041588E-01 0.12500093E+03</pdfrwt>
<totfact> 0.10426400E+04</totfact>
</mgrwt>
</event>
<event>
 5    1  0.3331626E-002  0.1249982E+03  0.7818608E-02  0.1235072E+00
          4   -1    0    0  501    0  0.00000000000E+00  0.00000000000E+00  0.19928805104E+03  0.19929209765E+03  0.12700000000E+01 0. -1.
         -4   -1    0    0    0  501 -0.00000000000E+00 -0.00000000000E+00 -0.19575644455E+02  0.19616797798E+02  0.12700000000E+01 0. -1.
         25    2    1    2    0    0  0.00000000000E+00  0.00000000000E+00  0.17971240658E+03  0.21890889545E+03  0.12499822170E+03 0.  0.
    9000005    1    3    3    0    0  0.13793747843E+00  0.18094365734E+02 -0.14895808078E+02  0.23458691276E+02  0.10000000000E+01 0.  0.
    9000005    1    3    3    0    0 -0.13793747843E+00 -0.18094365734E+02  0.19460821466E+03  0.19545020417E+03  0.10000000000E+01 0.  0.
<mgrwt>
<rscale>  0 0.12499822E+03</rscale>
<asrwt>0</asrwt>
<pdfrwt beam="1">  1        4 0.30663179E-01 0.12499822E+03</pdfrwt>
<pdfrwt beam="2">  1       -4 0.30151144E-02 0.12499822E+03</pdfrwt>
<totfact> 0.87044753E+03</totfact>
</mgrwt>
</event>
<event>
 5    1  0.3331626E-002  0.1250008E+03  0.7818608E-02  0.1235068E+00
         -4   -1    0    0    0  501 -0.00000000000E+00  0.00000000000E+00  0.20088385606E+03  0.20088787053E+03  0.12700000000E+01 0.  1.
          4   -1    0    0  501    0  0.00000000000E+00 -0.00000000000E+00 -0.19420604309E+02  0.19462085492E+02  0.12700000000E+01 0.  1.
         25    2    1    2    0    0  0.00000000000E+00  0.00000000000E+00  0.18146325176E+03  0.22034995602E+03  0.12500076553E+03 0.  0.
    9000005    1    3    3    0    0  0.47159092526E+01  0.47207873102E+02  0.16243347715E+03  0.16922310002E+03  0.10000000000E+01 0.  0.
    9000005    1    3    3    0    0 -0.47159092526E+01 -0.47207873102E+02  0.19029774605E+02  0.51126856000E+02  0.10000000000E+01 0.  0.
<mgrwt>
<rscale>  0 0.12500077E+03</rscale>
<asrwt>0</asrwt>
<pdfrwt beam="2">  1        4 0.29912847E-02 0.12500077E+03</pdfrwt>
<pdfrwt beam="1">  1       -4 0.30908711E-01 0.12500077E+03</pdfrwt>
<totfact> 0.86811516E+03</totfact>
</mgrwt>
</event>
<event>
 5    1  0.3331626E-002  0.1250041E+03  0.7818608E-02  0.1235063E+00
         -4   -1    0    0    0  501 -0.00000000000E+00  0.00000000000E+00  0.22016371392E+01  0.25416738762E+01  0.12700000000E+01 0.  1.
          4   -1    0    0  501    0  0.00000000000E+00 -0.00000000000E+00 -0.16468235691E+04  0.16468240588E+04  0.12700000000E+01 0.  1.
         25    2    1    2    0    0  0.00000000000E+00  0.00000000000E+00 -0.16446219320E+04  0.16493657327E+04  0.12500408410E+03 0.  0.
    9000005    1    3    3    0    0 -0.57529141959E+02 -0.14116163454E+02 -0.55953273447E+03  0.56266042085E+03  0.10000000000E+01 0.  0.
    9000005    1    3    3    0    0  0.57529141959E+02  0.14116163454E+02 -0.10850891975E+04  0.10867053118E+04  0.10000000000E+01 0.  0.
<mgrwt>
<rscale>  0 0.12500408E+03</rscale>
<asrwt>0</asrwt>
<pdfrwt beam="2">  1        4 0.25338275E+00 0.12500408E+03</pdfrwt>
<pdfrwt beam="1">  1       -4 0.36490906E-03 0.12500408E+03</pdfrwt>
<totfact> 0.15169181E+03</totfact>
</mgrwt>
</event>
<event>
 5    1  0.3331626E-002  0.1249990E+03  0.7818608E-02  0.1235071E+00
         -4   -1    0    0    0  501 -0.00000000000E+00  0.00000000000E+00  0.44962213577E+02  0.44980146173E+02  0.12700000000E+01 0. -1.
          4   -1    0    0  501    0  0.00000000000E+00 -0.00000000000E+00 -0.86837236249E+02  0.86846522667E+02  0.12700000000E+01 0. -1.
         25    2    1    2    0    0  0.00000000000E+00  0.00000000000E+00 -0.41875022672E+02  0.13182666884E+03  0.12499901237E+03 0.  0.
    9000005    1    3    3    0    0  0.44902298315E+02  0.43449644816E+02 -0.19831291715E+02  0.65561941397E+02  0.10000000000E+01 0.  0.
    9000005    1    3    3    0    0 -0.44902298315E+02 -0.43449644816E+02 -0.22043730957E+02  0.66264727443E+02  0.10000000000E+01 0.  0.
<mgrwt>
<rscale>  0 0.12499901E+03</rscale>
<asrwt>0</asrwt>
<pdfrwt beam="2">  1        4 0.13361669E-01 0.12499901E+03</pdfrwt>
<pdfrwt beam="1">  1       -4 0.69193574E-02 0.12499901E+03</pdfrwt>
<totfact> 0.10305629E+04</totfact>
</mgrwt>
</event>
<event>
 5    1  0.3331626E-002  0.1250065E+03  0.7818608E-02  0.1235059E+00
          4   -1    0    0  501    0  0.00000000000E+00  0.00000000000E+00  0.21133788197E+03  0.21134169786E+03  0.12700000000E+01 0.  1.
         -4   -1    0    0    0  501 -0.00000000000E+00 -0.00000000000E+00 -0.18459549457E+02  0.18503185298E+02  0.12700000000E+01 0.  1.
         25    2    1    2    0    0  0.00000000000E+00  0.00000000000E+00  0.19287833251E+03  0.22984488316E+03  0.12500647648E+03 0.  0.
    9000005    1    3    3    0    0 -0.46940662239E+02 -0.59606429377E+01  0.21375285811E+02  0.51931280354E+02  0.10000000000E+01 0.  0.
    9000005    1    3    3    0    0  0.46940662239E+02  0.59606429377E+01  0.17150304670E+03  0.17791360281E+03  0.10000000000E+01 0.  0.
<mgrwt>
<rscale>  0 0.12500648E+03</rscale>
<asrwt>0</asrwt>
<pdfrwt beam="1">  1        4 0.32517168E-01 0.12500648E+03</pdfrwt>
<pdfrwt beam="2">  1       -4 0.28435810E-02 0.12500648E+03</pdfrwt>
<totfact> 0.85321093E+03</totfact>
</mgrwt>
</event>
<event>
 5    1  0.3331626E-002  0.1249966E+03  0.7818608E-02  0.1235075E+00
         -4   -1    0    0    0  501 -0.00000000000E+00  0.00000000000E+00  0.19856093621E+03  0.19856499764E+03  0.12700000000E+01 0. -1.
          4   -1    0    0  501    0  0.00000000000E+00 -0.00000000000E+00 -0.19646972112E+02  0.19687976360E+02  0.12700000000E+01 0. -1.
         25    2    1    2    0    0  0.00000000000E+00  0.00000000000E+00  0.17891396410E+03  0.21825297400E+03  0.12499661640E+03 0.  0.
    9000005    1    3    3    0    0 -0.31490919581E+02 -0.52758794774E+02  0.10935530508E+03  0.12543823656E+03  0.10000000000E+01 0.  0.
    9000005    1    3    3    0    0  0.31490919581E+02  0.52758794774E+02  0.69558659016E+02  0.92814737441E+02  0.10000000000E+01 0.  0.
<mgrwt>
<rscale>  0 0.12499662E+03</rscale>
<asrwt>0</asrwt>
<pdfrwt beam="2">  1        4 0.30260777E-02 0.12499662E+03</pdfrwt>
<pdfrwt beam="1">  1       -4 0.30551303E-01 0.12499662E+03</pdfrwt>
<totfact> 0.87152138E+03</totfact>
</mgrwt>
</event>
<event>
 5    1  0.3331626E-002  0.1249971E+03  0.7818608E-02  0.1235074E+00
         -4   -1    0    0    0  501 -0.00000000000E+00  0.00000000000E+00  0.10213239699E+04  0.10213247595E+04  0.12700000000E+01 0. -1.
          4   -1    0    0  501    0  0.00000000000E+00 -0.00000000000E+00 -0.37182717572E+01  0.39291786496E+01  0.12700000000E+01 0. -1.
         25    2    1    2    0    0  0.00000000000E+00  0.00000000000E+00  0.10176056982E+04  0.10252539382E+04  0.12499712326E+03 0.  0.
    9000005    1    3    3    0    0 -0.57496025753E+02 -0.21140860790E+02  0.61004005771E+03  0.61310896338E+03  0.10000000000E+01 0.  0.
    9000005    1    3    3    0    0  0.57496025753E+02  0.21140860790E+02  0.40756564045E+03  0.41214497479E+03  0.10000000000E+01 0.  0.
<mgrwt>
<rscale>  0 0.12499712E+03</rscale>
<asrwt>0</asrwt>
<pdfrwt beam="2">  1        4 0.58832520E-03 0.12499712E+03</pdfrwt>
<pdfrwt beam="1">  1       -4 0.15714330E+00 0.12499712E+03</pdfrwt>
<totfact> 0.29781998E+03</totfact>
</mgrwt>
</event>
<event>
 5    1  0.3331626E-002  0.1249975E+03  0.7818608E-02  0.1235073E+00
          4   -1    0    0  501    0  0.00000000000E+00  0.00000000000E+00  0.11358773489E+04  0.11358780588E+04  0.12700000000E+01 0.  1.
         -4   -1    0    0    0  501 -0.00000000000E+00 -0.00000000000E+00 -0.33208432805E+01  0.35554043502E+01  0.12700000000E+01 0.  1.
         25    2    1    2    0    0  0.00000000000E+00  0.00000000000E+00  0.11325565056E+04  0.11394334632E+04  0.12499751480E+03 0.  0.
    9000005    1    3    3    0    0 -0.43296115916E+02 -0.22717915118E+02  0.21153573171E+03  0.21711523003E+03  0.10000000000E+01 0.  0.
    9000005    1    3    3    0    0  0.43296115916E+02  0.22717915118E+02  0.92102077388E+03  0.92231823317E+03  0.10000000000E+01 0.  0.
<mgrwt>
<rscale>  0 0.12499751E+03</rscale>
<asrwt>0</asrwt>
<pdfrwt beam="1">  1        4 0.17476832E+00 0.12499751E+03</pdfrwt>
<pdfrwt beam="2">  1       -4 0.52899715E-03 0.12499751E+03</pdfrwt>
<totfact> 0.26356696E+03</totfact>
</mgrwt>
</event>
<event>
 5    1  0.3331626E-002  0.1249989E+03  0.7818608E-02  0.1235071E+00
         -4   -1    0    0    0  501 -0.00000000000E+00  0.00000000000E+00  0.43230353978E+02  0.43249004671E+02  0.12700000000E+01 0.  1.
          4   -1    0    0  501    0  0.00000000000E+00 -0.00000000000E+00 -0.90314800494E+02  0.90323729375E+02  0.12700000000E+01 0.  1.
         25    2    1    2    0    0  0.00000000000E+00  0.00000000000E+00 -0.47084446516E+02  0.13357273405E+03  0.12499892070E+03 0.  0.
    9000005    1    3    3    0    0 -0.23056335021E+02 -0.77884880567E+01  0.37963780807E+02  0.45105473991E+02  0.10000000000E+01 0.  0.
    9000005    1    3    3    0    0  0.23056335021E+02  0.77884880567E+01 -0.85048227323E+02  0.88467260055E+02  0.10000000000E+01 0.  0.
<mgrwt>
<rscale>  0 0.12499892E+03</rscale>
<asrwt>0</asrwt>
<pdfrwt beam="2">  1        4 0.13896706E-01 0.12499892E+03</pdfrwt>
<pdfrwt beam="1">  1       -4 0.66529452E-02 0.12499892E+03</pdfrwt>
<totfact> 0.10268492E+04</totfact>
</mgrwt>
</event>
<event>
 5    1  0.3331626E-002  0.1250009E+03  0.7818608E-02  0.1235068E+00
         -4   -1    0    0    0  501 -0.00000000000E+00  0.00000000000E+00  0.89897601111E+02  0.89906571426E+02  0.12700000000E+01 0.  1.
          4   -1    0    0  501    0  0.00000000000E+00 -0.00000000000E+00 -0.43432447853E+02  0.43451011801E+02  0.12700000000E+01 0.  1.
         25    2    1    2    0    0  0.00000000000E+00  0.00000000000E+00  0.46465153258E+02  0.13335758323E+03  0.12500093814E+03 0.  0.
    9000005    1    3    3    0    0  0.53999408590E+01  0.12195918354E+02 -0.41901454873E+02  0.43984448459E+02  0.10000000000E+01 0.  0.
    9000005    1    3    3    0    0 -0.53999408590E+01 -0.12195918354E+02  0.88366608131E+02  0.89373134768E+02  0.10000000000E+01 0.  0.
<mgrwt>
<rscale>  0 0.12500094E+03</rscale>
<asrwt>0</asrwt>
<pdfrwt beam="2">  1        4 0.66840330E-02 0.12500094E+03</pdfrwt>
<pdfrwt beam="1">  1       -4 0.13832518E-01 0.12500094E+03</pdfrwt>
<totfact> 0.10272589E+04</totfact>
</mgrwt>
</event>
<event>
 5    1  0.3331626E-002  0.1250106E+03  0.7818608E-02  0.1235053E+00
         -4   -1    0    0    0  501 -0.00000000000E+00  0.00000000000E+00  0.11912798772E+03  0.11913475714E+03  0.12700000000E+01 0. -1.
          4   -1    0    0  501    0  0.00000000000E+00 -0.00000000000E+00 -0.32775911761E+02  0.32800507493E+02  0.12700000000E+01 0. -1.
         25    2    1    2    0    0  0.00000000000E+00  0.00000000000E+00  0.86352075960E+02  0.15193526463E+03  0.12501057402E+03 0.  0.
    9000005    1    3    3    0    0  0.57813346648E+02 -0.18450317156E+02  0.25021930261E+02  0.65649784826E+02  0.10000000000E+01 0.  0.
    9000005    1    3    3    0    0 -0.57813346648E+02  0.18450317156E+02  0.61330145700E+02  0.86285479806E+02  0.10000000000E+01 0.  0.
<mgrwt>
<rscale>  0 0.12501057E+03</rscale>
<asrwt>0</asrwt>
<pdfrwt beam="2">  1        4 0.50448606E-02 0.12501057E+03</pdfrwt>
<pdfrwt beam="1">  1       -4 0.18329796E-01 0.12501057E+03</pdfrwt>
<totfact> 0.98895790E+03</totfact>
</mgrwt>
</event>
<event>
 5    1  0.3331626E-002  0.1249918E+03  0.7818608E-02  0.1235082E+00
         -4   -1    0    0    0  501 -0.00000000000E+00  0.00000000000E+00  0.59674471586E+02  0.59687984211E+02  0.12700000000E+01 0. -1.
          4   -1    0    0  501    0  0.00000000000E+00 -0.00000000000E+00 -0.65423676251E+02  0.65436001667E+02  0.12700000000E+01 0. -1.
         25    2    1    2    0    0  0.00000000000E+00  0.00000000000E+00 -0.57492046646E+01  0.12512398588E+03  0.12499183368E+03 0.  0.
    9000005    1    3    3    0    0  0.11854461223E+02  0.61095831065E+02 -0.84939852705E+01  0.62820192695E+02  0.10000000000E+01 0.  0.
    9000005    1    3    3    0    0 -0.11854461223E+02 -0.61095831065E+02  0.27447806059E+01  0.62303793183E+02  0.10000000000E+01 0.  0.
<mgrwt>
<rscale>  0 0.12499183E+03</rscale>
<asrwt>0</asrwt>
<pdfrwt beam="2">  1        4 0.10067168E-01 0.12499183E+03</pdfrwt>
<pdfrwt beam="1">  1       -4 0.91826755E-02 0.12499183E+03</pdfrwt>
<totfact> 0.10452099E+04</totfact>
</mgrwt>
</event>
<event>
 5    1  0.3331626E-002  0.1250148E+03  0.7818608E-02  0.1235046E+00
         -4   -1    0    0    0  501 -0.00000000000E+00  0.00000000000E+00  0.44767798868E+03  0.44767979009E+03  0.12700000000E+01 0. -1.
          4   -1    0    0  501    0  0.00000000000E+00 -0.00000000000E+00 -0.86796172424E+01  0.87720382736E+01  0.12700000000E+01 0. -1.
         25    2    1    2    0    0  0.00000000000E+00  0.00000000000E+00  0.43899837144E+03  0.45645182836E+03  0.12501480506E+03 0.  0.
    9000005    1    3    3    0    0  0.53870031954E+02  0.11882123081E+02  0.11223827941E+03  0.12506636861E+03  0.10000000000E+01 0.  0.
    9000005    1    3    3    0    0 -0.53870031954E+02 -0.11882123081E+02  0.32676009203E+03  0.33138545975E+03  0.10000000000E+01 0.  0.
<mgrwt>
<rscale>  0 0.12501481E+03</rscale>
<asrwt>0</asrwt>
<pdfrwt beam="2">  1        4 0.13425738E-02 0.12501481E+03</pdfrwt>
<pdfrwt beam="1">  1       -4 0.68880777E-01 0.12501481E+03</pdfrwt>
<totfact> 0.59389558E+03</totfact>
</mgrwt>
</event>
<event>
 5    1  0.3331626E-002  0.1250131E+03  0.7818608E-02  0.1235049E+00
          4   -1    0    0  501    0  0.00000000000E+00  0.00000000000E+00  0.12608302168E+02  0.12672102570E+02  0.12700000000E+01 0. -1.
         -4   -1    0    0    0  501 -0.00000000000E+00 -0.00000000000E+00 -0.30903349603E+03  0.30903610560E+03  0.12700000000E+01 0. -1.
         25    2    1    2    0    0  0.00000000000E+00  0.00000000000E+00 -0.29642519386E+03  0.32170820817E+03  0.12501310192E+03 0.  0.
    9000005    1    3    3    0    0 -0.31377397837E+02 -0.49662437566E+02 -0.93309925157E+02  0.11026622753E+03  0.10000000000E+01 0.  0.
    9000005    1    3    3    0    0  0.31377397837E+02  0.49662437566E+02 -0.20311526870E+03  0.21144198065E+03  0.10000000000E+01 0.  0.
<mgrwt>
<rscale>  0 0.12501310E+03</rscale>
<asrwt>0</asrwt>
<pdfrwt beam="1">  1        4 0.19448475E-02 0.12501310E+03</pdfrwt>
<pdfrwt beam="2">  1       -4 0.47548717E-01 0.12501310E+03</pdfrwt>
<totfact> 0.72932237E+03</totfact>
</mgrwt>
</event>
<event>
 5    1  0.3331626E-002  0.1250030E+03  0.7818608E-02  0.1235065E+00
          4   -1    0    0  501    0  0.00000000000E+00  0.00000000000E+00  0.14475086305E+02  0.14530692465E+02  0.12700000000E+01 0.  1.
         -4   -1    0    0    0  501 -0.00000000000E+00 -0.00000000000E+00 -0.26929878327E+03  0.26930177788E+03  0.12700000000E+01 0.  1.
         25    2    1    2    0    0  0.00000000000E+00  0.00000000000E+00 -0.25482369696E+03  0.28383247034E+03  0.12500301872E+03 0.  0.
    9000005    1    3    3    0    0  0.36025712327E+01  0.24384859985E+02  0.29817542484E+01  0.24849361649E+02  0.10000000000E+01 0.  0.
    9000005    1    3    3    0    0 -0.36025712327E+01 -0.24384859985E+02 -0.25780545121E+03  0.25898310869E+03  0.10000000000E+01 0.  0.
<mgrwt>
<rscale>  0 0.12500302E+03</rscale>
<asrwt>0</asrwt>
<pdfrwt beam="1">  1        4 0.22314443E-02 0.12500302E+03</pdfrwt>
<pdfrwt beam="2">  1       -4 0.41435086E-01 0.12500302E+03</pdfrwt>
<totfact> 0.77667468E+03</totfact>
</mgrwt>
</event>
<event>
 5    1  0.3331626E-002  0.1250179E+03  0.7818608E-02  0.1235041E+00
         -4   -1    0    0    0  501 -0.00000000000E+00  0.00000000000E+00  0.31697243669E+02  0.31722675742E+02  0.12700000000E+01 0.  1.
          4   -1    0    0  501    0  0.00000000000E+00 -0.00000000000E+00 -0.12319343149E+03  0.12319997752E+03  0.12700000000E+01 0.  1.
         25    2    1    2    0    0  0.00000000000E+00  0.00000000000E+00 -0.91496187818E+02  0.15492265326E+03  0.12501790315E+03 0.  0.
    9000005    1    3    3    0    0 -0.56084889290E+02 -0.27257381568E+02 -0.50989408742E+02  0.80556808902E+02  0.10000000000E+01 0.  0.
    9000005    1    3    3    0    0  0.56084889290E+02  0.27257381568E+02 -0.40506779076E+02  0.74365844363E+02  0.10000000000E+01 0.  0.
<mgrwt>
<rscale>  0 0.12501790E+03</rscale>
<asrwt>0</asrwt>
<pdfrwt beam="2">  1        4 0.18955295E-01 0.12501790E+03</pdfrwt>
<pdfrwt beam="1">  1       -4 0.48789589E-02 0.12501790E+03</pdfrwt>
<totfact> 0.98291104E+03</totfact>
</mgrwt>
</event>
<event>
 5    1  0.3331626E-002  0.1250005E+03  0.7818608E-02  0.1235069E+00
         -4   -1    0    0    0  501 -0.00000000000E+00  0.00000000000E+00  0.55400185622E+03  0.55400331190E+03  0.12700000000E+01 0.  1.
          4   -1    0    0  501    0  0.00000000000E+00 -0.00000000000E+00 -0.69923589317E+01  0.71067561820E+01  0.12700000000E+01 0.  1.
         25    2    1    2    0    0  0.00000000000E+00  0.00000000000E+00  0.54700949729E+03  0.56111006808E+03  0.12500047351E+03 0.  0.
    9000005    1    3    3    0    0  0.31502365048E+02 -0.50148320794E+02  0.18394921957E+03  0.19325001543E+03  0.10000000000E+01 0.  0.
    9000005    1    3    3    0    0 -0.31502365048E+02  0.50148320794E+02  0.36306027771E+03  0.36786005265E+03  0.10000000000E+01 0.  0.
<mgrwt>
<rscale>  0 0.12500047E+03</rscale>
<asrwt>0</asrwt>
<pdfrwt beam="2">  1        4 0.10846589E-02 0.12500047E+03</pdfrwt>
<pdfrwt beam="1">  1       -4 0.85239994E-01 0.12500047E+03</pdfrwt>
<totfact> 0.51417677E+03</totfact>
</mgrwt>
</event>
<event>
 5    1  0.3331626E-002  0.1250236E+03  0.7818608E-02  0.1235032E+00
          4   -1    0    0  501    0  0.00000000000E+00  0.00000000000E+00  0.49500182541E+02  0.49516471720E+02  0.12700000000E+01 0.  1.
         -4   -1    0    0    0  501 -0.00000000000E+00 -0.00000000000E+00 -0.78909250559E+02  0.78919469865E+02  0.12700000000E+01 0.  1.
         25    2    1    2    0    0  0.00000000000E+00  0.00000000000E+00 -0.29409068018E+02  0.12843594159E+03  0.12502358901E+03 0.  0.
    9000005    1    3    3    0    0  0.61460371040E+02 -0.11273501018E+02 -0.13161739080E+02  0.63864703939E+02  0.10000000000E+01 0.  0.
    9000005    1    3    3    0    0 -0.61460371040E+02  0.11273501018E+02 -0.16247328939E+02  0.64571237647E+02  0.10000000000E+01 0.  0.
<mgrwt>
<rscale>  0 0.12502359E+03</rscale>
<asrwt>0</asrwt>
<pdfrwt beam="1">  1        4 0.76174518E-02 0.12502359E+03</pdfrwt>
<pdfrwt beam="2">  1       -4 0.12141924E-01 0.12502359E+03</pdfrwt>
<totfact> 0.10372559E+04</totfact>
</mgrwt>
</event>
<event>
 5    1  0.3331626E-002  0.1250017E+03  0.7818608E-02  0.1235067E+00
          4   -1    0    0  501    0  0.00000000000E+00  0.00000000000E+00  0.19614098405E+02  0.19655171234E+02  0.12700000000E+01 0. -1.
         -4   -1    0    0    0  501 -0.00000000000E+00 -0.00000000000E+00 -0.19890929597E+03  0.19891335029E+03  0.12700000000E+01 0. -1.
         25    2    1    2    0    0  0.00000000000E+00  0.00000000000E+00 -0.17929519756E+03  0.21856852152E+03  0.12500172291E+03 0.  0.
    9000005    1    3    3    0    0 -0.24795416260E+02 -0.46364264158E+02 -0.30587331202E+02  0.60836193902E+02  0.10000000000E+01 0.  0.
    9000005    1    3    3    0    0  0.24795416260E+02  0.46364264158E+02 -0.14870786636E+03  0.15773232762E+03  0.10000000000E+01 0.  0.
<mgrwt>
<rscale>  0 0.12500172E+03</rscale>
<asrwt>0</asrwt>
<pdfrwt beam="1">  1        4 0.30210251E-02 0.12500172E+03</pdfrwt>
<pdfrwt beam="2">  1       -4 0.30604900E-01 0.12500172E+03</pdfrwt>
<totfact> 0.87092019E+03</totfact>
</mgrwt>
</event>
<event>
 5    1  0.3331626E-002  0.1249992E+03  0.7818608E-02  0.1235070E+00
         -4   -1    0    0    0  501 -0.00000000000E+00  0.00000000000E+00  0.25646086092E+02  0.25677512182E+02  0.12700000000E+01 0. -1.
          4   -1    0    0  501    0  0.00000000000E+00 -0.00000000000E+00 -0.15218446638E+03  0.15218976545E+03  0.12700000000E+01 0. -1.
         25    2    1    2    0    0  0.00000000000E+00  0.00000000000E+00 -0.12653838029E+03  0.17786727763E+03  0.12499922706E+03 0.  0.
    9000005    1    3    3    0    0 -0.32266666784E+02 -0.53461681120E+02 -0.59809187473E+02  0.86472122905E+02  0.10000000000E+01 0.  0.
    9000005    1    3    3    0    0  0.32266666784E+02  0.53461681120E+02 -0.66729192816E+02  0.91395154726E+02  0.10000000000E+01 0.  0.
<mgrwt>
<rscale>  0 0.12499923E+03</rscale>
<asrwt>0</asrwt>
<pdfrwt beam="2">  1        4 0.23415819E-01 0.12499923E+03</pdfrwt>
<pdfrwt beam="1">  1       -4 0.39483768E-02 0.12499923E+03</pdfrwt>
<totfact> 0.94003944E+03</totfact>
</mgrwt>
</event>
<event>
 5    1  0.3331626E-002  0.1250045E+03  0.7818608E-02  0.1235062E+00
          4   -1    0    0  501    0  0.00000000000E+00  0.00000000000E+00  0.12358194422E+02  0.12423279332E+02  0.12700000000E+01 0.  1.
         -4   -1    0    0    0  501 -0.00000000000E+00 -0.00000000000E+00 -0.31521222404E+03  0.31521478246E+03  0.12700000000E+01 0.  1.
         25    2    1    2    0    0  0.00000000000E+00  0.00000000000E+00 -0.30285402962E+03  0.32763806179E+03  0.12500454505E+03 0.  0.
    9000005    1    3    3    0    0  0.20448464956E+02 -0.88468870186E+01 -0.30446179029E+03  0.30527756038E+03  0.10000000000E+01 0.  0.
    9000005    1    3    3    0    0 -0.20448464956E+02  0.88468870186E+01  0.16077606714E+01  0.22360501411E+02  0.10000000000E+01 0.  0.
<mgrwt>
<rscale>  0 0.12500455E+03</rscale>
<asrwt>0</asrwt>
<pdfrwt beam="1">  1        4 0.19064643E-02 0.12500455E+03</pdfrwt>
<pdfrwt beam="2">  1       -4 0.48499386E-01 0.12500455E+03</pdfrwt>
<totfact> 0.72249521E+03</totfact>
</mgrwt>
</event>
<event>
 5    1  0.3331626E-002  0.1249981E+03  0.7818608E-02  0.1235072E+00
          4   -1    0    0  501    0  0.00000000000E+00  0.00000000000E+00  0.76932233437E+03  0.76932338263E+03  0.12700000000E+01 0. -1.
         -4   -1    0    0    0  501 -0.00000000000E+00 -0.00000000000E+00 -0.49968798468E+01  0.51557451647E+01  0.12700000000E+01 0. -1.
         25    2    1    2    0    0  0.00000000000E+00  0.00000000000E+00  0.76432545452E+03  0.77447912779E+03  0.12499807581E+03 0.  0.
    9000005    1    3    3    0    0  0.61825830218E+02 -0.31596396594E+01  0.32932880866E+03  0.33509831515E+03  0.10000000000E+01 0.  0.
    9000005    1    3    3    0    0 -0.61825830218E+02  0.31596396594E+01  0.43499664587E+03  0.43938081265E+03  0.10000000000E+01 0.  0.
<mgrwt>
<rscale>  0 0.12499808E+03</rscale>
<asrwt>0</asrwt>
<pdfrwt beam="1">  1        4 0.11836954E+00 0.12499808E+03</pdfrwt>
<pdfrwt beam="2">  1       -4 0.78105210E-03 0.12499808E+03</pdfrwt>
<totfact> 0.39431395E+03</totfact>
</mgrwt>
</event>
<event>
 5    1  0.3331626E-002  0.1249972E+03  0.7818608E-02  0.1235074E+00
         -4   -1    0    0    0  501 -0.00000000000E+00  0.00000000000E+00  0.36722858904E+03  0.36723078507E+03  0.12700000000E+01 0. -1.
          4   -1    0    0  501    0  0.00000000000E+00 -0.00000000000E+00 -0.10596485814E+02  0.10672319879E+02  0.12700000000E+01 0. -1.
         25    2    1    2    0    0  0.00000000000E+00  0.00000000000E+00  0.35663210322E+03  0.37790310495E+03  0.12499719870E+03 0.  0.
    9000005    1    3    3    0    0  0.59360261040E+02  0.18795591324E+02  0.19435947700E+03  0.20409194287E+03  0.10000000000E+01 0.  0.
    9000005    1    3    3    0    0 -0.59360261040E+02 -0.18795591324E+02  0.16227262622E+03  0.17381116208E+03  0.10000000000E+01 0.  0.
<mgrwt>
<rscale>  0 0.12499720E+03</rscale>
<asrwt>0</asrwt>
<pdfrwt beam="2">  1        4 0.16362309E-02 0.12499720E+03</pdfrwt>
<pdfrwt beam="1">  1       -4 0.56502709E-01 0.12499720E+03</pdfrwt>
<totfact> 0.66764281E+03</totfact>
</mgrwt>
</event>
<event>
 5    1  0.3331626E-002  0.1250017E+03  0.7818608E-02  0.1235067E+00
          4   -1    0    0  501    0  0.00000000000E+00  0.00000000000E+00  0.52079216852E+03  0.52079371703E+03  0.12700000000E+01 0.  1.
         -4   -1    0    0    0  501 -0.00000000000E+00 -0.00000000000E+00 -0.74454686190E+01  0.75530062198E+01  0.12700000000E+01 0.  1.
         25    2    1    2    0    0  0.00000000000E+00  0.00000000000E+00  0.51334669991E+03  0.52834672325E+03  0.12500170264E+03 0.  0.
    9000005    1    3    3    0    0 -0.48357764921E+02 -0.22204293639E+02  0.11816518611E+03  0.12959751268E+03  0.10000000000E+01 0.  0.
    9000005    1    3    3    0    0  0.48357764921E+02  0.22204293639E+02  0.39518151380E+03  0.39874921057E+03  0.10000000000E+01 0.  0.
<mgrwt>
<rscale>  0 0.12500170E+03</rscale>
<asrwt>0</asrwt>
<pdfrwt beam="1">  1        4 0.80130282E-01 0.12500170E+03</pdfrwt>
<pdfrwt beam="2">  1       -4 0.11538477E-02 0.12500170E+03</pdfrwt>
<totfact> 0.53728167E+03</totfact>
</mgrwt>
</event>
<event>
 5    1  0.3331626E-002  0.1250070E+03  0.7818608E-02  0.1235058E+00
          4   -1    0    0  501    0  0.00000000000E+00  0.00000000000E+00  0.43733330567E+02  0.43751766850E+02  0.12700000000E+01 0. -1.
         -4   -1    0    0    0  501 -0.00000000000E+00 -0.00000000000E+00 -0.89288029139E+02  0.89297060688E+02  0.12700000000E+01 0. -1.
         25    2    1    2    0    0  0.00000000000E+00  0.00000000000E+00 -0.45554698572E+02  0.13304882754E+03  0.12500703959E+03 0.  0.
    9000005    1    3    3    0    0  0.39729441061E+02 -0.28057607799E+02  0.18990438564E+02  0.52223506195E+02  0.10000000000E+01 0.  0.
    9000005    1    3    3    0    0 -0.39729441061E+02  0.28057607799E+02 -0.64545137136E+02  0.80825321344E+02  0.10000000000E+01 0.  0.
<mgrwt>
<rscale>  0 0.12500704E+03</rscale>
<asrwt>0</asrwt>
<pdfrwt beam="1">  1        4 0.67303176E-02 0.12500704E+03</pdfrwt>
<pdfrwt beam="2">  1       -4 0.13738733E-01 0.12500704E+03</pdfrwt>
<totfact> 0.10277730E+04</totfact>
</mgrwt>
</event>
<event>
 5    1  0.3331626E-002  0.1250036E+03  0.7818608E-02  0.1235064E+00
         -4   -1    0    0    0  501 -0.00000000000E+00  0.00000000000E+00  0.10481633443E+03  0.10482402808E+03  0.12700000000E+01 0.  1.
          4   -1    0    0  501    0  0.00000000000E+00 -0.00000000000E+00 -0.37249808193E+02  0.37271451681E+02  0.12700000000E+01 0.  1.
         25    2    1    2    0    0  0.00000000000E+00  0.00000000000E+00  0.67566526236E+02  0.14209547976E+03  0.12500355955E+03 0.  0.
    9000005    1    3    3    0    0  0.46682854584E+02  0.27120614093E+02  0.69561529061E+02  0.88060336963E+02  0.10000000000E+01 0.  0.
    9000005    1    3    3    0    0 -0.46682854584E+02 -0.27120614093E+02 -0.19950028248E+01  0.54035142798E+02  0.10000000000E+01 0.  0.
<mgrwt>
<rscale>  0 0.12500356E+03</rscale>
<asrwt>0</asrwt>
<pdfrwt beam="2">  1        4 0.57329964E-02 0.12500356E+03</pdfrwt>
<pdfrwt beam="1">  1       -4 0.16127847E-01 0.12500356E+03</pdfrwt>
<totfact> 0.10089530E+04</totfact>
</mgrwt>
</event>
<event>
 5    1  0.3331626E-002  0.1249923E+03  0.7818608E-02  0.1235081E+00
         -4   -1    0    0    0  501 -0.00000000000E+00  0.00000000000E+00  0.26763231314E+02  0.26793347129E+02  0.12700000000E+01 0. -1.
          4   -1    0    0  501    0  0.00000000000E+00 -0.00000000000E+00 -0.14582301239E+03  0.14582854262E+03  0.12700000000E+01 0. -1.
         25    2    1    2    0    0  0.00000000000E+00  0.00000000000E+00 -0.11905978108E+03  0.17262188975E+03  0.12499234117E+03 0.  0.
    9000005    1    3    3    0    0 -0.30281822728E+02 -0.82202191928E+01  0.15101158547E+02  0.34836845161E+02  0.10000000000E+01 0.  0.
    9000005    1    3    3    0    0  0.30281822728E+02  0.82202191928E+01 -0.13416093962E+03  0.13778504459E+03  0.10000000000E+01 0.  0.
<mgrwt>
<rscale>  0 0.12499234E+03</rscale>
<asrwt>0</asrwt>
<pdfrwt beam="2">  1        4 0.22437051E-01 0.12499234E+03</pdfrwt>
<pdfrwt beam="1">  1       -4 0.41201623E-02 0.12499234E+03</pdfrwt>
<totfact> 0.94978521E+03</totfact>
</mgrwt>
</event>
<event>
 5    1  0.3331626E-002  0.1249973E+03  0.7818608E-02  0.1235073E+00
         -4   -1    0    0    0  501 -0.00000000000E+00  0.00000000000E+00  0.88516816569E+02  0.88525926798E+02  0.12700000000E+01 0. -1.
          4   -1    0    0  501    0  0.00000000000E+00 -0.00000000000E+00 -0.44107616444E+02  0.44125896346E+02  0.12700000000E+01 0. -1.
         25    2    1    2    0    0  0.00000000000E+00  0.00000000000E+00  0.44409200125E+02  0.13265182314E+03  0.12499731648E+03 0.  0.
    9000005    1    3    3    0    0 -0.32740028859E+02  0.29663088974E+02 -0.24697696921E+02  0.50623952536E+02  0.10000000000E+01 0.  0.
    9000005    1    3    3    0    0  0.32740028859E+02 -0.29663088974E+02  0.69106897046E+02  0.82027870608E+02  0.10000000000E+01 0.  0.
<mgrwt>
<rscale>  0 0.12499732E+03</rscale>
<asrwt>0</asrwt>
<pdfrwt beam="2">  1        4 0.67878941E-02 0.12499732E+03</pdfrwt>
<pdfrwt beam="1">  1       -4 0.13620079E-01 0.12499732E+03</pdfrwt>
<totfact> 0.10288428E+04</totfact>
</mgrwt>
</event>
<event>
 5    1  0.3331626E-002  0.1249993E+03  0.7818608E-02  0.1235070E+00
         -4   -1    0    0    0  501 -0.00000000000E+00  0.00000000000E+00  0.68612516239E+02  0.68624268919E+02  0.12700000000E+01 0. -1.
          4   -1    0    0  501    0  0.00000000000E+00 -0.00000000000E+00 -0.56907686767E+02  0.56921856200E+02  0.12700000000E+01 0. -1.
         25    2    1    2    0    0  0.00000000000E+00  0.00000000000E+00  0.11704829472E+02  0.12554612512E+03  0.12499930600E+03 0.  0.
    9000005    1    3    3    0    0 -0.55332850530E+02  0.25294092753E+02  0.20186889689E+02  0.64109484410E+02  0.10000000000E+01 0.  0.
    9000005    1    3    3    0    0  0.55332850530E+02 -0.25294092753E+02 -0.84820602176E+01  0.61436640708E+02  0.10000000000E+01 0.  0.
<mgrwt>
<rscale>  0 0.12499931E+03</rscale>
<asrwt>0</asrwt>
<pdfrwt beam="2">  1        4 0.87570228E-02 0.12499931E+03</pdfrwt>
<pdfrwt beam="1">  1       -4 0.10557766E-01 0.12499931E+03</pdfrwt>
<totfact> 0.10441099E+04</totfact>
</mgrwt>
</event>
<event>
 5    1  0.3331626E-002  0.1250007E+03  0.7818608E-02  0.1235068E+00
         -4   -1    0    0    0  501 -0.00000000000E+00  0.00000000000E+00  0.36142596082E+02  0.36164902205E+02  0.12700000000E+01 0.  1.
          4   -1    0    0  501    0  0.00000000000E+00 -0.00000000000E+00 -0.10802065316E+03  0.10802811860E+03  0.12700000000E+01 0.  1.
         25    2    1    2    0    0  0.00000000000E+00  0.00000000000E+00 -0.71878057076E+02  0.14419302081E+03  0.12500068864E+03 0.  0.
    9000005    1    3    3    0    0  0.37276311808E+02  0.26874317083E+02  0.12913545637E+02  0.47744235271E+02  0.10000000000E+01 0.  0.
    9000005    1    3    3    0    0 -0.37276311808E+02 -0.26874317083E+02 -0.84791602713E+02  0.96448785536E+02  0.10000000000E+01 0.  0.
<mgrwt>
<rscale>  0 0.12500069E+03</rscale>
<asrwt>0</asrwt>
<pdfrwt beam="2">  1        4 0.16620852E-01 0.12500069E+03</pdfrwt>
<pdfrwt beam="1">  1       -4 0.55626896E-02 0.12500069E+03</pdfrwt>
<totfact> 0.10047254E+04</totfact>
</mgrwt>
</event>
<event>
 5    1  0.3331626E-002  0.1250010E+03  0.7818608E-02  0.1235068E+00
         -4   -1    0    0    0  501 -0.00000000000E+00  0.00000000000E+00  0.32966518852E+02  0.32990972480E+02  0.12700000000E+01 0. -1.
          4   -1    0    0  501    0  0.00000000000E+00 -0.00000000000E+00 -0.11842144573E+03  0.11842825554E+03  0.12700000000E+01 0. -1.
         25    2    1    2    0    0  0.00000000000E+00  0.00000000000E+00 -0.85454926882E+02  0.15141922802E+03  0.12500095234E+03 0.  0.
    9000005    1    3    3    0    0 -0.61731658538E+02 -0.88314188947E+01 -0.47650636085E+02  0.78488054791E+02  0.10000000000E+01 0.  0.
    9000005    1    3    3    0    0  0.61731658538E+02  0.88314188947E+01 -0.37804290797E+02  0.72931173227E+02  0.10000000000E+01 0.  0.
<mgrwt>
<rscale>  0 0.12500095E+03</rscale>
<asrwt>0</asrwt>
<pdfrwt beam="2">  1        4 0.18221089E-01 0.12500095E+03</pdfrwt>
<pdfrwt beam="1">  1       -4 0.50741771E-02 0.12500095E+03</pdfrwt>
<totfact> 0.99019423E+03</totfact>
</mgrwt>
</event>
<event>
 5    1  0.3331626E-002  0.1249897E+03  0.7818608E-02  0.1235085E+00
          4   -1    0    0  501    0  0.00000000000E+00  0.00000000000E+00  0.15098504856E+02  0.15151823286E+02  0.12700000000E+01 0.  1.
         -4   -1    0    0    0  501 -0.00000000000E+00 -0.00000000000E+00 -0.25816408079E+03  0.25816720456E+03  0.12700000000E+01 0.  1.
         25    2    1    2    0    0  0.00000000000E+00  0.00000000000E+00 -0.24306557593E+03  0.27331902784E+03  0.12498966668E+03 0.  0.
    9000005    1    3    3    0    0 -0.24949767843E+02 -0.49068549512E+02 -0.18619469803E+03  0.19416405188E+03  0.10000000000E+01 0.  0.
    9000005    1    3    3    0    0  0.24949767843E+02  0.49068549512E+02 -0.56870877896E+02  0.79154975960E+02  0.10000000000E+01 0.  0.
<mgrwt>
<rscale>  0 0.12498967E+03</rscale>
<asrwt>0</asrwt>
<pdfrwt beam="1">  1        4 0.23271888E-02 0.12498967E+03</pdfrwt>
<pdfrwt beam="2">  1       -4 0.39721889E-01 0.12498967E+03</pdfrwt>
<totfact> 0.79090550E+03</totfact>
</mgrwt>
</event>
<event>
 5    1  0.3331626E-002  0.1250000E+03  0.7818608E-02  0.1235069E+00
          4   -1    0    0  501    0  0.00000000000E+00  0.00000000000E+00  0.10672552219E+03  0.10673307822E+03  0.12700000000E+01 0.  1.
         -4   -1    0    0    0  501 -0.00000000000E+00 -0.00000000000E+00 -0.36581015082E+02  0.36603054032E+02  0.12700000000E+01 0.  1.
         25    2    1    2    0    0  0.00000000000E+00  0.00000000000E+00  0.70144507109E+02  0.14333613226E+03  0.12499997973E+03 0.  0.
    9000005    1    3    3    0    0 -0.54850744921E+02 -0.28229965538E+02  0.46522711356E+02  0.77271584976E+02  0.10000000000E+01 0.  0.
    9000005    1    3    3    0    0  0.54850744921E+02  0.28229965538E+02  0.23621795753E+02  0.66064547280E+02  0.10000000000E+01 0.  0.
<mgrwt>
<rscale>  0 0.12499998E+03</rscale>
<asrwt>0</asrwt>
<pdfrwt beam="1">  1        4 0.16421588E-01 0.12499998E+03</pdfrwt>
<pdfrwt beam="2">  1       -4 0.56301250E-02 0.12499998E+03</pdfrwt>
<totfact> 0.10064909E+04</totfact>
</mgrwt>
</event>
<event>
 5    1  0.3331626E-002  0.1250107E+03  0.7818608E-02  0.1235053E+00
          4   -1    0    0  501    0  0.00000000000E+00  0.00000000000E+00  0.16622295094E+03  0.16622780249E+03  0.12700000000E+01 0.  1.
         -4   -1    0    0    0  501 -0.00000000000E+00 -0.00000000000E+00 -0.23481722918E+02  0.23516041571E+02  0.12700000000E+01 0.  1.
         25    2    1    2    0    0  0.00000000000E+00  0.00000000000E+00  0.14274122802E+03  0.18974384406E+03  0.12501067227E+03 0.  0.
    9000005    1    3    3    0    0  0.43959554988E+02 -0.38965816714E+02  0.38989412248E+02  0.70512067155E+02  0.10000000000E+01 0.  0.
    9000005    1    3    3    0    0 -0.43959554988E+02  0.38965816714E+02  0.10375181577E+03  0.11923177690E+03  0.10000000000E+01 0.  0.
<mgrwt>
<rscale>  0 0.12501067E+03</rscale>
<asrwt>0</asrwt>
<pdfrwt beam="1">  1        4 0.25575773E-01 0.12501067E+03</pdfrwt>
<pdfrwt beam="2">  1       -4 0.36155860E-02 0.12501067E+03</pdfrwt>
<totfact> 0.91869940E+03</totfact>
</mgrwt>
</event>
<event>
 5    1  0.3331626E-002  0.1250067E+03  0.7818608E-02  0.1235059E+00
         -4   -1    0    0    0  501 -0.00000000000E+00  0.00000000000E+00  0.28000282535E+03  0.28000570548E+03  0.12700000000E+01 0.  1.
          4   -1    0    0  501    0  0.00000000000E+00 -0.00000000000E+00 -0.13920392932E+02  0.13978205871E+02  0.12700000000E+01 0.  1.
         25    2    1    2    0    0  0.00000000000E+00  0.00000000000E+00  0.26608243241E+03  0.29398391135E+03  0.12500671700E+03 0.  0.
    9000005    1    3    3    0    0  0.23357225739E-01 -0.45768434698E+02  0.23311949012E+03  0.23757198243E+03  0.10000000000E+01 0.  0.
    9000005    1    3    3    0    0 -0.23357225739E-01  0.45768434698E+02  0.32962942293E+02  0.56411928924E+02  0.10000000000E+01 0.  0.
<mgrwt>
<rscale>  0 0.12500672E+03</rscale>
<asrwt>0</asrwt>
<pdfrwt beam="2">  1        4 0.21462677E-02 0.12500672E+03</pdfrwt>
<pdfrwt beam="1">  1       -4 0.43082025E-01 0.12500672E+03</pdfrwt>
<totfact> 0.76348346E+03</totfact>
</mgrwt>
</event>
<event>
 5    1  0.3331626E-002  0.1250042E+03  0.7818608E-02  0.1235063E+00
         -4   -1    0    0    0  501 -0.00000000000E+00  0.00000000000E+00  0.40894123026E+02  0.40913838711E+02  0.12700000000E+01 0. -1.
          4   -1    0    0  501    0  0.00000000000E+00 -0.00000000000E+00 -0.95480466060E+02  0.95488911916E+02  0.12700000000E+01 0. -1.
         25    2    1    2    0    0  0.00000000000E+00  0.00000000000E+00 -0.54586343033E+02  0.13640275063E+03  0.12500416606E+03 0.  0.
    9000005    1    3    3    0    0 -0.91432939786E+01  0.47345538833E+02 -0.70671204574E+02  0.85560616104E+02  0.10000000000E+01 0.  0.
    9000005    1    3    3    0    0  0.91432939786E+01 -0.47345538833E+02  0.16084861540E+02  0.50842134524E+02  0.10000000000E+01 0.  0.
<mgrwt>
<rscale>  0 0.12500417E+03</rscale>
<asrwt>0</asrwt>
<pdfrwt beam="2">  1        4 0.14691469E-01 0.12500417E+03</pdfrwt>
<pdfrwt beam="1">  1       -4 0.62935699E-02 0.12500417E+03</pdfrwt>
<totfact> 0.10207629E+04</totfact>
</mgrwt>
</event>
<event>
 5    1  0.3331626E-002  0.1249985E+03  0.7818608E-02  0.1235072E+00
          4   -1    0    0  501    0  0.00000000000E+00  0.00000000000E+00  0.20967008105E+03  0.20967392729E+03  0.12700000000E+01 0. -1.
         -4   -1    0    0    0  501 -0.00000000000E+00 -0.00000000000E+00 -0.18604341559E+02  0.18647638586E+02  0.12700000000E+01 0. -1.
         25    2    1    2    0    0  0.00000000000E+00  0.00000000000E+00  0.19106573949E+03  0.22832156588E+03  0.12499848255E+03 0.  0.
    9000005    1    3    3    0    0 -0.10531787747E+02 -0.61550375858E+02  0.99927277885E+02  0.11783814402E+03  0.10000000000E+01 0.  0.
    9000005    1    3    3    0    0  0.10531787747E+02  0.61550375858E+02  0.91138461603E+02  0.11048342186E+03  0.10000000000E+01 0.  0.
<mgrwt>
<rscale>  0 0.12499848E+03</rscale>
<asrwt>0</asrwt>
<pdfrwt beam="1">  1        4 0.32260561E-01 0.12499848E+03</pdfrwt>
<pdfrwt beam="2">  1       -4 0.28658329E-02 0.12499848E+03</pdfrwt>
<totfact> 0.85570888E+03</totfact>
</mgrwt>
</event>
<event>
 5    1  0.3331626E-002  0.1250006E+03  0.7818608E-02  0.1235068E+00
         -4   -1    0    0    0  501 -0.00000000000E+00  0.00000000000E+00  0.14028858017E+03  0.14029432856E+03  0.12700000000E+01 0.  1.
          4   -1    0    0  501    0  0.00000000000E+00 -0.00000000000E+00 -0.27823838613E+02  0.27852807671E+02  0.12700000000E+01 0.  1.
         25    2    1    2    0    0  0.00000000000E+00  0.00000000000E+00  0.11246474156E+03  0.16814713623E+03  0.12500056532E+03 0.  0.
    9000005    1    3    3    0    0 -0.57560087986E+01 -0.61610345806E+02  0.67983883913E+02  0.91933534793E+02  0.10000000000E+01 0.  0.
    9000005    1    3    3    0    0  0.57560087986E+01  0.61610345806E+02  0.44480857647E+02  0.76213601441E+02  0.10000000000E+01 0.  0.
<mgrwt>
<rscale>  0 0.12500057E+03</rscale>
<asrwt>0</asrwt>
<pdfrwt beam="2">  1        4 0.42832611E-02 0.12500057E+03</pdfrwt>
<pdfrwt beam="1">  1       -4 0.21585529E-01 0.12500057E+03</pdfrwt>
<totfact> 0.95793456E+03</totfact>
</mgrwt>
</event>
<event>
 5    1  0.3331626E-002  0.1249931E+03  0.7818608E-02  0.1235080E+00
         -4   -1    0    0    0  501 -0.00000000000E+00  0.00000000000E+00  0.15252004525E+03  0.15252533266E+03  0.12700000000E+01 0.  1.
          4   -1    0    0  501    0  0.00000000000E+00 -0.00000000000E+00 -0.25587090999E+02  0.25618589458E+02  0.12700000000E+01 0.  1.
         25    2    1    2    0    0  0.00000000000E+00  0.00000000000E+00  0.12693295425E+03  0.17814392211E+03  0.12499312826E+03 0.  0.
    9000005    1    3    3    0    0 -0.23094663217E+02  0.51083911111E+02  0.24126752271E+02  0.61041212461E+02  0.10000000000E+01 0.  0.
    9000005    1    3    3    0    0  0.23094663217E+02 -0.51083911111E+02  0.10280620198E+03  0.11710270965E+03  0.10000000000E+01 0.  0.
<mgrwt>
<rscale>  0 0.12499313E+03</rscale>
<asrwt>0</asrwt>
<pdfrwt beam="2">  1        4 0.39393053E-02 0.12499313E+03</pdfrwt>
<pdfrwt beam="1">  1       -4 0.23467452E-01 0.12499313E+03</pdfrwt>
<totfact> 0.93966654E+03</totfact>
</mgrwt>
</event>
<event>
 5    1  0.3331626E-002  0.1249685E+03  0.7818608E-02  0.1235118E+00
          4   -1    0    0  501    0  0.00000000000E+00  0.00000000000E+00  0.13483211918E+03  0.13483810019E+03  0.12700000000E+01 0.  1.
         -4   -1    0    0    0  501 -0.00000000000E+00 -0.00000000000E+00 -0.28936068389E+02  0.28963925041E+02  0.12700000000E+01 0.  1.
         25    2    1    2    0    0  0.00000000000E+00  0.00000000000E+00  0.10589605079E+03  0.16380202523E+03  0.12496851562E+03 0.  0.
    9000005    1    3    3    0    0 -0.11257493955E+02 -0.35521457220E+02  0.11867875130E+03  0.12439514099E+03  0.10000000000E+01 0.  0.
    9000005    1    3    3    0    0  0.11257493955E+02  0.35521457220E+02 -0.12782700505E+02  0.39406884238E+02  0.10000000000E+01 0.  0.
<mgrwt>
<rscale>  0 0.12496852E+03</rscale>
<asrwt>0</asrwt>
<pdfrwt beam="1">  1        4 0.20746006E-01 0.12496852E+03</pdfrwt>
<pdfrwt beam="2">  1       -4 0.44543057E-02 0.12496852E+03</pdfrwt>
<totfact> 0.96683127E+03</totfact>
</mgrwt>
</event>
<event>
 5    1  0.3331626E-002  0.1250041E+03  0.7818608E-02  0.1235063E+00
          4   -1    0    0  501    0  0.00000000000E+00  0.00000000000E+00  0.61417742166E+03  0.61417873472E+03  0.12700000000E+01 0. -1.
         -4   -1    0    0    0  501 -0.00000000000E+00 -0.00000000000E+00 -0.62958253950E+01  0.64226409992E+01  0.12700000000E+01 0. -1.
         25    2    1    2    0    0  0.00000000000E+00  0.00000000000E+00  0.60788159627E+03  0.62060137572E+03  0.12500412978E+03 0.  0.
    9000005    1    3    3    0    0  0.53271255509E+02 -0.24769960665E+02  0.40973910280E+03  0.41393056178E+03  0.10000000000E+01 0.  0.
    9000005    1    3    3    0    0 -0.53271255509E+02  0.24769960665E+02  0.19814249347E+03  0.20667081394E+03  0.10000000000E+01 0.  0.
<mgrwt>
<rscale>  0 0.12500413E+03</rscale>
<asrwt>0</asrwt>
<pdfrwt beam="1">  1        4 0.94498718E-01 0.12500413E+03</pdfrwt>
<pdfrwt beam="2">  1       -4 0.97844429E-03 0.12500413E+03</pdfrwt>
<totfact> 0.47588171E+03</totfact>
</mgrwt>
</event>
<event>
 5    1  0.3331626E-002  0.1249974E+03  0.7818608E-02  0.1235073E+00
         -4   -1    0    0    0  501 -0.00000000000E+00  0.00000000000E+00  0.60815573661E+02  0.60828832799E+02  0.12700000000E+01 0.  1.
          4   -1    0    0  501    0  0.00000000000E+00 -0.00000000000E+00 -0.64201876189E+02  0.64214436120E+02  0.12700000000E+01 0.  1.
         25    2    1    2    0    0  0.00000000000E+00  0.00000000000E+00 -0.33863025279E+01  0.12504326892E+03  0.12499740820E+03 0.  0.
    9000005    1    3    3    0    0 -0.42740118167E+02  0.29468990688E+02 -0.36490233160E+02  0.63463975838E+02  0.10000000000E+01 0.  0.
    9000005    1    3    3    0    0  0.42740118167E+02 -0.29468990688E+02  0.33103930632E+02  0.61579293081E+02  0.10000000000E+01 0.  0.
<mgrwt>
<rscale>  0 0.12499741E+03</rscale>
<asrwt>0</asrwt>
<pdfrwt beam="2">  1        4 0.98791978E-02 0.12499741E+03</pdfrwt>
<pdfrwt beam="1">  1       -4 0.93582282E-02 0.12499741E+03</pdfrwt>
<totfact> 0.10452535E+04</totfact>
</mgrwt>
</event>
<event>
 5    1  0.3331626E-002  0.1249980E+03  0.7818608E-02  0.1235072E+00
          4   -1    0    0  501    0  0.00000000000E+00  0.00000000000E+00  0.12368006286E+03  0.12368658314E+03  0.12700000000E+01 0. -1.
         -4   -1    0    0    0  501 -0.00000000000E+00 -0.00000000000E+00 -0.31562360848E+02  0.31587901518E+02  0.12700000000E+01 0. -1.
         25    2    1    2    0    0  0.00000000000E+00  0.00000000000E+00  0.92117702009E+02  0.15527448465E+03  0.12499797823E+03 0.  0.
    9000005    1    3    3    0    0  0.20763403598E+02  0.55276297170E+02  0.20645417022E+02  0.62560540294E+02  0.10000000000E+01 0.  0.
    9000005    1    3    3    0    0 -0.20763403598E+02 -0.55276297170E+02  0.71472284987E+02  0.92713944361E+02  0.10000000000E+01 0.  0.
<mgrwt>
<rscale>  0 0.12499798E+03</rscale>
<asrwt>0</asrwt>
<pdfrwt beam="1">  1        4 0.19030168E-01 0.12499798E+03</pdfrwt>
<pdfrwt beam="2">  1       -4 0.48582141E-02 0.12499798E+03</pdfrwt>
<totfact> 0.98266109E+03</totfact>
</mgrwt>
</event>
<event>
 5    1  0.3331626E-002  0.1250113E+03  0.7818608E-02  0.1235052E+00
         -4   -1    0    0    0  501 -0.00000000000E+00  0.00000000000E+00  0.84912812056E+03  0.84912907030E+03  0.12700000000E+01 0.  1.
          4   -1    0    0  501    0  0.00000000000E+00 -0.00000000000E+00 -0.45125358719E+01  0.46878438536E+01  0.12700000000E+01 0.  1.
         25    2    1    2    0    0  0.00000000000E+00  0.00000000000E+00  0.84461558469E+03  0.85381691416E+03  0.12501134746E+03 0.  0.
    9000005    1    3    3    0    0 -0.14162523518E+02 -0.31141114065E+02  0.77953346462E+03  0.78028441514E+03  0.10000000000E+01 0.  0.
    9000005    1    3    3    0    0  0.14162523518E+02  0.31141114065E+02  0.65082120074E+02  0.73532499012E+02  0.10000000000E+01 0.  0.
<mgrwt>
<rscale>  0 0.12501135E+03</rscale>
<asrwt>0</asrwt>
<pdfrwt beam="2">  1        4 0.70779488E-03 0.12501135E+03</pdfrwt>
<pdfrwt beam="1">  1       -4 0.13064860E+00 0.12501135E+03</pdfrwt>
<totfact> 0.35962740E+03</totfact>
</mgrwt>
</event>
<event>
 5    1  0.3331626E-002  0.1250005E+03  0.7818608E-02  0.1235069E+00
          4   -1    0    0  501    0  0.00000000000E+00  0.00000000000E+00  0.26652999563E+02  0.26683239790E+02  0.12700000000E+01 0.  1.
         -4   -1    0    0    0  501 -0.00000000000E+00 -0.00000000000E+00 -0.14644448173E+03  0.14644998850E+03  0.12700000000E+01 0.  1.
         25    2    1    2    0    0  0.00000000000E+00  0.00000000000E+00 -0.11979148217E+03  0.17313322829E+03  0.12500046214E+03 0.  0.
    9000005    1    3    3    0    0 -0.59593854336E+02 -0.13445306610E+02 -0.41674155992E+02  0.73959036109E+02  0.10000000000E+01 0.  0.
    9000005    1    3    3    0    0  0.59593854336E+02  0.13445306610E+02 -0.78117326179E+02  0.99174192176E+02  0.10000000000E+01 0.  0.
<mgrwt>
<rscale>  0 0.12500046E+03</rscale>
<asrwt>0</asrwt>
<pdfrwt beam="1">  1        4 0.41032113E-02 0.12500046E+03</pdfrwt>
<pdfrwt beam="2">  1       -4 0.22532670E-01 0.12500046E+03</pdfrwt>
<totfact> 0.94866868E+03</totfact>
</mgrwt>
</event>
<event>
 5    1  0.3331626E-002  0.1250030E+03  0.7818608E-02  0.1235065E+00
         -4   -1    0    0    0  501 -0.00000000000E+00  0.00000000000E+00  0.60123725420E+02  0.60137137098E+02  0.12700000000E+01 0.  1.
          4   -1    0    0  501    0  0.00000000000E+00 -0.00000000000E+00 -0.64946412171E+02  0.64958828144E+02  0.12700000000E+01 0.  1.
         25    2    1    2    0    0  0.00000000000E+00  0.00000000000E+00 -0.48226867513E+01  0.12509596524E+03  0.12500296881E+03 0.  0.
    9000005    1    3    3    0    0 -0.29253286054E+02  0.17731058171E+02 -0.54750255834E+02  0.64565746977E+02  0.10000000000E+01 0.  0.
    9000005    1    3    3    0    0  0.29253286054E+02 -0.17731058171E+02  0.49927569082E+02  0.60530218266E+02  0.10000000000E+01 0.  0.
<mgrwt>
<rscale>  0 0.12500297E+03</rscale>
<asrwt>0</asrwt>
<pdfrwt beam="2">  1        4 0.99937425E-02 0.12500297E+03</pdfrwt>
<pdfrwt beam="1">  1       -4 0.92517907E-02 0.12500297E+03</pdfrwt>
<totfact> 0.10450077E+04</totfact>
</mgrwt>
</event>
<event>
 5    1  0.3331626E-002  0.1250010E+03  0.7818608E-02  0.1235068E+00
         -4   -1    0    0    0  501 -0.00000000000E+00  0.00000000000E+00  0.76042661689E+02  0.76053266181E+02  0.12700000000E+01 0. -1.
          4   -1    0    0  501    0  0.00000000000E+00 -0.00000000000E+00 -0.51347996888E+02  0.51363700066E+02  0.12700000000E+01 0. -1.
         25    2    1    2    0    0  0.00000000000E+00  0.00000000000E+00  0.24694664801E+02  0.12741696625E+03  0.12500102727E+03 0.  0.
    9000005    1    3    3    0    0 -0.52786973543E+02 -0.28862025625E+02 -0.48860268777E+01  0.60368488119E+02  0.10000000000E+01 0.  0.
    9000005    1    3    3    0    0  0.52786973543E+02  0.28862025625E+02  0.29580691679E+02  0.67048478128E+02  0.10000000000E+01 0.  0.
<mgrwt>
<rscale>  0 0.12500103E+03</rscale>
<asrwt>0</asrwt>
<pdfrwt beam="2">  1        4 0.79017155E-02 0.12500103E+03</pdfrwt>
<pdfrwt beam="1">  1       -4 0.11700895E-01 0.12500103E+03</pdfrwt>
<totfact> 0.10399858E+04</totfact>
</mgrwt>
</event>
<event>
 5    1  0.3331626E-002  0.1249956E+03  0.7818608E-02  0.1235076E+00
         -4   -1    0    0    0  501 -0.00000000000E+00  0.00000000000E+00  0.10992358042E+03  0.10993091664E+03  0.12700000000E+01 0. -1.
          4   -1    0    0  501    0  0.00000000000E+00 -0.00000000000E+00 -0.35513654295E+02  0.35536355207E+02  0.12700000000E+01 0. -1.
         25    2    1    2    0    0  0.00000000000E+00  0.00000000000E+00  0.74409926125E+02  0.14546727184E+03  0.12499556021E+03 0.  0.
    9000005    1    3    3    0    0 -0.94399963268E+01 -0.61668442104E+02  0.41378737138E+02  0.74868619390E+02  0.10000000000E+01 0.  0.
    9000005    1    3    3    0    0  0.94399963268E+01  0.61668442104E+02  0.33031188987E+02  0.70598652452E+02  0.10000000000E+01 0.  0.
<mgrwt>
<rscale>  0 0.12499556E+03</rscale>
<asrwt>0</asrwt>
<pdfrwt beam="2">  1        4 0.54659498E-02 0.12499556E+03</pdfrwt>
<pdfrwt beam="1">  1       -4 0.16913630E-01 0.12499556E+03</pdfrwt>
<totfact> 0.10022505E+04</totfact>
</mgrwt>
</event>
<event>
 4    1  0.3331626E-002  0.1253299E+03  0.7818608E-02  0.1234555E+00
          4   -1    0    0  501    0  0.00000000000E+00  0.00000000000E+00  0.20554703886E+03  0.20555096225E+03  0.12700000000E+01 0.  1.
         -4   -1    0    0    0  501 -0.00000000000E+00 -0.00000000000E+00 -0.19079387873E+02  0.19121609284E+02  0.12700000000E+01 0.  1.
    9000005    1    1    2    0    0  0.83946551835E+00  0.46283399615E+02  0.16893029292E+03  0.17516078799E+03  0.10000000000E+01 0.  0.
    9000005    1    1    2    0    0 -0.83946551835E+00 -0.46283399615E+02  0.17537358062E+02  0.49511783548E+02  0.10000000000E+01 0.  0.
<mgrwt>
<rscale>  0 0.12532988E+03</rscale>
<asrwt>0</asrwt>
<pdfrwt beam="1">  1        4 0.31626169E-01 0.12532988E+03</pdfrwt>
<pdfrwt beam="2">  1       -4 0.29388402E-02 0.12532988E+03</pdfrwt>
<totfact> 0.85502980E+03</totfact>
</mgrwt>
</event>
<event>
 5    1  0.3331626E-002  0.1249999E+03  0.7818608E-02  0.1235069E+00
         -4   -1    0    0    0  501 -0.00000000000E+00  0.00000000000E+00  0.10203857302E+03  0.10204647610E+03  0.12700000000E+01 0. -1.
          4   -1    0    0  501    0  0.00000000000E+00 -0.00000000000E+00 -0.38262135133E+02  0.38283206305E+02  0.12700000000E+01 0. -1.
         25    2    1    2    0    0  0.00000000000E+00  0.00000000000E+00  0.63776437888E+02  0.14032968240E+03  0.12499994294E+03 0.  0.
    9000005    1    3    3    0    0 -0.91229027563E+01 -0.60707506470E+02  0.18766423263E+02  0.64201303247E+02  0.10000000000E+01 0.  0.
    9000005    1    3    3    0    0  0.91229027563E+01  0.60707506470E+02  0.45010014625E+02  0.76128379157E+02  0.10000000000E+01 0.  0.
<mgrwt>
<rscale>  0 0.12499994E+03</rscale>
<asrwt>0</asrwt>
<pdfrwt beam="2">  1        4 0.58887112E-02 0.12499994E+03</pdfrwt>
<pdfrwt beam="1">  1       -4 0.15700471E-01 0.12499994E+03</pdfrwt>
<totfact> 0.10126771E+04</totfact>
</mgrwt>
</event>
<event>
 5    1  0.3331626E-002  0.1249999E+03  0.7818608E-02  0.1235069E+00
          4   -1    0    0  501    0  0.00000000000E+00  0.00000000000E+00  0.21135767428E+03  0.21136148981E+03  0.12700000000E+01 0. -1.
         -4   -1    0    0    0  501 -0.00000000000E+00 -0.00000000000E+00 -0.18455882509E+02  0.18499526999E+02  0.12700000000E+01 0. -1.
         25    2    1    2    0    0  0.00000000000E+00  0.00000000000E+00  0.19290179177E+03  0.22986101681E+03  0.12499994313E+03 0.  0.
    9000005    1    3    3    0    0  0.11778369102E+02 -0.60961223998E+02  0.10948570513E+03  0.12586945793E+03  0.10000000000E+01 0.  0.
    9000005    1    3    3    0    0 -0.11778369102E+02  0.60961223998E+02  0.83416086634E+02  0.10399155888E+03  0.10000000000E+01 0.  0.
<mgrwt>
<rscale>  0 0.12499994E+03</rscale>
<asrwt>0</asrwt>
<pdfrwt beam="1">  1        4 0.32520217E-01 0.12499994E+03</pdfrwt>
<pdfrwt beam="2">  1       -4 0.28430172E-02 0.12499994E+03</pdfrwt>
<totfact> 0.85331049E+03</totfact>
</mgrwt>
</event>
<event>
 5    1  0.3331626E-002  0.1249987E+03  0.7818608E-02  0.1235071E+00
         -4   -1    0    0    0  501 -0.00000000000E+00  0.00000000000E+00  0.30370683722E+02  0.30397225691E+02  0.12700000000E+01 0.  1.
          4   -1    0    0  501    0  0.00000000000E+00 -0.00000000000E+00 -0.12853059129E+03  0.12853686551E+03  0.12700000000E+01 0.  1.
         25    2    1    2    0    0  0.00000000000E+00  0.00000000000E+00 -0.98159907564E+02  0.15893409121E+03  0.12499871157E+03 0.  0.
    9000005    1    3    3    0    0 -0.26590117641E+02  0.50258149283E+02 -0.16113056271E+02  0.59106230703E+02  0.10000000000E+01 0.  0.
    9000005    1    3    3    0    0  0.26590117641E+02 -0.50258149283E+02 -0.82046851293E+02  0.99827860503E+02  0.10000000000E+01 0.  0.
<mgrwt>
<rscale>  0 0.12499871E+03</rscale>
<asrwt>0</asrwt>
<pdfrwt beam="2">  1        4 0.19776461E-01 0.12499871E+03</pdfrwt>
<pdfrwt beam="1">  1       -4 0.46749373E-02 0.12499871E+03</pdfrwt>
<totfact> 0.97551504E+03</totfact>
</mgrwt>
</event>
<event>
 5    1  0.3331626E-002  0.1249995E+03  0.7818608E-02  0.1235070E+00
         -4   -1    0    0    0  501 -0.00000000000E+00  0.00000000000E+00  0.18469561793E+03  0.18469998425E+03  0.12700000000E+01 0.  1.
          4   -1    0    0  501    0  0.00000000000E+00 -0.00000000000E+00 -0.21125804132E+02  0.21163943399E+02  0.12700000000E+01 0.  1.
         25    2    1    2    0    0  0.00000000000E+00  0.00000000000E+00  0.16356981380E+03  0.20586392765E+03  0.12499949089E+03 0.  0.
    9000005    1    3    3    0    0  0.16777448023E+02 -0.59224690324E+02  0.64033950368E+02  0.88827886983E+02  0.10000000000E+01 0.  0.
    9000005    1    3    3    0    0 -0.16777448023E+02  0.59224690324E+02  0.99535863428E+02  0.11703604067E+03  0.10000000000E+01 0.  0.
<mgrwt>
<rscale>  0 0.12499949E+03</rscale>
<asrwt>0</asrwt>
<pdfrwt beam="2">  1        4 0.32533932E-02 0.12499949E+03</pdfrwt>
<pdfrwt beam="1">  1       -4 0.28417981E-01 0.12499949E+03</pdfrwt>
<totfact> 0.89156856E+03</totfact>
</mgrwt>
</event>
<event>
 5    1  0.3331626E-002  0.1249958E+03  0.7818608E-02  0.1235076E+00
          4   -1    0    0  501    0  0.00000000000E+00  0.00000000000E+00  0.12585925699E+03  0.12586566439E+03  0.12700000000E+01 0.  1.
         -4   -1    0    0    0  501 -0.00000000000E+00 -0.00000000000E+00 -0.31014375236E+02  0.31040366804E+02  0.12700000000E+01 0.  1.
         25    2    1    2    0    0  0.00000000000E+00  0.00000000000E+00  0.94844881758E+02  0.15690603119E+03  0.12499580404E+03 0.  0.
    9000005    1    3    3    0    0 -0.17196641334E+01 -0.27584685020E+01 -0.30914331240E+02  0.31100840330E+02  0.10000000000E+01 0.  0.
    9000005    1    3    3    0    0  0.17196641334E+01  0.27584685020E+01  0.12575921300E+03  0.12580519086E+03  0.10000000000E+01 0.  0.
<mgrwt>
<rscale>  0 0.12499580E+03</rscale>
<asrwt>0</asrwt>
<pdfrwt beam="1">  1        4 0.19365455E-01 0.12499580E+03</pdfrwt>
<pdfrwt beam="2">  1       -4 0.47739345E-02 0.12499580E+03</pdfrwt>
<totfact> 0.97951856E+03</totfact>
</mgrwt>
</event>
<event>
 5    1  0.3331626E-002  0.1249998E+03  0.7818608E-02  0.1235070E+00
         -4   -1    0    0    0  501 -0.00000000000E+00  0.00000000000E+00  0.44984185902E+02  0.45002109742E+02  0.12700000000E+01 0. -1.
          4   -1    0    0  501    0  0.00000000000E+00 -0.00000000000E+00 -0.86795932604E+02  0.86805223440E+02  0.12700000000E+01 0. -1.
         25    2    1    2    0    0  0.00000000000E+00  0.00000000000E+00 -0.41811746702E+02  0.13180733318E+03  0.12499980367E+03 0.  0.
    9000005    1    3    3    0    0 -0.66409776063E+01 -0.50103254748E+02 -0.59660683085E+02  0.78197415724E+02  0.10000000000E+01 0.  0.
    9000005    1    3    3    0    0  0.66409776063E+01  0.50103254748E+02  0.17848936382E+02  0.53609917458E+02  0.10000000000E+01 0.  0.
<mgrwt>
<rscale>  0 0.12499980E+03</rscale>
<asrwt>0</asrwt>
<pdfrwt beam="2">  1        4 0.13355314E-01 0.12499980E+03</pdfrwt>
<pdfrwt beam="1">  1       -4 0.69227374E-02 0.12499980E+03</pdfrwt>
<totfact> 0.10305858E+04</totfact>
</mgrwt>
</event>
<event>
 5    1  0.3331626E-002  0.1249984E+03  0.7818608E-02  0.1235072E+00
          4   -1    0    0  501    0  0.00000000000E+00  0.00000000000E+00  0.27768569152E+03  0.27768859569E+03  0.12700000000E+01 0.  1.
         -4   -1    0    0    0  501 -0.00000000000E+00 -0.00000000000E+00 -0.14035162918E+02  0.14092505034E+02  0.12700000000E+01 0.  1.
         25    2    1    2    0    0  0.00000000000E+00  0.00000000000E+00  0.26365052861E+03  0.29178110073E+03  0.12499843802E+03 0.  0.
    9000005    1    3    3    0    0 -0.37427850916E+02  0.27357364782E+02  0.34011414493E+02  0.57506919130E+02  0.10000000000E+01 0.  0.
    9000005    1    3    3    0    0  0.37427850916E+02 -0.27357364782E+02  0.22963911411E+03  0.23427418160E+03  0.10000000000E+01 0.  0.
<mgrwt>
<rscale>  0 0.12499844E+03</rscale>
<asrwt>0</asrwt>
<pdfrwt beam="1">  1        4 0.42725511E-01 0.12499844E+03</pdfrwt>
<pdfrwt beam="2">  1       -4 0.21638901E-02 0.12499844E+03</pdfrwt>
<totfact> 0.76644162E+03</totfact>
</mgrwt>
</event>
<event>
 5    1  0.3331626E-002  0.1250014E+03  0.7818608E-02  0.1235067E+00
          4   -1    0    0  501    0  0.00000000000E+00  0.00000000000E+00  0.75656731465E+01  0.76715259342E+01  0.12700000000E+01 0. -1.
         -4   -1    0    0    0  501 -0.00000000000E+00 -0.00000000000E+00 -0.51263001855E+03  0.51263159171E+03  0.12700000000E+01 0. -1.
         25    2    1    2    0    0  0.00000000000E+00  0.00000000000E+00 -0.50506434540E+03  0.52030311764E+03  0.12500136492E+03 0.  0.
    9000005    1    3    3    0    0  0.11697675836E+02 -0.26559727120E+02 -0.22164845156E+02  0.36531289129E+02  0.10000000000E+01 0.  0.
    9000005    1    3    3    0    0 -0.11697675836E+02  0.26559727120E+02 -0.48289950024E+03  0.48377182851E+03  0.10000000000E+01 0.  0.
<mgrwt>
<rscale>  0 0.12500136E+03</rscale>
<asrwt>0</asrwt>
<pdfrwt beam="1">  1        4 0.11722137E-02 0.12500136E+03</pdfrwt>
<pdfrwt beam="2">  1       -4 0.78874393E-01 0.12500136E+03</pdfrwt>
<totfact> 0.54321183E+03</totfact>
</mgrwt>
</event>
<event>
 5    1  0.3331626E-002  0.1249996E+03  0.7818608E-02  0.1235070E+00
         -4   -1    0    0    0  501 -0.00000000000E+00  0.00000000000E+00  0.82091793392E+02  0.82101616563E+02  0.12700000000E+01 0.  1.
          4   -1    0    0  501    0  0.00000000000E+00 -0.00000000000E+00 -0.47562491023E+02  0.47579443590E+02  0.12700000000E+01 0.  1.
         25    2    1    2    0    0  0.00000000000E+00  0.00000000000E+00  0.34529302369E+02  0.12968106015E+03  0.12499961856E+03 0.  0.
    9000005    1    3    3    0    0 -0.30524599612E+02  0.51621476930E+02 -0.96317343947E+00  0.59987129995E+02  0.10000000000E+01 0.  0.
    9000005    1    3    3    0    0  0.30524599612E+02 -0.51621476930E+02  0.35492475809E+02  0.69693930159E+02  0.10000000000E+01 0.  0.
<mgrwt>
<rscale>  0 0.12499962E+03</rscale>
<asrwt>0</asrwt>
<pdfrwt beam="2">  1        4 0.73193660E-02 0.12499962E+03</pdfrwt>
<pdfrwt beam="1">  1       -4 0.12631566E-01 0.12499962E+03</pdfrwt>
<totfact> 0.10351424E+04</totfact>
</mgrwt>
</event>
<event>
 5    1  0.3331626E-002  0.1250069E+03  0.7818608E-02  0.1235059E+00
          4   -1    0    0  501    0  0.00000000000E+00  0.00000000000E+00  0.18487909866E+03  0.18488346065E+03  0.12700000000E+01 0.  1.
         -4   -1    0    0    0  501 -0.00000000000E+00 -0.00000000000E+00 -0.21107295709E+02  0.21145468360E+02  0.12700000000E+01 0.  1.
         25    2    1    2    0    0  0.00000000000E+00  0.00000000000E+00  0.16377180295E+03  0.20602892901E+03  0.12500686440E+03 0.  0.
    9000005    1    3    3    0    0 -0.17879412694E+02 -0.31579676294E+02  0.16574258745E+03  0.16967190294E+03  0.10000000000E+01 0.  0.
    9000005    1    3    3    0    0  0.17879412694E+02  0.31579676294E+02 -0.19707844972E+01  0.36357026070E+02  0.10000000000E+01 0.  0.
<mgrwt>
<rscale>  0 0.12500686E+03</rscale>
<asrwt>0</asrwt>
<pdfrwt beam="1">  1        4 0.28446210E-01 0.12500686E+03</pdfrwt>
<pdfrwt beam="2">  1       -4 0.32505482E-02 0.12500686E+03</pdfrwt>
<totfact> 0.89114861E+03</totfact>
</mgrwt>
</event>
<event>
 5    1  0.3331626E-002  0.1249988E+03  0.7818608E-02  0.1235071E+00
          4   -1    0    0  501    0  0.00000000000E+00  0.00000000000E+00  0.51453490634E+03  0.51453647368E+03  0.12700000000E+01 0.  1.
         -4   -1    0    0    0  501 -0.00000000000E+00 -0.00000000000E+00 -0.75369619714E+01  0.76432123978E+01  0.12700000000E+01 0.  1.
         25    2    1    2    0    0  0.00000000000E+00  0.00000000000E+00  0.50699794437E+03  0.52217968608E+03  0.12499883581E+03 0.  0.
    9000005    1    3    3    0    0 -0.37806388274E+02  0.39619529414E+02  0.37925052745E+03  0.38318532420E+03  0.10000000000E+01 0.  0.
    9000005    1    3    3    0    0  0.37806388274E+02 -0.39619529414E+02  0.12774741692E+03  0.13899436188E+03  0.10000000000E+01 0.  0.
<mgrwt>
<rscale>  0 0.12499884E+03</rscale>
<asrwt>0</asrwt>
<pdfrwt beam="1">  1        4 0.79167526E-01 0.12499884E+03</pdfrwt>
<pdfrwt beam="2">  1       -4 0.11678261E-02 0.12499884E+03</pdfrwt>
<totfact> 0.54185023E+03</totfact>
</mgrwt>
</event>
<event>
 5    1  0.3331626E-002  0.1249976E+03  0.7818608E-02  0.1235073E+00
         -4   -1    0    0    0  501 -0.00000000000E+00  0.00000000000E+00  0.29271576982E+02  0.29299114646E+02  0.12700000000E+01 0. -1.
          4   -1    0    0  501    0  0.00000000000E+00 -0.00000000000E+00 -0.13335021862E+03  0.13335626609E+03  0.12700000000E+01 0. -1.
         25    2    1    2    0    0  0.00000000000E+00  0.00000000000E+00 -0.10407864164E+03  0.16265538074E+03  0.12499763693E+03 0.  0.
    9000005    1    3    3    0    0  0.49643773301E+02 -0.15194531175E+02 -0.67798121700E+01  0.52367393083E+02  0.10000000000E+01 0.  0.
    9000005    1    3    3    0    0 -0.49643773301E+02  0.15194531175E+02 -0.97298829468E+02  0.11028798766E+03  0.10000000000E+01 0.  0.
<mgrwt>
<rscale>  0 0.12499764E+03</rscale>
<asrwt>0</asrwt>
<pdfrwt beam="2">  1        4 0.20518001E-01 0.12499764E+03</pdfrwt>
<pdfrwt beam="1">  1       -4 0.45059031E-02 0.12499764E+03</pdfrwt>
<totfact> 0.96838420E+03</totfact>
</mgrwt>
</event>
<event>
 5    1  0.3331626E-002  0.1249994E+03  0.7818608E-02  0.1235070E+00
         -4   -1    0    0    0  501 -0.00000000000E+00  0.00000000000E+00  0.13611565040E+04  0.13611570964E+04  0.12700000000E+01 0.  1.
          4   -1    0    0  501    0  0.00000000000E+00 -0.00000000000E+00 -0.27286465738E+01  0.30097196090E+01  0.12700000000E+01 0.  1.
         25    2    1    2    0    0  0.00000000000E+00  0.00000000000E+00  0.13584278574E+04  0.13641668160E+04  0.12499943308E+03 0.  0.
    9000005    1    3    3    0    0  0.33320014452E+01  0.60777114514E+02  0.83365072378E+03  0.83587049783E+03  0.10000000000E+01 0.  0.
    9000005    1    3    3    0    0 -0.33320014452E+01 -0.60777114514E+02  0.52477713360E+03  0.52829631821E+03  0.10000000000E+01 0.  0.
<mgrwt>
<rscale>  0 0.12499943E+03</rscale>
<asrwt>0</asrwt>
<pdfrwt beam="2">  1        4 0.44145869E-03 0.12499943E+03</pdfrwt>
<pdfrwt beam="1">  1       -4 0.20943020E+00 0.12499943E+03</pdfrwt>
<totfact> 0.20762988E+03</totfact>
</mgrwt>
</event>
<event>
 5    1  0.3331626E-002  0.1250006E+03  0.7818608E-02  0.1235068E+00
         -4   -1    0    0    0  501 -0.00000000000E+00  0.00000000000E+00  0.98086783425E+02  0.98095004881E+02  0.12700000000E+01 0. -1.
          4   -1    0    0  501    0  0.00000000000E+00 -0.00000000000E+00 -0.39804791680E+02  0.39825046650E+02  0.12700000000E+01 0. -1.
         25    2    1    2    0    0  0.00000000000E+00  0.00000000000E+00  0.58281991745E+02  0.13792005153E+03  0.12500060021E+03 0.  0.
    9000005    1    3    3    0    0 -0.37606278964E+02 -0.29850396940E+02 -0.14993334180E+02  0.50309824933E+02  0.10000000000E+01 0.  0.
    9000005    1    3    3    0    0  0.37606278964E+02  0.29850396940E+02  0.73275325926E+02  0.87610226598E+02  0.10000000000E+01 0.  0.
<mgrwt>
<rscale>  0 0.12500060E+03</rscale>
<asrwt>0</asrwt>
<pdfrwt beam="2">  1        4 0.61260046E-02 0.12500060E+03</pdfrwt>
<pdfrwt beam="1">  1       -4 0.15092465E-01 0.12500060E+03</pdfrwt>
<totfact> 0.10176739E+04</totfact>
</mgrwt>
</event>
<event>
 5    1  0.3331626E-002  0.1249995E+03  0.7818608E-02  0.1235070E+00
         -4   -1    0    0    0  501 -0.00000000000E+00  0.00000000000E+00  0.58252924217E+03  0.58253062656E+03  0.12700000000E+01 0. -1.
          4   -1    0    0  501    0  0.00000000000E+00 -0.00000000000E+00 -0.66440824725E+01  0.67643722474E+01  0.12700000000E+01 0. -1.
         25    2    1    2    0    0  0.00000000000E+00  0.00000000000E+00  0.57588515970E+03  0.58929499881E+03  0.12499951385E+03 0.  0.
    9000005    1    3    3    0    0 -0.78250623089E+00 -0.22764971650E+02  0.56228389106E+03  0.56274597324E+03  0.10000000000E+01 0.  0.
    9000005    1    3    3    0    0  0.78250623089E+00  0.22764971650E+02  0.13601268636E+02  0.26549025570E+02  0.10000000000E+01 0.  0.
<mgrwt>
<rscale>  0 0.12499951E+03</rscale>
<asrwt>0</asrwt>
<pdfrwt beam="2">  1        4 0.10315267E-02 0.12499951E+03</pdfrwt>
<pdfrwt beam="1">  1       -4 0.89629189E-01 0.12499951E+03</pdfrwt>
<totfact> 0.49550939E+03</totfact>
</mgrwt>
</event>
<event>
 5    1  0.3331626E-002  0.1249922E+03  0.7818608E-02  0.1235082E+00
          4   -1    0    0  501    0  0.00000000000E+00  0.00000000000E+00  0.12484325442E+03  0.12484971395E+03  0.12700000000E+01 0. -1.
         -4   -1    0    0    0  501 -0.00000000000E+00 -0.00000000000E+00 -0.31265145893E+02  0.31290929160E+02  0.12700000000E+01 0. -1.
         25    2    1    2    0    0  0.00000000000E+00  0.00000000000E+00  0.93578108525E+02  0.15614064311E+03  0.12499215190E+03 0.  0.
    9000005    1    3    3    0    0 -0.31215925089E+02 -0.48233706080E+02  0.16092303656E+02  0.59673164977E+02  0.10000000000E+01 0.  0.
    9000005    1    3    3    0    0  0.31215925089E+02  0.48233706080E+02  0.77485804869E+02  0.96467478134E+02  0.10000000000E+01 0.  0.
<mgrwt>
<rscale>  0 0.12499215E+03</rscale>
<asrwt>0</asrwt>
<pdfrwt beam="1">  1        4 0.19209135E-01 0.12499215E+03</pdfrwt>
<pdfrwt beam="2">  1       -4 0.48125026E-02 0.12499215E+03</pdfrwt>
<totfact> 0.98109354E+03</totfact>
</mgrwt>
</event>
<event>
 5    1  0.3331626E-002  0.1249977E+03  0.7818608E-02  0.1235073E+00
         -4   -1    0    0    0  501 -0.00000000000E+00  0.00000000000E+00  0.32410988764E+02  0.32435861214E+02  0.12700000000E+01 0. -1.
          4   -1    0    0  501    0  0.00000000000E+00 -0.00000000000E+00 -0.12044351148E+03  0.12045020696E+03  0.12700000000E+01 0. -1.
         25    2    1    2    0    0  0.00000000000E+00  0.00000000000E+00 -0.88032522713E+02  0.15288606817E+03  0.12499769913E+03 0.  0.
    9000005    1    3    3    0    0 -0.16798773582E+02 -0.56312546043E+02 -0.70014336723E+02  0.91412849110E+02  0.10000000000E+01 0.  0.
    9000005    1    3    3    0    0  0.16798773582E+02  0.56312546043E+02 -0.18018185990E+02  0.61473219064E+02  0.10000000000E+01 0.  0.
<mgrwt>
<rscale>  0 0.12499770E+03</rscale>
<asrwt>0</asrwt>
<pdfrwt beam="2">  1        4 0.18532199E-01 0.12499770E+03</pdfrwt>
<pdfrwt beam="1">  1       -4 0.49887343E-02 0.12499770E+03</pdfrwt>
<totfact> 0.98736595E+03</totfact>
</mgrwt>
</event>
<event>
 5    1  0.3331626E-002  0.1250007E+03  0.7818608E-02  0.1235068E+00
          4   -1    0    0  501    0  0.00000000000E+00  0.00000000000E+00  0.35489574920E+03  0.35489802155E+03  0.12700000000E+01 0. -1.
         -4   -1    0    0    0  501 -0.00000000000E+00 -0.00000000000E+00 -0.10967922916E+02  0.11041206143E+02  0.12700000000E+01 0. -1.
         25    2    1    2    0    0  0.00000000000E+00  0.00000000000E+00  0.34392782629E+03  0.36593922770E+03  0.12500067469E+03 0.  0.
    9000005    1    3    3    0    0 -0.22744768457E+02  0.19916721231E+02  0.33207669638E+03  0.33345154454E+03  0.10000000000E+01 0.  0.
    9000005    1    3    3    0    0  0.22744768457E+02 -0.19916721231E+02  0.11851129905E+02  0.32487683155E+02  0.10000000000E+01 0.  0.
<mgrwt>
<rscale>  0 0.12500067E+03</rscale>
<asrwt>0</asrwt>
<pdfrwt beam="1">  1        4 0.54605159E-01 0.12500067E+03</pdfrwt>
<pdfrwt beam="2">  1       -4 0.16931847E-02 0.12500067E+03</pdfrwt>
<totfact> 0.68004903E+03</totfact>
</mgrwt>
</event>
<event>
 5    1  0.3331626E-002  0.1249977E+03  0.7818608E-02  0.1235073E+00
          4   -1    0    0  501    0  0.00000000000E+00  0.00000000000E+00  0.18102406435E+03  0.18102851923E+03  0.12700000000E+01 0. -1.
         -4   -1    0    0    0  501 -0.00000000000E+00 -0.00000000000E+00 -0.21554417214E+02  0.21591799403E+02  0.12700000000E+01 0. -1.
         25    2    1    2    0    0  0.00000000000E+00  0.00000000000E+00  0.15946964714E+03  0.20262031863E+03  0.12499770064E+03 0.  0.
    9000005    1    3    3    0    0  0.37093794042E+02 -0.47317232524E+02  0.10735057024E+03  0.12304476820E+03  0.10000000000E+01 0.  0.
    9000005    1    3    3    0    0 -0.37093794042E+02  0.47317232524E+02  0.52119076896E+02  0.79575550432E+02  0.10000000000E+01 0.  0.
<mgrwt>
<rscale>  0 0.12499770E+03</rscale>
<asrwt>0</asrwt>
<pdfrwt beam="1">  1        4 0.27853073E-01 0.12499770E+03</pdfrwt>
<pdfrwt beam="2">  1       -4 0.33192826E-02 0.12499770E+03</pdfrwt>
<totfact> 0.89700057E+03</totfact>
</mgrwt>
</event>
<event>
 5    1  0.3331626E-002  0.1250194E+03  0.7818608E-02  0.1235039E+00
         -4   -1    0    0    0  501 -0.00000000000E+00  0.00000000000E+00  0.60558762078E+03  0.60558895246E+03  0.12700000000E+01 0.  1.
          4   -1    0    0  501    0  0.00000000000E+00 -0.00000000000E+00 -0.63885013487E+01  0.65135128373E+01  0.12700000000E+01 0.  1.
         25    2    1    2    0    0  0.00000000000E+00  0.00000000000E+00  0.59919911943E+03  0.61210246530E+03  0.12501937168E+03 0.  0.
    9000005    1    3    3    0    0  0.54281856388E+02 -0.10255392368E+01  0.45121066762E+03  0.45446632244E+03  0.10000000000E+01 0.  0.
    9000005    1    3    3    0    0 -0.54281856388E+02  0.10255392368E+01  0.14798845182E+03  0.15763614286E+03  0.10000000000E+01 0.  0.
<mgrwt>
<rscale>  0 0.12501937E+03</rscale>
<asrwt>0</asrwt>
<pdfrwt beam="2">  1        4 0.99256544E-03 0.12501937E+03</pdfrwt>
<pdfrwt beam="1">  1       -4 0.93177010E-01 0.12501937E+03</pdfrwt>
<totfact> 0.48092060E+03</totfact>
</mgrwt>
</event>
<event>
 5    1  0.3331626E-002  0.1250047E+03  0.7818608E-02  0.1235062E+00
          4   -1    0    0  501    0  0.00000000000E+00  0.00000000000E+00  0.60059762564E+02  0.60073188523E+02  0.12700000000E+01 0.  1.
         -4   -1    0    0    0  501 -0.00000000000E+00 -0.00000000000E+00 -0.65017335425E+02  0.65029737857E+02  0.12700000000E+01 0.  1.
         25    2    1    2    0    0  0.00000000000E+00  0.00000000000E+00 -0.49575728604E+01  0.12510292638E+03  0.12500465855E+03 0.  0.
    9000005    1    3    3    0    0  0.30546195873E+02  0.65990963972E+01 -0.56640855724E+02  0.64697795115E+02  0.10000000000E+01 0.  0.
    9000005    1    3    3    0    0 -0.30546195873E+02 -0.65990963972E+01  0.51683282863E+02  0.60405131265E+02  0.10000000000E+01 0.  0.
<mgrwt>
<rscale>  0 0.12500466E+03</rscale>
<asrwt>0</asrwt>
<pdfrwt beam="1">  1        4 0.92419502E-02 0.12500466E+03</pdfrwt>
<pdfrwt beam="2">  1       -4 0.10004654E-01 0.12500466E+03</pdfrwt>
<totfact> 0.10449527E+04</totfact>
</mgrwt>
</event>
<event>
 5    1  0.3331626E-002  0.1250025E+03  0.7818608E-02  0.1235065E+00
          4   -1    0    0  501    0  0.00000000000E+00  0.00000000000E+00  0.21164778678E+03  0.21165159708E+03  0.12700000000E+01 0.  1.
         -4   -1    0    0    0  501 -0.00000000000E+00 -0.00000000000E+00 -0.18431289823E+02  0.18474992410E+02  0.12700000000E+01 0.  1.
         25    2    1    2    0    0  0.00000000000E+00  0.00000000000E+00  0.19321649695E+03  0.23012658949E+03  0.12500252996E+03 0.  0.
    9000005    1    3    3    0    0  0.17289072149E+02 -0.57376052097E+02  0.12925558804E+03  0.14247431491E+03  0.10000000000E+01 0.  0.
    9000005    1    3    3    0    0 -0.17289072149E+02  0.57376052097E+02  0.63960908914E+02  0.87652274581E+02  0.10000000000E+01 0.  0.
<mgrwt>
<rscale>  0 0.12500253E+03</rscale>
<asrwt>0</asrwt>
<pdfrwt beam="1">  1        4 0.32564852E-01 0.12500253E+03</pdfrwt>
<pdfrwt beam="2">  1       -4 0.28392380E-02 0.12500253E+03</pdfrwt>
<totfact> 0.85285348E+03</totfact>
</mgrwt>
</event>
<event>
 5    1  0.3331626E-002  0.1249989E+03  0.7818608E-02  0.1235071E+00
         -4   -1    0    0    0  501 -0.00000000000E+00  0.00000000000E+00  0.28563271136E+02  0.28591491007E+02  0.12700000000E+01 0.  1.
          4   -1    0    0  501    0  0.00000000000E+00 -0.00000000000E+00 -0.13665670853E+03  0.13666260969E+03  0.12700000000E+01 0.  1.
         25    2    1    2    0    0  0.00000000000E+00  0.00000000000E+00 -0.10809343739E+03  0.16525410069E+03  0.12499890635E+03 0.  0.
    9000005    1    3    3    0    0 -0.83601517008E+01  0.53282873016E+02 -0.95774446789E+02  0.10992134165E+03  0.10000000000E+01 0.  0.
    9000005    1    3    3    0    0  0.83601517008E+01 -0.53282873016E+02 -0.12318990606E+02  0.55332759039E+02  0.10000000000E+01 0.  0.
<mgrwt>
<rscale>  0 0.12499891E+03</rscale>
<asrwt>0</asrwt>
<pdfrwt beam="2">  1        4 0.21026733E-01 0.12499891E+03</pdfrwt>
<pdfrwt beam="1">  1       -4 0.43969742E-02 0.12499891E+03</pdfrwt>
<totfact> 0.96341658E+03</totfact>
</mgrwt>
</event>
<event>
 5    1  0.3331626E-002  0.1250030E+03  0.7818608E-02  0.1235065E+00
          4   -1    0    0  501    0  0.00000000000E+00  0.00000000000E+00  0.23990781752E+02  0.24024373230E+02  0.12700000000E+01 0. -1.
         -4   -1    0    0    0  501 -0.00000000000E+00 -0.00000000000E+00 -0.16268086065E+03  0.16268581783E+03  0.12700000000E+01 0. -1.
         25    2    1    2    0    0  0.00000000000E+00  0.00000000000E+00 -0.13869007890E+03  0.18671019106E+03  0.12500302980E+03 0.  0.
    9000005    1    3    3    0    0  0.39644270541E+01 -0.11248202508E+02  0.22282530722E+02  0.25293278097E+02  0.10000000000E+01 0.  0.
    9000005    1    3    3    0    0 -0.39644270541E+01  0.11248202508E+02 -0.16097260962E+03  0.16141691296E+03  0.10000000000E+01 0.  0.
<mgrwt>
<rscale>  0 0.12500303E+03</rscale>
<asrwt>0</asrwt>
<pdfrwt beam="1">  1        4 0.36938549E-02 0.12500303E+03</pdfrwt>
<pdfrwt beam="2">  1       -4 0.25030789E-01 0.12500303E+03</pdfrwt>
<totfact> 0.92416628E+03</totfact>
</mgrwt>
</event>
<event>
 5    1  0.3331626E-002  0.1250065E+03  0.7818608E-02  0.1235059E+00
         -4   -1    0    0    0  501 -0.00000000000E+00  0.00000000000E+00  0.21800731485E+02  0.21837692032E+02  0.12700000000E+01 0.  1.
          4   -1    0    0  501    0  0.00000000000E+00 -0.00000000000E+00 -0.17900735672E+03  0.17901186178E+03  0.12700000000E+01 0.  1.
         25    2    1    2    0    0  0.00000000000E+00  0.00000000000E+00 -0.15720662523E+03  0.20084955382E+03  0.12500648084E+03 0.  0.
    9000005    1    3    3    0    0  0.32507339176E+02  0.46972082469E+02 -0.11933123812E+03  0.13230286476E+03  0.10000000000E+01 0.  0.
    9000005    1    3    3    0    0 -0.32507339176E+02 -0.46972082469E+02 -0.37875387108E+02  0.68546689055E+02  0.10000000000E+01 0.  0.
<mgrwt>
<rscale>  0 0.12500648E+03</rscale>
<asrwt>0</asrwt>
<pdfrwt beam="2">  1        4 0.27542782E-01 0.12500648E+03</pdfrwt>
<pdfrwt beam="1">  1       -4 0.33571485E-02 0.12500648E+03</pdfrwt>
<totfact> 0.89979372E+03</totfact>
</mgrwt>
</event>
<event>
 5    1  0.3331626E-002  0.1250005E+03  0.7818608E-02  0.1235068E+00
          4   -1    0    0  501    0  0.00000000000E+00  0.00000000000E+00  0.83187144768E+02  0.83196838609E+02  0.12700000000E+01 0. -1.
         -4   -1    0    0    0  501 -0.00000000000E+00 -0.00000000000E+00 -0.46936757766E+02  0.46953936253E+02  0.12700000000E+01 0. -1.
         25    2    1    2    0    0  0.00000000000E+00  0.00000000000E+00  0.36250387001E+02  0.13015077486E+03  0.12500053456E+03 0.  0.
    9000005    1    3    3    0    0  0.38086312394E+01 -0.53640234926E+02 -0.15022048055E+02  0.55843015701E+02  0.10000000000E+01 0.  0.
    9000005    1    3    3    0    0 -0.38086312394E+01  0.53640234926E+02  0.51272435056E+02  0.74307759161E+02  0.10000000000E+01 0.  0.
<mgrwt>
<rscale>  0 0.12500053E+03</rscale>
<asrwt>0</asrwt>
<pdfrwt beam="1">  1        4 0.12800089E-01 0.12500053E+03</pdfrwt>
<pdfrwt beam="2">  1       -4 0.72231069E-02 0.12500053E+03</pdfrwt>
<totfact> 0.10341158E+04</totfact>
</mgrwt>
</event>
<event>
 4    1  0.3331626E-002  0.1248615E+03  0.7818608E-02  0.1235286E+00
          4   -1    0    0  501    0  0.00000000000E+00  0.00000000000E+00  0.45099191476E+03  0.45099370293E+03  0.12700000000E+01 0. -1.
         -4   -1    0    0    0  501 -0.00000000000E+00 -0.00000000000E+00 -0.85938134271E+01  0.86871473580E+01  0.12700000000E+01 0. -1.
    9000005    1    1    2    0    0 -0.13259736204E+02 -0.18906053864E+00  0.44576435626E+03  0.44596268640E+03  0.10000000000E+01 0.  0.
    9000005    1    1    2    0    0  0.13259736204E+02  0.18906053864E+00 -0.33662549291E+01  0.13718163883E+02  0.10000000000E+01 0.  0.
<mgrwt>
<rscale>  0 0.12486154E+03</rscale>
<asrwt>0</asrwt>
<pdfrwt beam="1">  1        4 0.69390705E-01 0.12486154E+03</pdfrwt>
<pdfrwt beam="2">  1       -4 0.13294419E-02 0.12486154E+03</pdfrwt>
<totfact> 0.59314863E+03</totfact>
</mgrwt>
</event>
<event>
 5    1  0.3331626E-002  0.1250005E+03  0.7818608E-02  0.1235069E+00
          4   -1    0    0  501    0  0.00000000000E+00  0.00000000000E+00  0.22468316897E+03  0.22468675822E+03  0.12700000000E+01 0. -1.
         -4   -1    0    0    0  501 -0.00000000000E+00 -0.00000000000E+00 -0.17358796286E+02  0.17405191998E+02  0.12700000000E+01 0. -1.
         25    2    1    2    0    0  0.00000000000E+00  0.00000000000E+00  0.20732437269E+03  0.24209195022E+03  0.12500046740E+03 0.  0.
    9000005    1    3    3    0    0  0.38507177895E+02  0.48887947331E+02  0.92630470604E+02  0.11159855836E+03  0.10000000000E+01 0.  0.
    9000005    1    3    3    0    0 -0.38507177895E+02 -0.48887947331E+02  0.11469390208E+03  0.13049339186E+03  0.10000000000E+01 0.  0.
<mgrwt>
<rscale>  0 0.12500047E+03</rscale>
<asrwt>0</asrwt>
<pdfrwt beam="1">  1        4 0.34570487E-01 0.12500047E+03</pdfrwt>
<pdfrwt beam="2">  1       -4 0.26744290E-02 0.12500047E+03</pdfrwt>
<totfact> 0.83485921E+03</totfact>
</mgrwt>
</event>
<event>
 5    1  0.3331626E-002  0.1249987E+03  0.7818608E-02  0.1235071E+00
         -4   -1    0    0    0  501 -0.00000000000E+00  0.00000000000E+00  0.63338392559E+02  0.63351123683E+02  0.12700000000E+01 0.  1.
          4   -1    0    0  501    0  0.00000000000E+00 -0.00000000000E+00 -0.61645951006E+02  0.61659031580E+02  0.12700000000E+01 0.  1.
         25    2    1    2    0    0  0.00000000000E+00  0.00000000000E+00  0.16924415527E+01  0.12501015526E+03  0.12499869824E+03 0.  0.
    9000005    1    3    3    0    0  0.43401248292E+01  0.65310827450E+01  0.62849297702E+02  0.63344502105E+02  0.10000000000E+01 0.  0.
    9000005    1    3    3    0    0 -0.43401248292E+01 -0.65310827450E+01 -0.61156856149E+02  0.61665653158E+02  0.10000000000E+01 0.  0.
<mgrwt>
<rscale>  0 0.12499870E+03</rscale>
<asrwt>0</asrwt>
<pdfrwt beam="2">  1        4 0.94859780E-02 0.12499870E+03</pdfrwt>
<pdfrwt beam="1">  1       -4 0.97463535E-02 0.12499870E+03</pdfrwt>
<totfact> 0.10452949E+04</totfact>
</mgrwt>
</event>
<event>
 5    1  0.3331626E-002  0.1250024E+03  0.7818608E-02  0.1235066E+00
          4   -1    0    0  501    0  0.00000000000E+00  0.00000000000E+00  0.10506382242E+03  0.10507149795E+03  0.12700000000E+01 0.  1.
         -4   -1    0    0    0  501 -0.00000000000E+00 -0.00000000000E+00 -0.37161320332E+02  0.37183015327E+02  0.12700000000E+01 0.  1.
         25    2    1    2    0    0  0.00000000000E+00  0.00000000000E+00  0.67902502093E+02  0.14225451328E+03  0.12500238701E+03 0.  0.
    9000005    1    3    3    0    0 -0.25029204793E+02 -0.35020824584E+02 -0.17605697907E+02  0.46517521923E+02  0.10000000000E+01 0.  0.
    9000005    1    3    3    0    0  0.25029204793E+02  0.35020824584E+02  0.85508200000E+02  0.95736991358E+02  0.10000000000E+01 0.  0.
<mgrwt>
<rscale>  0 0.12500239E+03</rscale>
<asrwt>0</asrwt>
<pdfrwt beam="1">  1        4 0.16165924E-01 0.12500239E+03</pdfrwt>
<pdfrwt beam="2">  1       -4 0.57193855E-02 0.12500239E+03</pdfrwt>
<totfact> 0.10086529E+04</totfact>
</mgrwt>
</event>
<event>
 5    1  0.3331626E-002  0.1249991E+03  0.7818608E-02  0.1235071E+00
          4   -1    0    0  501    0  0.00000000000E+00  0.00000000000E+00  0.90015205323E+02  0.90024163919E+02  0.12700000000E+01 0. -1.
         -4   -1    0    0    0  501 -0.00000000000E+00 -0.00000000000E+00 -0.43374426169E+02  0.43393014939E+02  0.12700000000E+01 0. -1.
         25    2    1    2    0    0  0.00000000000E+00  0.00000000000E+00  0.46640779154E+02  0.13341717886E+03  0.12499912533E+03 0.  0.
    9000005    1    3    3    0    0 -0.54700148412E+02 -0.11951275329E+01 -0.89067241663E+01  0.55442441338E+02  0.10000000000E+01 0.  0.
    9000005    1    3    3    0    0  0.54700148412E+02  0.11951275329E+01  0.55547503320E+02  0.77974737520E+02  0.10000000000E+01 0.  0.
<mgrwt>
<rscale>  0 0.12499913E+03</rscale>
<asrwt>0</asrwt>
<pdfrwt beam="1">  1        4 0.13850612E-01 0.12499913E+03</pdfrwt>
<pdfrwt beam="2">  1       -4 0.66751077E-02 0.12499913E+03</pdfrwt>
<totfact> 0.10271744E+04</totfact>
</mgrwt>
</event>
<event>
 5    1  0.3331626E-002  0.1250000E+03  0.7818608E-02  0.1235069E+00
          4   -1    0    0  501    0  0.00000000000E+00  0.00000000000E+00  0.29300196825E+03  0.29300472061E+03  0.12700000000E+01 0. -1.
         -4   -1    0    0    0  501 -0.00000000000E+00 -0.00000000000E+00 -0.13298764598E+02  0.13359267938E+02  0.12700000000E+01 0. -1.
         25    2    1    2    0    0  0.00000000000E+00  0.00000000000E+00  0.27970320366E+03  0.30636398855E+03  0.12500004538E+03 0.  0.
    9000005    1    3    3    0    0  0.31996678472E+02 -0.38279202674E+02  0.47618898133E+02  0.68975678685E+02  0.10000000000E+01 0.  0.
    9000005    1    3    3    0    0 -0.31996678472E+02  0.38279202674E+02  0.23208430552E+03  0.23738830986E+03  0.10000000000E+01 0.  0.
<mgrwt>
<rscale>  0 0.12500005E+03</rscale>
<asrwt>0</asrwt>
<pdfrwt beam="1">  1        4 0.45082089E-01 0.12500005E+03</pdfrwt>
<pdfrwt beam="2">  1       -4 0.20508297E-02 0.12500005E+03</pdfrwt>
<totfact> 0.74807348E+03</totfact>
</mgrwt>
</event>
<event>
 5    1  0.3331626E-002  0.1249945E+03  0.7818608E-02  0.1235078E+00
         -4   -1    0    0    0  501 -0.00000000000E+00  0.00000000000E+00  0.17243811140E+02  0.17290515395E+02  0.12700000000E+01 0. -1.
          4   -1    0    0  501    0  0.00000000000E+00 -0.00000000000E+00 -0.22615596759E+03  0.22615953346E+03  0.12700000000E+01 0. -1.
         25    2    1    2    0    0  0.00000000000E+00  0.00000000000E+00 -0.20891215645E+03  0.24345004886E+03  0.12499454859E+03 0.  0.
    9000005    1    3    3    0    0 -0.31002334765E+02 -0.19585747075E+02 -0.20300516537E+03  0.20629310075E+03  0.10000000000E+01 0.  0.
    9000005    1    3    3    0    0  0.31002334765E+02  0.19585747075E+02 -0.59069910811E+01  0.37156948112E+02  0.10000000000E+01 0.  0.
<mgrwt>
<rscale>  0 0.12499455E+03</rscale>
<asrwt>0</asrwt>
<pdfrwt beam="2">  1        4 0.34797091E-01 0.12499455E+03</pdfrwt>
<pdfrwt beam="1">  1       -4 0.26567611E-02 0.12499455E+03</pdfrwt>
<totfact> 0.83296333E+03</totfact>
</mgrwt>
</event>
<event>
 5    1  0.3331626E-002  0.1249946E+03  0.7818608E-02  0.1235078E+00
         -4   -1    0    0    0  501 -0.00000000000E+00  0.00000000000E+00  0.11854581852E+04  0.11854588655E+04  0.12700000000E+01 0. -1.
          4   -1    0    0  501    0  0.00000000000E+00 -0.00000000000E+00 -0.31717654435E+01  0.34165766534E+01  0.12700000000E+01 0. -1.
         25    2    1    2    0    0  0.00000000000E+00  0.00000000000E+00  0.11822864198E+04  0.11888754422E+04  0.12499455420E+03 0.  0.
    9000005    1    3    3    0    0 -0.23070120669E+02 -0.40526169966E+02  0.19549695137E+03  0.20098422553E+03  0.10000000000E+01 0.  0.
    9000005    1    3    3    0    0  0.23070120669E+02  0.40526169966E+02  0.98678946843E+03  0.98789121664E+03  0.10000000000E+01 0.  0.
<mgrwt>
<rscale>  0 0.12499455E+03</rscale>
<asrwt>0</asrwt>
<pdfrwt beam="2">  1        4 0.50684783E-03 0.12499455E+03</pdfrwt>
<pdfrwt beam="1">  1       -4 0.18239708E+00 0.12499455E+03</pdfrwt>
<totfact> 0.25008770E+03</totfact>
</mgrwt>
</event>
<event>
 5    1  0.3331626E-002  0.1250100E+03  0.7818608E-02  0.1235054E+00
          4   -1    0    0  501    0  0.00000000000E+00  0.00000000000E+00  0.74070698351E+01  0.75151569207E+01  0.12700000000E+01 0. -1.
         -4   -1    0    0    0  501 -0.00000000000E+00 -0.00000000000E+00 -0.52352317458E+03  0.52352471501E+03  0.12700000000E+01 0. -1.
         25    2    1    2    0    0  0.00000000000E+00  0.00000000000E+00 -0.51611610474E+03  0.53103987193E+03  0.12501004759E+03 0.  0.
    9000005    1    3    3    0    0 -0.40019758997E+02  0.34501475481E+02 -0.39983776753E+03  0.40331522815E+03  0.10000000000E+01 0.  0.
    9000005    1    3    3    0    0  0.40019758997E+02 -0.34501475481E+02 -0.11627833722E+03  0.12772464377E+03  0.10000000000E+01 0.  0.
<mgrwt>
<rscale>  0 0.12501005E+03</rscale>
<asrwt>0</asrwt>
<pdfrwt beam="1">  1        4 0.11479825E-02 0.12501005E+03</pdfrwt>
<pdfrwt beam="2">  1       -4 0.80550431E-01 0.12501005E+03</pdfrwt>
<totfact> 0.53522193E+03</totfact>
</mgrwt>
</event>
<event>
 5    1  0.3331626E-002  0.1249947E+03  0.7818608E-02  0.1235078E+00
         -4   -1    0    0    0  501 -0.00000000000E+00  0.00000000000E+00  0.16905249757E+02  0.16952886756E+02  0.12700000000E+01 0.  1.
          4   -1    0    0  501    0  0.00000000000E+00 -0.00000000000E+00 -0.23067333049E+03  0.23067682653E+03  0.12700000000E+01 0.  1.
         25    2    1    2    0    0  0.00000000000E+00  0.00000000000E+00 -0.21376808073E+03  0.24762971329E+03  0.12499473014E+03 0.  0.
    9000005    1    3    3    0    0  0.52444063078E+02  0.26061966134E+02 -0.15007588226E+03  0.16110051604E+03  0.10000000000E+01 0.  0.
    9000005    1    3    3    0    0 -0.52444063078E+02 -0.26061966134E+02 -0.63692198472E+02  0.86529197252E+02  0.10000000000E+01 0.  0.
<mgrwt>
<rscale>  0 0.12499473E+03</rscale>
<asrwt>0</asrwt>
<pdfrwt beam="2">  1        4 0.35492136E-01 0.12499473E+03</pdfrwt>
<pdfrwt beam="1">  1       -4 0.26047411E-02 0.12499473E+03</pdfrwt>
<totfact> 0.82683728E+03</totfact>
</mgrwt>
</event>
<event>
 5    1  0.3331626E-002  0.1250007E+03  0.7818608E-02  0.1235068E+00
          4   -1    0    0  501    0  0.00000000000E+00  0.00000000000E+00  0.25365272686E+03  0.25365590618E+03  0.12700000000E+01 0. -1.
         -4   -1    0    0    0  501 -0.00000000000E+00 -0.00000000000E+00 -0.15370688327E+02  0.15423065832E+02  0.12700000000E+01 0. -1.
         25    2    1    2    0    0  0.00000000000E+00  0.00000000000E+00  0.23828203853E+03  0.26907897202E+03  0.12500065318E+03 0.  0.
    9000005    1    3    3    0    0  0.31269894383E+02  0.93912510484E+01  0.44386807430E+01  0.32965190394E+02  0.10000000000E+01 0.  0.
    9000005    1    3    3    0    0 -0.31269894383E+02 -0.93912510484E+01  0.23384335779E+03  0.23611378162E+03  0.10000000000E+01 0.  0.
<mgrwt>
<rscale>  0 0.12500065E+03</rscale>
<asrwt>0</asrwt>
<pdfrwt beam="1">  1        4 0.39027772E-01 0.12500065E+03</pdfrwt>
<pdfrwt beam="2">  1       -4 0.23689947E-02 0.12500065E+03</pdfrwt>
<totfact> 0.79647440E+03</totfact>
</mgrwt>
</event>
<event>
 5    1  0.3331626E-002  0.1249960E+03  0.7818608E-02  0.1235075E+00
          4   -1    0    0  501    0  0.00000000000E+00  0.00000000000E+00  0.66212021891E+02  0.66224200584E+02  0.12700000000E+01 0.  1.
         -4   -1    0    0    0  501 -0.00000000000E+00 -0.00000000000E+00 -0.58967905346E+02  0.58981579844E+02  0.12700000000E+01 0.  1.
         25    2    1    2    0    0  0.00000000000E+00  0.00000000000E+00  0.72441165458E+01  0.12520578043E+03  0.12499604085E+03 0.  0.
    9000005    1    3    3    0    0 -0.56716966858E+02  0.10818435257E+02  0.27560897800E+02  0.63987936039E+02  0.10000000000E+01 0.  0.
    9000005    1    3    3    0    0  0.56716966858E+02 -0.10818435257E+02 -0.20316781254E+02  0.61217844388E+02  0.10000000000E+01 0.  0.
<mgrwt>
<rscale>  0 0.12499604E+03</rscale>
<asrwt>0</asrwt>
<pdfrwt beam="1">  1        4 0.10188454E-01 0.12499604E+03</pdfrwt>
<pdfrwt beam="2">  1       -4 0.90739741E-02 0.12499604E+03</pdfrwt>
<totfact> 0.10449330E+04</totfact>
</mgrwt>
</event>
<event>
 5    1  0.3331626E-002  0.1250159E+03  0.7818608E-02  0.1235044E+00
          4   -1    0    0  501    0  0.00000000000E+00  0.00000000000E+00  0.27559857576E+03  0.27560150192E+03  0.12700000000E+01 0. -1.
         -4   -1    0    0    0  501 -0.00000000000E+00 -0.00000000000E+00 -0.14145855383E+02  0.14202750596E+02  0.12700000000E+01 0. -1.
         25    2    1    2    0    0  0.00000000000E+00  0.00000000000E+00  0.26145272038E+03  0.28980425252E+03  0.12501591812E+03 0.  0.
    9000005    1    3    3    0    0  0.26855157798E+02 -0.10047556465E+02  0.25946327750E+03  0.26104471890E+03  0.10000000000E+01 0.  0.
    9000005    1    3    3    0    0 -0.26855157798E+02  0.10047556465E+02  0.19894428773E+01  0.28759533623E+02  0.10000000000E+01 0.  0.
<mgrwt>
<rscale>  0 0.12501592E+03</rscale>
<asrwt>0</asrwt>
<pdfrwt beam="1">  1        4 0.42404383E-01 0.12501592E+03</pdfrwt>
<pdfrwt beam="2">  1       -4 0.21808871E-02 0.12501592E+03</pdfrwt>
<totfact> 0.76868650E+03</totfact>
</mgrwt>
</event>
<event>
 5    1  0.3331626E-002  0.1250050E+03  0.7818608E-02  0.1235061E+00
         -4   -1    0    0    0  501 -0.00000000000E+00  0.00000000000E+00  0.20385274198E+02  0.20424796306E+02  0.12700000000E+01 0. -1.
          4   -1    0    0  501    0  0.00000000000E+00 -0.00000000000E+00 -0.19140933181E+03  0.19141354499E+03  0.12700000000E+01 0. -1.
         25    2    1    2    0    0  0.00000000000E+00  0.00000000000E+00 -0.17102405761E+03  0.21183834129E+03  0.12500501814E+03 0.  0.
    9000005    1    3    3    0    0  0.35896927823E+02  0.31106399288E+02 -0.15433535477E+03  0.16148250443E+03  0.10000000000E+01 0.  0.
    9000005    1    3    3    0    0 -0.35896927823E+02 -0.31106399288E+02 -0.16688702841E+02  0.50355836864E+02  0.10000000000E+01 0.  0.
<mgrwt>
<rscale>  0 0.12500502E+03</rscale>
<asrwt>0</asrwt>
<pdfrwt beam="2">  1        4 0.29450952E-01 0.12500502E+03</pdfrwt>
<pdfrwt beam="1">  1       -4 0.31395604E-02 0.12500502E+03</pdfrwt>
<totfact> 0.88166644E+03</totfact>
</mgrwt>
</event>
<event>
 5    1  0.3331626E-002  0.1250323E+03  0.7818608E-02  0.1235019E+00
         -4   -1    0    0    0  501 -0.00000000000E+00  0.00000000000E+00  0.13695074177E+03  0.13695663026E+03  0.12700000000E+01 0. -1.
          4   -1    0    0  501    0  0.00000000000E+00 -0.00000000000E+00 -0.28517125797E+02  0.28545391287E+02  0.12700000000E+01 0. -1.
         25    2    1    2    0    0  0.00000000000E+00  0.00000000000E+00  0.10843361597E+03  0.16550202154E+03  0.12503227608E+03 0.  0.
    9000005    1    3    3    0    0 -0.16416444646E+02  0.42553874342E+00  0.13405080014E+03  0.13505664648E+03  0.10000000000E+01 0.  0.
    9000005    1    3    3    0    0  0.16416444646E+02 -0.42553874342E+00 -0.25617184172E+02  0.30445375067E+02  0.10000000000E+01 0.  0.
<mgrwt>
<rscale>  0 0.12503228E+03</rscale>
<asrwt>0</asrwt>
<pdfrwt beam="2">  1        4 0.43898773E-02 0.12503228E+03</pdfrwt>
<pdfrwt beam="1">  1       -4 0.21071972E-01 0.12503228E+03</pdfrwt>
<totfact> 0.96222619E+03</totfact>
</mgrwt>
</event>
<event>
 5    1  0.3331626E-002  0.1250031E+03  0.7818608E-02  0.1235064E+00
          4   -1    0    0  501    0  0.00000000000E+00  0.00000000000E+00  0.10403218146E+04  0.10403225898E+04  0.12700000000E+01 0.  1.
         -4   -1    0    0    0  501 -0.00000000000E+00 -0.00000000000E+00 -0.36468522870E+01  0.38616617671E+01  0.12700000000E+01 0.  1.
         25    2    1    2    0    0  0.00000000000E+00  0.00000000000E+00  0.10366749623E+04  0.10441842516E+04  0.12500309484E+03 0.  0.
    9000005    1    3    3    0    0 -0.25480157280E+02 -0.34963438110E+02  0.89504695773E+03  0.89609248237E+03  0.10000000000E+01 0.  0.
    9000005    1    3    3    0    0  0.25480157280E+02  0.34963438110E+02  0.14162800460E+03  0.14809176920E+03  0.10000000000E+01 0.  0.
<mgrwt>
<rscale>  0 0.12500309E+03</rscale>
<asrwt>0</asrwt>
<pdfrwt beam="1">  1        4 0.16006628E+00 0.12500309E+03</pdfrwt>
<pdfrwt beam="2">  1       -4 0.57763698E-03 0.12500309E+03</pdfrwt>
<totfact> 0.29175047E+03</totfact>
</mgrwt>
</event>
<event>
 5    1  0.3331626E-002  0.1249996E+03  0.7818608E-02  0.1235070E+00
         -4   -1    0    0    0  501 -0.00000000000E+00  0.00000000000E+00  0.14992696316E+02  0.15046389694E+02  0.12700000000E+01 0.  1.
          4   -1    0    0  501    0  0.00000000000E+00 -0.00000000000E+00 -0.26002077966E+03  0.26002388113E+03  0.12700000000E+01 0.  1.
         25    2    1    2    0    0  0.00000000000E+00  0.00000000000E+00 -0.24502808335E+03  0.27507027082E+03  0.12499956904E+03 0.  0.
    9000005    1    3    3    0    0  0.47845831576E+00 -0.54589208484E+02 -0.18944220864E+03  0.19715364826E+03  0.10000000000E+01 0.  0.
    9000005    1    3    3    0    0 -0.47845831576E+00  0.54589208484E+02 -0.55585874706E+02  0.77916622567E+02  0.10000000000E+01 0.  0.
<mgrwt>
<rscale>  0 0.12499957E+03</rscale>
<asrwt>0</asrwt>
<pdfrwt beam="2">  1        4 0.40007562E-01 0.12499957E+03</pdfrwt>
<pdfrwt beam="1">  1       -4 0.23109377E-02 0.12499957E+03</pdfrwt>
<totfact> 0.78837082E+03</totfact>
</mgrwt>
</event>
<event>
 4    1  0.3331626E-002  0.1249272E+03  0.7818608E-02  0.1235183E+00
         -4   -1    0    0    0  501 -0.00000000000E+00  0.00000000000E+00  0.82698262515E+03  0.82698360032E+03  0.12700000000E+01 0.  1.
          4   -1    0    0  501    0  0.00000000000E+00 -0.00000000000E+00 -0.46315331987E+01  0.48024993254E+01  0.12700000000E+01 0.  1.
    9000005    1    1    2    0    0  0.40358888149E+01 -0.35772856151E+02  0.75098445318E+03  0.75184748091E+03  0.10000000000E+01 0.  0.
    9000005    1    1    2    0    0 -0.40358888149E+01  0.35772856151E+02  0.71366638775E+02  0.79938618739E+02  0.10000000000E+01 0.  0.
<mgrwt>
<rscale>  0 0.12492717E+03</rscale>
<asrwt>0</asrwt>
<pdfrwt beam="2">  1        4 0.72576975E-03 0.12492717E+03</pdfrwt>
<pdfrwt beam="1">  1       -4 0.12724134E+00 0.12492717E+03</pdfrwt>
<totfact> 0.36943189E+03</totfact>
</mgrwt>
</event>
<event>
 5    1  0.3331626E-002  0.1250020E+03  0.7818608E-02  0.1235066E+00
          4   -1    0    0  501    0  0.00000000000E+00  0.00000000000E+00  0.16568633810E+02  0.16617235821E+02  0.12700000000E+01 0. -1.
         -4   -1    0    0    0  501 -0.00000000000E+00 -0.00000000000E+00 -0.23537369584E+03  0.23537712207E+03  0.12700000000E+01 0. -1.
         25    2    1    2    0    0  0.00000000000E+00  0.00000000000E+00 -0.21880506203E+03  0.25199435789E+03  0.12500200494E+03 0.  0.
    9000005    1    3    3    0    0 -0.17230459475E+02 -0.59933071017E+02 -0.10121044731E+03  0.11888404594E+03  0.10000000000E+01 0.  0.
    9000005    1    3    3    0    0  0.17230459475E+02  0.59933071017E+02 -0.11759461472E+03  0.13311031195E+03  0.10000000000E+01 0.  0.
<mgrwt>
<rscale>  0 0.12500200E+03</rscale>
<asrwt>0</asrwt>
<pdfrwt beam="1">  1        4 0.25530229E-02 0.12500200E+03</pdfrwt>
<pdfrwt beam="2">  1       -4 0.36215338E-01 0.12500200E+03</pdfrwt>
<totfact> 0.82039170E+03</totfact>
</mgrwt>
</event>
<event>
 5    1  0.3331626E-002  0.1249999E+03  0.7818608E-02  0.1235069E+00
          4   -1    0    0  501    0  0.00000000000E+00  0.00000000000E+00  0.20297210509E+02  0.20336903758E+02  0.12700000000E+01 0.  1.
         -4   -1    0    0    0  501 -0.00000000000E+00 -0.00000000000E+00 -0.19222239120E+03  0.19222658655E+03  0.12700000000E+01 0.  1.
         25    2    1    2    0    0  0.00000000000E+00  0.00000000000E+00 -0.17192518069E+03  0.21256349031E+03  0.12499987863E+03 0.  0.
    9000005    1    3    3    0    0  0.33497289820E+02 -0.17843506249E+01 -0.17562299706E+03  0.17880069750E+03  0.10000000000E+01 0.  0.
    9000005    1    3    3    0    0 -0.33497289820E+02  0.17843506249E+01  0.36978163654E+01  0.33762792810E+02  0.10000000000E+01 0.  0.
<mgrwt>
<rscale>  0 0.12499988E+03</rscale>
<asrwt>0</asrwt>
<pdfrwt beam="1">  1        4 0.31260240E-02 0.12499988E+03</pdfrwt>
<pdfrwt beam="2">  1       -4 0.29576050E-01 0.12499988E+03</pdfrwt>
<totfact> 0.88059173E+03</totfact>
</mgrwt>
</event>
<event>
 5    1  0.3331626E-002  0.1250014E+03  0.7818608E-02  0.1235067E+00
         -4   -1    0    0    0  501 -0.00000000000E+00  0.00000000000E+00  0.13451858240E+02  0.13511676066E+02  0.12700000000E+01 0.  1.
          4   -1    0    0  501    0  0.00000000000E+00 -0.00000000000E+00 -0.28968851852E+03  0.28969130236E+03  0.12700000000E+01 0.  1.
         25    2    1    2    0    0  0.00000000000E+00  0.00000000000E+00 -0.27623666028E+03  0.30320297842E+03  0.12500141456E+03 0.  0.
    9000005    1    3    3    0    0  0.43906889717E+02 -0.41515446794E+02 -0.99461360606E+02  0.11638259982E+03  0.10000000000E+01 0.  0.
    9000005    1    3    3    0    0 -0.43906889717E+02  0.41515446794E+02 -0.17677529967E+03  0.18682037860E+03  0.10000000000E+01 0.  0.
<mgrwt>
<rscale>  0 0.12500141E+03</rscale>
<asrwt>0</asrwt>
<pdfrwt beam="2">  1        4 0.44572275E-01 0.12500141E+03</pdfrwt>
<pdfrwt beam="1">  1       -4 0.20743324E-02 0.12500141E+03</pdfrwt>
<totfact> 0.75196453E+03</totfact>
</mgrwt>
</event>
<event>
 5    1  0.3331626E-002  0.1249954E+03  0.7818608E-02  0.1235076E+00
         -4   -1    0    0    0  501 -0.00000000000E+00  0.00000000000E+00  0.23600593876E+02  0.23634739925E+02  0.12700000000E+01 0.  1.
          4   -1    0    0  501    0  0.00000000000E+00 -0.00000000000E+00 -0.16534660811E+03  0.16535148537E+03  0.12700000000E+01 0.  1.
         25    2    1    2    0    0  0.00000000000E+00  0.00000000000E+00 -0.14174601424E+03  0.18898622529E+03  0.12499544312E+03 0.  0.
    9000005    1    3    3    0    0 -0.14107005662E+02 -0.60875883618E+02 -0.70433801015E+02  0.94163693324E+02  0.10000000000E+01 0.  0.
    9000005    1    3    3    0    0  0.14107005662E+02  0.60875883618E+02 -0.71312213221E+02  0.94822531971E+02  0.10000000000E+01 0.  0.
<mgrwt>
<rscale>  0 0.12499544E+03</rscale>
<asrwt>0</asrwt>
<pdfrwt beam="2">  1        4 0.25440941E-01 0.12499544E+03</pdfrwt>
<pdfrwt beam="1">  1       -4 0.36338625E-02 0.12499544E+03</pdfrwt>
<totfact> 0.92033403E+03</totfact>
</mgrwt>
</event>
<event>
 5    1  0.3331626E-002  0.1250021E+03  0.7818608E-02  0.1235066E+00
          4   -1    0    0  501    0  0.00000000000E+00  0.00000000000E+00  0.25874836098E+02  0.25905984697E+02  0.12700000000E+01 0.  1.
         -4   -1    0    0    0  501 -0.00000000000E+00 -0.00000000000E+00 -0.15084764397E+03  0.15085299000E+03  0.12700000000E+01 0.  1.
         25    2    1    2    0    0  0.00000000000E+00  0.00000000000E+00 -0.12497280787E+03  0.17675897470E+03  0.12500212969E+03 0.  0.
    9000005    1    3    3    0    0 -0.12671728273E+02  0.50140275801E+02 -0.12878451244E+02  0.53305482469E+02  0.10000000000E+01 0.  0.
    9000005    1    3    3    0    0  0.12671728273E+02 -0.50140275801E+02 -0.11209435663E+03  0.12345349223E+03  0.10000000000E+01 0.  0.
<mgrwt>
<rscale>  0 0.12500213E+03</rscale>
<asrwt>0</asrwt>
<pdfrwt beam="1">  1        4 0.39835514E-02 0.12500213E+03</pdfrwt>
<pdfrwt beam="2">  1       -4 0.23210137E-01 0.12500213E+03</pdfrwt>
<totfact> 0.94199173E+03</totfact>
</mgrwt>
</event>
<event>
 5    1  0.3331626E-002  0.1250027E+03  0.7818608E-02  0.1235065E+00
          4   -1    0    0  501    0  0.00000000000E+00  0.00000000000E+00  0.11234253476E+03  0.11234971302E+03  0.12700000000E+01 0.  1.
         -4   -1    0    0    0  501 -0.00000000000E+00 -0.00000000000E+00 -0.34752523756E+02  0.34775721523E+02  0.12700000000E+01 0.  1.
         25    2    1    2    0    0  0.00000000000E+00  0.00000000000E+00  0.77590011002E+02  0.14712543454E+03  0.12500273470E+03 0.  0.
    9000005    1    3    3    0    0  0.36421054270E+01  0.45745353966E+02  0.88723263275E+02  0.99893542272E+02  0.10000000000E+01 0.  0.
    9000005    1    3    3    0    0 -0.36421054270E+01 -0.45745353966E+02 -0.11133252273E+02  0.47231892272E+02  0.10000000000E+01 0.  0.
<mgrwt>
<rscale>  0 0.12500273E+03</rscale>
<asrwt>0</asrwt>
<pdfrwt beam="1">  1        4 0.17285803E-01 0.12500273E+03</pdfrwt>
<pdfrwt beam="2">  1       -4 0.53488788E-02 0.12500273E+03</pdfrwt>
<totfact> 0.99873668E+03</totfact>
</mgrwt>
</event>
<event>
 5    1  0.3331626E-002  0.1249980E+03  0.7818608E-02  0.1235072E+00
          4   -1    0    0  501    0  0.00000000000E+00  0.00000000000E+00  0.44559327454E+01  0.46333828496E+01  0.12700000000E+01 0.  1.
         -4   -1    0    0    0  501 -0.00000000000E+00 -0.00000000000E+00 -0.85932027211E+03  0.85932121058E+03  0.12700000000E+01 0.  1.
         25    2    1    2    0    0  0.00000000000E+00  0.00000000000E+00 -0.85486433937E+03  0.86395459343E+03  0.12499800317E+03 0.  0.
    9000005    1    3    3    0    0 -0.57498331580E+02  0.18090601156E+02 -0.31348321548E+03  0.31922727699E+03  0.10000000000E+01 0.  0.
    9000005    1    3    3    0    0  0.57498331580E+02 -0.18090601156E+02 -0.54138112389E+03  0.54472731645E+03  0.10000000000E+01 0.  0.
<mgrwt>
<rscale>  0 0.12499800E+03</rscale>
<asrwt>0</asrwt>
<pdfrwt beam="1">  1        4 0.69925099E-03 0.12499800E+03</pdfrwt>
<pdfrwt beam="2">  1       -4 0.13221671E+00 0.12499800E+03</pdfrwt>
<totfact> 0.35564580E+03</totfact>
</mgrwt>
</event>
<event>
 5    1  0.3331626E-002  0.1250010E+03  0.7818608E-02  0.1235068E+00
          4   -1    0    0  501    0  0.00000000000E+00  0.00000000000E+00  0.65865374467E+02  0.65877617243E+02  0.12700000000E+01 0. -1.
         -4   -1    0    0    0  501 -0.00000000000E+00 -0.00000000000E+00 -0.59282979429E+02  0.59296581267E+02  0.12700000000E+01 0. -1.
         25    2    1    2    0    0  0.00000000000E+00  0.00000000000E+00  0.65823950380E+01  0.12517419851E+03  0.12500100819E+03 0.  0.
    9000005    1    3    3    0    0  0.56149880773E+02  0.23082267605E+02 -0.11552052613E+02  0.61806553926E+02  0.10000000000E+01 0.  0.
    9000005    1    3    3    0    0 -0.56149880773E+02 -0.23082267605E+02  0.18134447651E+02  0.63367644585E+02  0.10000000000E+01 0.  0.
<mgrwt>
<rscale>  0 0.12500101E+03</rscale>
<asrwt>0</asrwt>
<pdfrwt beam="1">  1        4 0.10135123E-01 0.12500101E+03</pdfrwt>
<pdfrwt beam="2">  1       -4 0.91224464E-02 0.12500101E+03</pdfrwt>
<totfact> 0.10448842E+04</totfact>
</mgrwt>
</event>
<event>
 5    1  0.3331626E-002  0.1249957E+03  0.7818608E-02  0.1235076E+00
          4   -1    0    0  501    0  0.00000000000E+00  0.00000000000E+00  0.10979283933E+03  0.10980018428E+03  0.12700000000E+01 0.  1.
         -4   -1    0    0    0  501 -0.00000000000E+00 -0.00000000000E+00 -0.35556023560E+02  0.35578697438E+02  0.12700000000E+01 0.  1.
         25    2    1    2    0    0  0.00000000000E+00  0.00000000000E+00  0.74236815768E+02  0.14537888172E+03  0.12499565766E+03 0.  0.
    9000005    1    3    3    0    0 -0.33367391490E+02  0.55468906756E+01  0.98230346030E+02  0.10389586947E+03  0.10000000000E+01 0.  0.
    9000005    1    3    3    0    0  0.33367391490E+02 -0.55468906756E+01 -0.23993530262E+02  0.41483012251E+02  0.10000000000E+01 0.  0.
<mgrwt>
<rscale>  0 0.12499566E+03</rscale>
<asrwt>0</asrwt>
<pdfrwt beam="1">  1        4 0.16893515E-01 0.12499566E+03</pdfrwt>
<pdfrwt beam="2">  1       -4 0.54724667E-02 0.12499566E+03</pdfrwt>
<totfact> 0.10024276E+04</totfact>
</mgrwt>
</event>
<event>
 5    1  0.3331626E-002  0.1249948E+03  0.7818608E-02  0.1235077E+00
         -4   -1    0    0    0  501 -0.00000000000E+00  0.00000000000E+00  0.12377655930E+03  0.12378307449E+03  0.12700000000E+01 0. -1.
          4   -1    0    0  501    0  0.00000000000E+00 -0.00000000000E+00 -0.31536127751E+02  0.31561689649E+02  0.12700000000E+01 0. -1.
         25    2    1    2    0    0  0.00000000000E+00  0.00000000000E+00  0.92240431544E+02  0.15534476414E+03  0.12499479403E+03 0.  0.
    9000005    1    3    3    0    0 -0.17649709669E+02  0.34410724979E+02  0.10712324930E+03  0.11389469165E+03  0.10000000000E+01 0.  0.
    9000005    1    3    3    0    0  0.17649709669E+02 -0.34410724979E+02 -0.14882817760E+02  0.41450072490E+02  0.10000000000E+01 0.  0.
<mgrwt>
<rscale>  0 0.12499479E+03</rscale>
<asrwt>0</asrwt>
<pdfrwt beam="2">  1        4 0.48541795E-02 0.12499479E+03</pdfrwt>
<pdfrwt beam="1">  1       -4 0.19045015E-01 0.12499479E+03</pdfrwt>
<totfact> 0.98259363E+03</totfact>
</mgrwt>
</event>
<event>
 5    1  0.3331626E-002  0.1250014E+03  0.7818608E-02  0.1235067E+00
          4   -1    0    0  501    0  0.00000000000E+00  0.00000000000E+00  0.20635111726E+02  0.20674156233E+02  0.12700000000E+01 0. -1.
         -4   -1    0    0    0  501 -0.00000000000E+00 -0.00000000000E+00 -0.18908540146E+03  0.18908966641E+03  0.12700000000E+01 0. -1.
         25    2    1    2    0    0  0.00000000000E+00  0.00000000000E+00 -0.16845028973E+03  0.20976382265E+03  0.12500144471E+03 0.  0.
    9000005    1    3    3    0    0 -0.57733885500E+00 -0.24753091756E+02 -0.18051148773E+03  0.18220440740E+03  0.10000000000E+01 0.  0.
    9000005    1    3    3    0    0  0.57733885500E+00  0.24753091756E+02  0.12061198001E+02  0.27559415249E+02  0.10000000000E+01 0.  0.
<mgrwt>
<rscale>  0 0.12500144E+03</rscale>
<asrwt>0</asrwt>
<pdfrwt beam="1">  1        4 0.31779642E-02 0.12500144E+03</pdfrwt>
<pdfrwt beam="2">  1       -4 0.29093392E-01 0.12500144E+03</pdfrwt>
<totfact> 0.88511608E+03</totfact>
</mgrwt>
</event>
<event>
 5    1  0.3331626E-002  0.1249715E+03  0.7818608E-02  0.1235114E+00
         -4   -1    0    0    0  501 -0.00000000000E+00  0.00000000000E+00  0.24119324977E+02  0.24152737678E+02  0.12700000000E+01 0. -1.
          4   -1    0    0  501    0  0.00000000000E+00 -0.00000000000E+00 -0.16173328141E+03  0.16173826763E+03  0.12700000000E+01 0. -1.
         25    2    1    2    0    0  0.00000000000E+00  0.00000000000E+00 -0.13761395643E+03  0.18589100531E+03  0.12497145614E+03 0.  0.
    9000005    1    3    3    0    0 -0.22937556991E+02 -0.87965638735E+01 -0.15425491190E+03  0.15620207714E+03  0.10000000000E+01 0.  0.
    9000005    1    3    3    0    0  0.22937556991E+02  0.87965638735E+01  0.16640955470E+02  0.29688928166E+02  0.10000000000E+01 0.  0.
<mgrwt>
<rscale>  0 0.12497146E+03</rscale>
<asrwt>0</asrwt>
<pdfrwt beam="2">  1        4 0.24884996E-01 0.12497146E+03</pdfrwt>
<pdfrwt beam="1">  1       -4 0.37136192E-02 0.12497146E+03</pdfrwt>
<totfact> 0.92626457E+03</totfact>
</mgrwt>
</event>
<event>
 5    1  0.3331626E-002  0.1249985E+03  0.7818608E-02  0.1235072E+00
         -4   -1    0    0    0  501 -0.00000000000E+00  0.00000000000E+00  0.52324926657E+02  0.52340336736E+02  0.12700000000E+01 0. -1.
          4   -1    0    0  501    0  0.00000000000E+00 -0.00000000000E+00 -0.74620058612E+02  0.74630865245E+02  0.12700000000E+01 0. -1.
         25    2    1    2    0    0  0.00000000000E+00  0.00000000000E+00 -0.22295131956E+02  0.12697120198E+03  0.12499845288E+03 0.  0.
    9000005    1    3    3    0    0  0.50882477825E+02 -0.35166360206E+02 -0.20201933324E+02  0.65075475794E+02  0.10000000000E+01 0.  0.
    9000005    1    3    3    0    0 -0.50882477825E+02  0.35166360206E+02 -0.20931986314E+01  0.61895726187E+02  0.10000000000E+01 0.  0.
<mgrwt>
<rscale>  0 0.12499845E+03</rscale>
<asrwt>0</asrwt>
<pdfrwt beam="2">  1        4 0.11482026E-01 0.12499845E+03</pdfrwt>
<pdfrwt beam="1">  1       -4 0.80520054E-02 0.12499845E+03</pdfrwt>
<totfact> 0.10410135E+04</totfact>
</mgrwt>
</event>
<event>
 5    1  0.3331626E-002  0.1249876E+03  0.7818608E-02  0.1235089E+00
          4   -1    0    0  501    0  0.00000000000E+00  0.00000000000E+00  0.47104548750E+02  0.47121666067E+02  0.12700000000E+01 0.  1.
         -4   -1    0    0    0  501 -0.00000000000E+00 -0.00000000000E+00 -0.82873735785E+02  0.82883466283E+02  0.12700000000E+01 0.  1.
         25    2    1    2    0    0  0.00000000000E+00  0.00000000000E+00 -0.35769187035E+02  0.13000513235E+03  0.12498759817E+03 0.  0.
    9000005    1    3    3    0    0  0.30967017553E+02  0.27831201953E+02  0.30579241800E+02  0.51668384988E+02  0.10000000000E+01 0.  0.
    9000005    1    3    3    0    0 -0.30967017553E+02 -0.27831201953E+02 -0.66348428835E+02  0.78336747361E+02  0.10000000000E+01 0.  0.
<mgrwt>
<rscale>  0 0.12498760E+03</rscale>
<asrwt>0</asrwt>
<pdfrwt beam="1">  1        4 0.72489189E-02 0.12498760E+03</pdfrwt>
<pdfrwt beam="2">  1       -4 0.12751871E-01 0.12498760E+03</pdfrwt>
<totfact> 0.10347294E+04</totfact>
</mgrwt>
</event>
<event>
 5    1  0.3331626E-002  0.1249995E+03  0.7818608E-02  0.1235070E+00
          4   -1    0    0  501    0  0.00000000000E+00  0.00000000000E+00  0.85932511990E+01  0.86865911708E+01  0.12700000000E+01 0.  1.
         -4   -1    0    0    0  501 -0.00000000000E+00 -0.00000000000E+00 -0.45201846042E+03  0.45202024452E+03  0.12700000000E+01 0.  1.
         25    2    1    2    0    0  0.00000000000E+00  0.00000000000E+00 -0.44342520922E+03  0.46070683569E+03  0.12499948914E+03 0.  0.
    9000005    1    3    3    0    0  0.14178948765E+02  0.38045850231E+02 -0.39679893932E+03  0.39887206916E+03  0.10000000000E+01 0.  0.
    9000005    1    3    3    0    0 -0.14178948765E+02 -0.38045850231E+02 -0.46626269895E+02  0.61834766534E+02  0.10000000000E+01 0.  0.
<mgrwt>
<rscale>  0 0.12499949E+03</rscale>
<asrwt>0</asrwt>
<pdfrwt beam="1">  1        4 0.13293562E-02 0.12499949E+03</pdfrwt>
<pdfrwt beam="2">  1       -4 0.69548600E-01 0.12499949E+03</pdfrwt>
<totfact> 0.59048029E+03</totfact>
</mgrwt>
</event>
<event>
 5    1  0.3331626E-002  0.1249995E+03  0.7818608E-02  0.1235070E+00
         -4   -1    0    0    0  501 -0.00000000000E+00  0.00000000000E+00  0.39461638508E+02  0.39482069522E+02  0.12700000000E+01 0. -1.
          4   -1    0    0  501    0  0.00000000000E+00 -0.00000000000E+00 -0.98937682036E+02  0.98945832790E+02  0.12700000000E+01 0. -1.
         25    2    1    2    0    0  0.00000000000E+00  0.00000000000E+00 -0.59476043528E+02  0.13842790231E+03  0.12499953754E+03 0.  0.
    9000005    1    3    3    0    0  0.18157544761E+02  0.57805960920E+02 -0.12797802492E+02  0.61935525333E+02  0.10000000000E+01 0.  0.
    9000005    1    3    3    0    0 -0.18157544761E+02 -0.57805960920E+02 -0.46678241036E+02  0.76492376979E+02  0.10000000000E+01 0.  0.
<mgrwt>
<rscale>  0 0.12499954E+03</rscale>
<asrwt>0</asrwt>
<pdfrwt beam="2">  1        4 0.15223380E-01 0.12499954E+03</pdfrwt>
<pdfrwt beam="1">  1       -4 0.60732199E-02 0.12499954E+03</pdfrwt>
<totfact> 0.10166379E+04</totfact>
</mgrwt>
</event>
<event>
 5    1  0.3331626E-002  0.1249987E+03  0.7818608E-02  0.1235071E+00
          4   -1    0    0  501    0  0.00000000000E+00  0.00000000000E+00  0.50917919367E+02  0.50933755140E+02  0.12700000000E+01 0. -1.
         -4   -1    0    0    0  501 -0.00000000000E+00 -0.00000000000E+00 -0.76682006016E+02  0.76692522104E+02  0.12700000000E+01 0. -1.
         25    2    1    2    0    0  0.00000000000E+00  0.00000000000E+00 -0.25764086650E+02  0.12762627724E+03  0.12499871392E+03 0.  0.
    9000005    1    3    3    0    0  0.35702891784E+02 -0.46664989541E+02 -0.34609687929E+02  0.68199327190E+02  0.10000000000E+01 0.  0.
    9000005    1    3    3    0    0 -0.35702891784E+02  0.46664989541E+02  0.88456012796E+01  0.59426950053E+02  0.10000000000E+01 0.  0.
<mgrwt>
<rscale>  0 0.12499871E+03</rscale>
<asrwt>0</asrwt>
<pdfrwt beam="1">  1        4 0.78355531E-02 0.12499871E+03</pdfrwt>
<pdfrwt beam="2">  1       -4 0.11799259E-01 0.12499871E+03</pdfrwt>
<totfact> 0.10395869E+04</totfact>
</mgrwt>
</event>
<event>
 5    1  0.3331626E-002  0.1249989E+03  0.7818608E-02  0.1235071E+00
         -4   -1    0    0    0  501 -0.00000000000E+00  0.00000000000E+00  0.12716227883E+02  0.12779489488E+02  0.12700000000E+01 0. -1.
          4   -1    0    0  501    0  0.00000000000E+00 -0.00000000000E+00 -0.30635405435E+03  0.30635668675E+03  0.12700000000E+01 0. -1.
         25    2    1    2    0    0  0.00000000000E+00  0.00000000000E+00 -0.29363782647E+03  0.31913617624E+03  0.12499890340E+03 0.  0.
    9000005    1    3    3    0    0 -0.48574319343E+02  0.25088851002E+02 -0.22410133853E+03  0.23067580037E+03  0.10000000000E+01 0.  0.
    9000005    1    3    3    0    0  0.48574319343E+02 -0.25088851002E+02 -0.69536487931E+02  0.88460375864E+02  0.10000000000E+01 0.  0.
<mgrwt>
<rscale>  0 0.12499890E+03</rscale>
<asrwt>0</asrwt>
<pdfrwt beam="2">  1        4 0.47136456E-01 0.12499890E+03</pdfrwt>
<pdfrwt beam="1">  1       -4 0.19614118E-02 0.12499890E+03</pdfrwt>
<totfact> 0.73260767E+03</totfact>
</mgrwt>
</event>
<event>
 5    1  0.3331626E-002  0.1249987E+03  0.7818608E-02  0.1235071E+00
          4   -1    0    0  501    0  0.00000000000E+00  0.00000000000E+00  0.49386817944E+01  0.50993605351E+01  0.12700000000E+01 0.  1.
         -4   -1    0    0    0  501 -0.00000000000E+00 -0.00000000000E+00 -0.77811187208E+03  0.77811290850E+03  0.12700000000E+01 0.  1.
         25    2    1    2    0    0  0.00000000000E+00  0.00000000000E+00 -0.77317319029E+03  0.78321226903E+03  0.12499870475E+03 0.  0.
    9000005    1    3    3    0    0  0.92940419625E+01  0.47574175454E+02 -0.63370623049E+03  0.63555823333E+03  0.10000000000E+01 0.  0.
    9000005    1    3    3    0    0 -0.92940419625E+01 -0.47574175454E+02 -0.13946695979E+03  0.14765403570E+03  0.10000000000E+01 0.  0.
<mgrwt>
<rscale>  0 0.12499870E+03</rscale>
<asrwt>0</asrwt>
<pdfrwt beam="1">  1        4 0.77223744E-03 0.12499870E+03</pdfrwt>
<pdfrwt beam="2">  1       -4 0.11972186E+00 0.12499870E+03</pdfrwt>
<totfact> 0.39026383E+03</totfact>
</mgrwt>
</event>
<event>
 5    1  0.3331626E-002  0.1250015E+03  0.7818608E-02  0.1235067E+00
          4   -1    0    0  501    0  0.00000000000E+00  0.00000000000E+00  0.20872134699E+02  0.20910736641E+02  0.12700000000E+01 0.  1.
         -4   -1    0    0    0  501 -0.00000000000E+00 -0.00000000000E+00 -0.18694224769E+03  0.18694656154E+03  0.12700000000E+01 0.  1.
         25    2    1    2    0    0  0.00000000000E+00  0.00000000000E+00 -0.16607011299E+03  0.20785729818E+03  0.12500149590E+03 0.  0.
    9000005    1    3    3    0    0 -0.34043184458E+02 -0.49276045175E+02 -0.53369511863E+02  0.80227001892E+02  0.10000000000E+01 0.  0.
    9000005    1    3    3    0    0  0.34043184458E+02  0.49276045175E+02 -0.11270060113E+03  0.12763029629E+03  0.10000000000E+01 0.  0.
<mgrwt>
<rscale>  0 0.12500150E+03</rscale>
<asrwt>0</asrwt>
<pdfrwt beam="1">  1        4 0.32143990E-02 0.12500150E+03</pdfrwt>
<pdfrwt beam="2">  1       -4 0.28763646E-01 0.12500150E+03</pdfrwt>
<totfact> 0.88824041E+03</totfact>
</mgrwt>
</event>
<event>
 5    1  0.3331626E-002  0.1250005E+03  0.7818608E-02  0.1235068E+00
         -4   -1    0    0    0  501 -0.00000000000E+00  0.00000000000E+00  0.26593282322E+03  0.26593585573E+03  0.12700000000E+01 0.  1.
          4   -1    0    0  501    0  0.00000000000E+00 -0.00000000000E+00 -0.14658412985E+02  0.14713326315E+02  0.12700000000E+01 0.  1.
         25    2    1    2    0    0  0.00000000000E+00  0.00000000000E+00  0.25127441023E+03  0.28064918205E+03  0.12500053659E+03 0.  0.
    9000005    1    3    3    0    0 -0.47650263989E+02 -0.35178403487E+02  0.80890077286E+02  0.10026102101E+03  0.10000000000E+01 0.  0.
    9000005    1    3    3    0    0  0.47650263989E+02  0.35178403487E+02  0.17038433295E+03  0.18038816104E+03  0.10000000000E+01 0.  0.
<mgrwt>
<rscale>  0 0.12500054E+03</rscale>
<asrwt>0</asrwt>
<pdfrwt beam="2">  1        4 0.22595981E-02 0.12500054E+03</pdfrwt>
<pdfrwt beam="1">  1       -4 0.40917195E-01 0.12500054E+03</pdfrwt>
<totfact> 0.78091178E+03</totfact>
</mgrwt>
</event>
<event>
 5    1  0.3331626E-002  0.1249993E+03  0.7818608E-02  0.1235070E+00
         -4   -1    0    0    0  501 -0.00000000000E+00  0.00000000000E+00  0.10263741271E+02  0.10342015514E+02  0.12700000000E+01 0.  1.
          4   -1    0    0  501    0  0.00000000000E+00 -0.00000000000E+00 -0.37905799790E+03  0.37906012541E+03  0.12700000000E+01 0.  1.
         25    2    1    2    0    0  0.00000000000E+00  0.00000000000E+00 -0.36879425663E+03  0.38940214092E+03  0.12499929452E+03 0.  0.
    9000005    1    3    3    0    0 -0.17387737204E+02 -0.49114107613E+02 -0.76902257139E+02  0.92895027449E+02  0.10000000000E+01 0.  0.
    9000005    1    3    3    0    0  0.17387737204E+02  0.49114107613E+02 -0.29189199949E+03  0.29650711347E+03  0.10000000000E+01 0.  0.
<mgrwt>
<rscale>  0 0.12499929E+03</rscale>
<asrwt>0</asrwt>
<pdfrwt beam="2">  1        4 0.58322789E-01 0.12499929E+03</pdfrwt>
<pdfrwt beam="1">  1       -4 0.15852222E-02 0.12499929E+03</pdfrwt>
<totfact> 0.65597769E+03</totfact>
</mgrwt>
</event>
<event>
 5    1  0.3331626E-002  0.1250002E+03  0.7818608E-02  0.1235069E+00
         -4   -1    0    0    0  501 -0.00000000000E+00  0.00000000000E+00  0.14611792339E+03  0.14612344246E+03  0.12700000000E+01 0.  1.
          4   -1    0    0  501    0  0.00000000000E+00 -0.00000000000E+00 -0.26712540321E+02  0.26742713221E+02  0.12700000000E+01 0.  1.
         25    2    1    2    0    0  0.00000000000E+00  0.00000000000E+00  0.11940538307E+03  0.17286615568E+03  0.12500024909E+03 0.  0.
    9000005    1    3    3    0    0 -0.35514003327E+02  0.51387973516E+02  0.62213879625E+02  0.88167653209E+02  0.10000000000E+01 0.  0.
    9000005    1    3    3    0    0  0.35514003327E+02 -0.51387973516E+02  0.57191503443E+02  0.84698502469E+02  0.10000000000E+01 0.  0.
<mgrwt>
<rscale>  0 0.12500025E+03</rscale>
<asrwt>0</asrwt>
<pdfrwt beam="2">  1        4 0.41123671E-02 0.12500025E+03</pdfrwt>
<pdfrwt beam="1">  1       -4 0.22482426E-01 0.12500025E+03</pdfrwt>
<totfact> 0.94916578E+03</totfact>
</mgrwt>
</event>
<event>
 5    1  0.3331626E-002  0.1249999E+03  0.7818608E-02  0.1235069E+00
         -4   -1    0    0    0  501 -0.00000000000E+00  0.00000000000E+00  0.65754591064E+02  0.65766854463E+02  0.12700000000E+01 0.  1.
          4   -1    0    0  501    0  0.00000000000E+00 -0.00000000000E+00 -0.59381775232E+02  0.59395354446E+02  0.12700000000E+01 0.  1.
         25    2    1    2    0    0  0.00000000000E+00  0.00000000000E+00  0.63728158315E+01  0.12516220891E+03  0.12499986303E+03 0.  0.
    9000005    1    3    3    0    0 -0.30668752563E+01 -0.19957861540E+02  0.62403046742E+02  0.65596205712E+02  0.10000000000E+01 0.  0.
    9000005    1    3    3    0    0  0.30668752563E+01  0.19957861540E+02 -0.56030230910E+02  0.59566003198E+02  0.10000000000E+01 0.  0.
<mgrwt>
<rscale>  0 0.12499986E+03</rscale>
<asrwt>0</asrwt>
<pdfrwt beam="2">  1        4 0.91376456E-02 0.12499986E+03</pdfrwt>
<pdfrwt beam="1">  1       -4 0.10118079E-01 0.12499986E+03</pdfrwt>
<totfact> 0.10449373E+04</totfact>
</mgrwt>
</event>
<event>
 5    1  0.3331626E-002  0.1250014E+03  0.7818608E-02  0.1235067E+00
         -4   -1    0    0    0  501 -0.00000000000E+00  0.00000000000E+00  0.16731203280E+02  0.16779334409E+02  0.12700000000E+01 0.  1.
          4   -1    0    0  501    0  0.00000000000E+00 -0.00000000000E+00 -0.23309101617E+03  0.23309447595E+03  0.12700000000E+01 0.  1.
         25    2    1    2    0    0  0.00000000000E+00  0.00000000000E+00 -0.21635981289E+03  0.24987381036E+03  0.12500140987E+03 0.  0.
    9000005    1    3    3    0    0  0.48205061893E+02  0.28849616004E+02 -0.16289870198E+03  0.17231661395E+03  0.10000000000E+01 0.  0.
    9000005    1    3    3    0    0 -0.48205061893E+02 -0.28849616004E+02 -0.53461110911E+02  0.77557196414E+02  0.10000000000E+01 0.  0.
<mgrwt>
<rscale>  0 0.12500141E+03</rscale>
<asrwt>0</asrwt>
<pdfrwt beam="2">  1        4 0.35864122E-01 0.12500141E+03</pdfrwt>
<pdfrwt beam="1">  1       -4 0.25780000E-02 0.12500141E+03</pdfrwt>
<totfact> 0.82345884E+03</totfact>
</mgrwt>
</event>
<event>
 5    1  0.3331626E-002  0.1250010E+03  0.7818608E-02  0.1235068E+00
          4   -1    0    0  501    0  0.00000000000E+00  0.00000000000E+00  0.84712617631E+01  0.85659311145E+01  0.12700000000E+01 0. -1.
         -4   -1    0    0    0  501 -0.00000000000E+00 -0.00000000000E+00 -0.45846706571E+03  0.45846882472E+03  0.12700000000E+01 0. -1.
         25    2    1    2    0    0  0.00000000000E+00  0.00000000000E+00 -0.44999580394E+03  0.46703475583E+03  0.12500095835E+03 0.  0.
    9000005    1    3    3    0    0 -0.46067795428E+01 -0.46995390995E+02 -0.37793426495E+03  0.38087412332E+03  0.10000000000E+01 0.  0.
    9000005    1    3    3    0    0  0.46067795428E+01  0.46995390995E+02 -0.72061538997E+02  0.86160632514E+02  0.10000000000E+01 0.  0.
<mgrwt>
<rscale>  0 0.12500096E+03</rscale>
<asrwt>0</asrwt>
<pdfrwt beam="1">  1        4 0.13106890E-02 0.12500096E+03</pdfrwt>
<pdfrwt beam="2">  1       -4 0.70540793E-01 0.12500096E+03</pdfrwt>
<totfact> 0.58514741E+03</totfact>
</mgrwt>
</event>
<event>
 5    1  0.3331626E-002  0.1250016E+03  0.7818608E-02  0.1235067E+00
          4   -1    0    0  501    0  0.00000000000E+00  0.00000000000E+00  0.25556861866E+01  0.28538451052E+01  0.12700000000E+01 0.  1.
         -4   -1    0    0    0  501 -0.00000000000E+00 -0.00000000000E+00 -0.14439497846E+04  0.14439503431E+04  0.12700000000E+01 0.  1.
         25    2    1    2    0    0  0.00000000000E+00  0.00000000000E+00 -0.14413940984E+04  0.14468041882E+04  0.12500164829E+03 0.  0.
    9000005    1    3    3    0    0  0.57094496288E+02 -0.89954995597E+01 -0.44566415102E+03  0.44939763687E+03  0.10000000000E+01 0.  0.
    9000005    1    3    3    0    0 -0.57094496288E+02  0.89954995597E+01 -0.99572994743E+03  0.99740655138E+03  0.10000000000E+01 0.  0.
<mgrwt>
<rscale>  0 0.12500165E+03</rscale>
<asrwt>0</asrwt>
<pdfrwt beam="1">  1        4 0.41616191E-03 0.12500165E+03</pdfrwt>
<pdfrwt beam="2">  1       -4 0.22216848E+00 0.12500165E+03</pdfrwt>
<totfact> 0.18997680E+03</totfact>
</mgrwt>
</event>
<event>
 5    1  0.3331626E-002  0.1249993E+03  0.7818608E-02  0.1235070E+00
          4   -1    0    0  501    0  0.00000000000E+00  0.00000000000E+00  0.10725904499E+03  0.10726656344E+03  0.12700000000E+01 0. -1.
         -4   -1    0    0    0  501 -0.00000000000E+00 -0.00000000000E+00 -0.36398538462E+02  0.36420687833E+02  0.12700000000E+01 0. -1.
         25    2    1    2    0    0  0.00000000000E+00  0.00000000000E+00  0.70860506525E+02  0.14368725127E+03  0.12499925917E+03 0.  0.
    9000005    1    3    3    0    0 -0.14806713648E+02  0.51802693893E+02  0.71825214025E+02  0.89792088924E+02  0.10000000000E+01 0.  0.
    9000005    1    3    3    0    0  0.14806713648E+02 -0.51802693893E+02 -0.96470749984E+00  0.53895162345E+02  0.10000000000E+01 0.  0.
<mgrwt>
<rscale>  0 0.12499926E+03</rscale>
<asrwt>0</asrwt>
<pdfrwt beam="1">  1        4 0.16503673E-01 0.12499926E+03</pdfrwt>
<pdfrwt beam="2">  1       -4 0.56020574E-02 0.12499926E+03</pdfrwt>
<totfact> 0.10057897E+04</totfact>
</mgrwt>
</event>
<event>
 5    1  0.3331626E-002  0.1249998E+03  0.7818608E-02  0.1235070E+00
          4   -1    0    0  501    0  0.00000000000E+00  0.00000000000E+00  0.61899589172E+02  0.61912616159E+02  0.12700000000E+01 0. -1.
         -4   -1    0    0    0  501 -0.00000000000E+00 -0.00000000000E+00 -0.63080006917E+02  0.63092790179E+02  0.12700000000E+01 0. -1.
         25    2    1    2    0    0  0.00000000000E+00  0.00000000000E+00 -0.11804177448E+01  0.12500540634E+03  0.12499983291E+03 0.  0.
    9000005    1    3    3    0    0 -0.19839703283E+02 -0.58684029798E+02  0.76448639481E+01  0.62424939924E+02  0.10000000000E+01 0.  0.
    9000005    1    3    3    0    0  0.19839703283E+02  0.58684029798E+02 -0.88252816929E+01  0.62580466414E+02  0.10000000000E+01 0.  0.
<mgrwt>
<rscale>  0 0.12499983E+03</rscale>
<asrwt>0</asrwt>
<pdfrwt beam="1">  1        4 0.95249991E-02 0.12499983E+03</pdfrwt>
<pdfrwt beam="2">  1       -4 0.97066019E-02 0.12499983E+03</pdfrwt>
<totfact> 0.10452785E+04</totfact>
</mgrwt>
</event>
<event>
 5    1  0.3331626E-002  0.1250025E+03  0.7818608E-02  0.1235065E+00
         -4   -1    0    0    0  501 -0.00000000000E+00  0.00000000000E+00  0.85463356549E+01  0.86401824707E+01  0.12700000000E+01 0.  1.
          4   -1    0    0  501    0  0.00000000000E+00 -0.00000000000E+00 -0.45449460218E+03  0.45449637657E+03  0.12700000000E+01 0.  1.
         25    2    1    2    0    0  0.00000000000E+00  0.00000000000E+00 -0.44594826653E+03  0.46313655904E+03  0.12500246357E+03 0.  0.
    9000005    1    3    3    0    0  0.58999252124E+02 -0.10694989158E+02 -0.15772902155E+03  0.16874459631E+03  0.10000000000E+01 0.  0.
    9000005    1    3    3    0    0 -0.58999252124E+02  0.10694989158E+02 -0.28821924498E+03  0.29439196273E+03  0.10000000000E+01 0.  0.
<mgrwt>
<rscale>  0 0.12500246E+03</rscale>
<asrwt>0</asrwt>
<pdfrwt beam="2">  1        4 0.69929583E-01 0.12500246E+03</pdfrwt>
<pdfrwt beam="1">  1       -4 0.13221767E-02 0.12500246E+03</pdfrwt>
<totfact> 0.58839249E+03</totfact>
</mgrwt>
</event>
<event>
 5    1  0.3331626E-002  0.1250002E+03  0.7818608E-02  0.1235069E+00
         -4   -1    0    0    0  501 -0.00000000000E+00  0.00000000000E+00  0.48458687051E+03  0.48458853470E+03  0.12700000000E+01 0. -1.
          4   -1    0    0  501    0  0.00000000000E+00 -0.00000000000E+00 -0.80093079409E+01  0.81093719666E+01  0.12700000000E+01 0. -1.
         25    2    1    2    0    0  0.00000000000E+00  0.00000000000E+00  0.47657756257E+03  0.49269790667E+03  0.12500021639E+03 0.  0.
    9000005    1    3    3    0    0  0.57945854468E+02 -0.22996738783E+02  0.25532965246E+03  0.26283227251E+03  0.10000000000E+01 0.  0.
    9000005    1    3    3    0    0 -0.57945854468E+02  0.22996738783E+02  0.22124791010E+03  0.22986563416E+03  0.10000000000E+01 0.  0.
<mgrwt>
<rscale>  0 0.12500022E+03</rscale>
<asrwt>0</asrwt>
<pdfrwt beam="2">  1        4 0.12400264E-02 0.12500022E+03</pdfrwt>
<pdfrwt beam="1">  1       -4 0.74559658E-01 0.12500022E+03</pdfrwt>
<totfact> 0.56435130E+03</totfact>
</mgrwt>
</event>
<event>
 5    1  0.3331626E-002  0.1249989E+03  0.7818608E-02  0.1235071E+00
         -4   -1    0    0    0  501 -0.00000000000E+00  0.00000000000E+00  0.11312513457E+02  0.11383578555E+02  0.12700000000E+01 0. -1.
          4   -1    0    0  501    0  0.00000000000E+00 -0.00000000000E+00 -0.34414397359E+03  0.34414631693E+03  0.12700000000E+01 0. -1.
         25    2    1    2    0    0  0.00000000000E+00  0.00000000000E+00 -0.33283146013E+03  0.35552989548E+03  0.12499890292E+03 0.  0.
    9000005    1    3    3    0    0  0.20308231140E+02 -0.18480331460E+02 -0.32608093661E+03  0.32723649571E+03  0.10000000000E+01 0.  0.
    9000005    1    3    3    0    0 -0.20308231140E+02  0.18480331460E+02 -0.67505235146E+01  0.28293399771E+02  0.10000000000E+01 0.  0.
<mgrwt>
<rscale>  0 0.12499890E+03</rscale>
<asrwt>0</asrwt>
<pdfrwt beam="2">  1        4 0.52950865E-01 0.12499890E+03</pdfrwt>
<pdfrwt beam="1">  1       -4 0.17460338E-02 0.12499890E+03</pdfrwt>
<totfact> 0.69122135E+03</totfact>
</mgrwt>
</event>
<event>
 5    1  0.3331626E-002  0.1250010E+03  0.7818608E-02  0.1235068E+00
         -4   -1    0    0    0  501 -0.00000000000E+00  0.00000000000E+00  0.89569296163E+03  0.89569386199E+03  0.12700000000E+01 0. -1.
          4   -1    0    0  501    0  0.00000000000E+00 -0.00000000000E+00 -0.42678391069E+01  0.44527913315E+01  0.12700000000E+01 0. -1.
         25    2    1    2    0    0  0.00000000000E+00  0.00000000000E+00  0.89142512252E+03  0.90014665332E+03  0.12500099371E+03 0.  0.
    9000005    1    3    3    0    0 -0.98227465673E+00  0.61980943036E+02  0.50273791806E+03  0.50654616415E+03  0.10000000000E+01 0.  0.
    9000005    1    3    3    0    0  0.98227465673E+00 -0.61980943036E+02  0.38868720446E+03  0.39360048917E+03  0.10000000000E+01 0.  0.
<mgrwt>
<rscale>  0 0.12500099E+03</rscale>
<asrwt>0</asrwt>
<pdfrwt beam="2">  1        4 0.67088644E-03 0.12500099E+03</pdfrwt>
<pdfrwt beam="1">  1       -4 0.13781333E+00 0.12500099E+03</pdfrwt>
<totfact> 0.34153532E+03</totfact>
</mgrwt>
</event>
<event>
 5    1  0.3331626E-002  0.1249995E+03  0.7818608E-02  0.1235070E+00
         -4   -1    0    0    0  501 -0.00000000000E+00  0.00000000000E+00  0.13451741245E+03  0.13452340745E+03  0.12700000000E+01 0. -1.
          4   -1    0    0  501    0  0.00000000000E+00 -0.00000000000E+00 -0.29018214259E+02  0.29045992130E+02  0.12700000000E+01 0. -1.
         25    2    1    2    0    0  0.00000000000E+00  0.00000000000E+00  0.10549919819E+03  0.16356939958E+03  0.12499947064E+03 0.  0.
    9000005    1    3    3    0    0  0.59444128600E+02 -0.19273783452E+02  0.52271013816E+02  0.81476021252E+02  0.10000000000E+01 0.  0.
    9000005    1    3    3    0    0 -0.59444128600E+02  0.19273783452E+02  0.53228184373E+02  0.82093378328E+02  0.10000000000E+01 0.  0.
<mgrwt>
<rscale>  0 0.12499947E+03</rscale>
<asrwt>0</asrwt>
<pdfrwt beam="2">  1        4 0.44669385E-02 0.12499947E+03</pdfrwt>
<pdfrwt beam="1">  1       -4 0.20697585E-01 0.12499947E+03</pdfrwt>
<totfact> 0.96660162E+03</totfact>
</mgrwt>
</event>
<event>
 5    1  0.3331626E-002  0.1249987E+03  0.7818608E-02  0.1235071E+00
          4   -1    0    0  501    0  0.00000000000E+00  0.00000000000E+00  0.10542917550E+03  0.10543682444E+03  0.12700000000E+01 0. -1.
         -4   -1    0    0    0  501 -0.00000000000E+00 -0.00000000000E+00 -0.37030275382E+02  0.37052047108E+02  0.12700000000E+01 0. -1.
         25    2    1    2    0    0  0.00000000000E+00  0.00000000000E+00  0.68398900123E+02  0.14248887155E+03  0.12499867590E+03 0.  0.
    9000005    1    3    3    0    0 -0.26623729452E+02 -0.56181928602E+02  0.41403111911E+02  0.74702407908E+02  0.10000000000E+01 0.  0.
    9000005    1    3    3    0    0  0.26623729452E+02  0.56181928602E+02  0.26995788212E+02  0.67786463638E+02  0.10000000000E+01 0.  0.
<mgrwt>
<rscale>  0 0.12499868E+03</rscale>
<asrwt>0</asrwt>
<pdfrwt beam="1">  1        4 0.16222136E-01 0.12499868E+03</pdfrwt>
<pdfrwt beam="2">  1       -4 0.56992286E-02 0.12499868E+03</pdfrwt>
<totfact> 0.10082561E+04</totfact>
</mgrwt>
</event>
<event>
 4    1  0.3331626E-002  0.1251037E+03  0.7818608E-02  0.1234907E+00
          4   -1    0    0  501    0  0.00000000000E+00  0.00000000000E+00  0.11314944000E+03  0.11315656707E+03  0.12700000000E+01 0. -1.
         -4   -1    0    0    0  501 -0.00000000000E+00 -0.00000000000E+00 -0.34560349620E+02  0.34583676292E+02  0.12700000000E+01 0. -1.
    9000005    1    1    2    0    0 -0.20845943624E+02  0.50967866413E+02  0.42729489972E+01  0.55240699357E+02  0.10000000000E+01 0.  0.
    9000005    1    1    2    0    0  0.20845943624E+02 -0.50967866413E+02  0.74316141381E+02  0.92499544010E+02  0.10000000000E+01 0.  0.
<mgrwt>
<rscale>  0 0.12510369E+03</rscale>
<asrwt>0</asrwt>
<pdfrwt beam="1">  1        4 0.17409949E-01 0.12510369E+03</pdfrwt>
<pdfrwt beam="2">  1       -4 0.53193194E-02 0.12510369E+03</pdfrwt>
<totfact> 0.99523566E+03</totfact>
</mgrwt>
</event>
<event>
 5    1  0.3331626E-002  0.1249996E+03  0.7818608E-02  0.1235070E+00
         -4   -1    0    0    0  501 -0.00000000000E+00  0.00000000000E+00  0.26369638156E+02  0.26400202963E+02  0.12700000000E+01 0. -1.
          4   -1    0    0  501    0  0.00000000000E+00 -0.00000000000E+00 -0.14801440180E+03  0.14801985016E+03  0.12700000000E+01 0. -1.
         25    2    1    2    0    0  0.00000000000E+00  0.00000000000E+00 -0.12164476365E+03  0.17442005312E+03  0.12499962563E+03 0.  0.
    9000005    1    3    3    0    0 -0.46291301177E+02  0.31528910377E+02 -0.22146110652E+02  0.60236259605E+02  0.10000000000E+01 0.  0.
    9000005    1    3    3    0    0  0.46291301177E+02 -0.31528910377E+02 -0.99498652995E+02  0.11418379352E+03  0.10000000000E+01 0.  0.
<mgrwt>
<rscale>  0 0.12499963E+03</rscale>
<asrwt>0</asrwt>
<pdfrwt beam="2">  1        4 0.22774216E-01 0.12499963E+03</pdfrwt>
<pdfrwt beam="1">  1       -4 0.40596377E-02 0.12499963E+03</pdfrwt>
<totfact> 0.94631959E+03</totfact>
</mgrwt>
</event>
<event>
 5    1  0.3331626E-002  0.1249993E+03  0.7818608E-02  0.1235070E+00
         -4   -1    0    0    0  501 -0.00000000000E+00  0.00000000000E+00  0.56657172123E+02  0.56671404191E+02  0.12700000000E+01 0.  1.
          4   -1    0    0  501    0  0.00000000000E+00 -0.00000000000E+00 -0.68915870818E+02  0.68927571774E+02  0.12700000000E+01 0.  1.
         25    2    1    2    0    0  0.00000000000E+00  0.00000000000E+00 -0.12258698695E+02  0.12559897597E+03  0.12499930828E+03 0.  0.
    9000005    1    3    3    0    0 -0.50155678298E+02  0.34929078448E+02  0.69551874373E+01  0.61522412332E+02  0.10000000000E+01 0.  0.
    9000005    1    3    3    0    0  0.50155678298E+02 -0.34929078448E+02 -0.19213886132E+02  0.64076563634E+02  0.10000000000E+01 0.  0.
<mgrwt>
<rscale>  0 0.12499931E+03</rscale>
<asrwt>0</asrwt>
<pdfrwt beam="2">  1        4 0.10604437E-01 0.12499931E+03</pdfrwt>
<pdfrwt beam="1">  1       -4 0.87184828E-02 0.12499931E+03</pdfrwt>
<totfact> 0.10439932E+04</totfact>
</mgrwt>
</event>
<event>
 5    1  0.3331626E-002  0.1249991E+03  0.7818608E-02  0.1235071E+00
         -4   -1    0    0    0  501 -0.00000000000E+00  0.00000000000E+00  0.79222762902E+03  0.79222864697E+03  0.12700000000E+01 0. -1.
          4   -1    0    0  501    0  0.00000000000E+00 -0.00000000000E+00 -0.48478257735E+01  0.50114184349E+01  0.12700000000E+01 0. -1.
         25    2    1    2    0    0  0.00000000000E+00  0.00000000000E+00  0.78737980325E+03  0.79724006541E+03  0.12499906931E+03 0.  0.
    9000005    1    3    3    0    0  0.61790479708E+02 -0.29327792051E+01  0.33717115174E+03  0.34280030651E+03  0.10000000000E+01 0.  0.
    9000005    1    3    3    0    0 -0.61790479708E+02  0.29327792051E+01  0.45020865151E+03  0.45443975890E+03  0.10000000000E+01 0.  0.
<mgrwt>
<rscale>  0 0.12499907E+03</rscale>
<asrwt>0</asrwt>
<pdfrwt beam="2">  1        4 0.75848143E-03 0.12499907E+03</pdfrwt>
<pdfrwt beam="1">  1       -4 0.12189388E+00 0.12499907E+03</pdfrwt>
<totfact> 0.38389000E+03</totfact>
</mgrwt>
</event>
<event>
 5    1  0.3331626E-002  0.1249809E+03  0.7818608E-02  0.1235099E+00
         -4   -1    0    0    0  501 -0.00000000000E+00  0.00000000000E+00  0.13844362835E+03  0.13844945334E+03  0.12700000000E+01 0. -1.
          4   -1    0    0  501    0  0.00000000000E+00 -0.00000000000E+00 -0.28186114720E+02  0.28214711819E+02  0.12700000000E+01 0. -1.
         25    2    1    2    0    0  0.00000000000E+00  0.00000000000E+00  0.11025751363E+03  0.16666416516E+03  0.12498089709E+03 0.  0.
    9000005    1    3    3    0    0  0.21560381560E+02 -0.10627266317E+02  0.13203775740E+03  0.13421161732E+03  0.10000000000E+01 0.  0.
    9000005    1    3    3    0    0 -0.21560381560E+02  0.10627266317E+02 -0.21780243777E+02  0.32452547841E+02  0.10000000000E+01 0.  0.
<mgrwt>
<rscale>  0 0.12498090E+03</rscale>
<asrwt>0</asrwt>
<pdfrwt beam="2">  1        4 0.43389732E-02 0.12498090E+03</pdfrwt>
<pdfrwt beam="1">  1       -4 0.21301667E-01 0.12498090E+03</pdfrwt>
<totfact> 0.96114384E+03</totfact>
</mgrwt>
</event>
<event>
 5    1  0.3331626E-002  0.1250040E+03  0.7818608E-02  0.1235063E+00
          4   -1    0    0  501    0  0.00000000000E+00  0.00000000000E+00  0.10083085792E+04  0.10083093790E+04  0.12700000000E+01 0. -1.
         -4   -1    0    0    0  501 -0.00000000000E+00 -0.00000000000E+00 -0.37694085437E+01  0.39776049036E+01  0.12700000000E+01 0. -1.
         25    2    1    2    0    0  0.00000000000E+00  0.00000000000E+00  0.10045391706E+04  0.10122869839E+04  0.12500396956E+03 0.  0.
    9000005    1    3    3    0    0  0.26179979663E+02  0.29153452460E+02  0.89651875327E+03  0.89737516686E+03  0.10000000000E+01 0.  0.
    9000005    1    3    3    0    0 -0.26179979663E+02 -0.29153452460E+02  0.10802041736E+03  0.11491181703E+03  0.10000000000E+01 0.  0.
<mgrwt>
<rscale>  0 0.12500397E+03</rscale>
<asrwt>0</asrwt>
<pdfrwt beam="1">  1        4 0.15514058E+00 0.12500397E+03</pdfrwt>
<pdfrwt beam="2">  1       -4 0.59598522E-03 0.12500397E+03</pdfrwt>
<totfact> 0.30199462E+03</totfact>
</mgrwt>
</event>
<event>
 5    1  0.3331626E-002  0.1250124E+03  0.7818608E-02  0.1235050E+00
         -4   -1    0    0    0  501 -0.00000000000E+00  0.00000000000E+00  0.20809723881E+03  0.20810111412E+03  0.12700000000E+01 0. -1.
          4   -1    0    0  501    0  0.00000000000E+00 -0.00000000000E+00 -0.18749457716E+02  0.18792420404E+02  0.12700000000E+01 0. -1.
         25    2    1    2    0    0  0.00000000000E+00  0.00000000000E+00  0.18934778109E+03  0.22689353453E+03  0.12501237461E+03 0.  0.
    9000005    1    3    3    0    0 -0.30367937037E+02  0.43981975402E+02  0.15346872448E+03  0.16251238462E+03  0.10000000000E+01 0.  0.
    9000005    1    3    3    0    0  0.30367937037E+02 -0.43981975402E+02  0.35879056607E+02  0.64381149906E+02  0.10000000000E+01 0.  0.
<mgrwt>
<rscale>  0 0.12501237E+03</rscale>
<asrwt>0</asrwt>
<pdfrwt beam="2">  1        4 0.28881349E-02 0.12501237E+03</pdfrwt>
<pdfrwt beam="1">  1       -4 0.32018562E-01 0.12501237E+03</pdfrwt>
<totfact> 0.85765203E+03</totfact>
</mgrwt>
</event>
<event>
 5    1  0.3331626E-002  0.1250007E+03  0.7818608E-02  0.1235068E+00
         -4   -1    0    0    0  501 -0.00000000000E+00  0.00000000000E+00  0.26619149620E+01  0.29493543810E+01  0.12700000000E+01 0. -1.
          4   -1    0    0  501    0  0.00000000000E+00 -0.00000000000E+00 -0.13920145684E+04  0.13920151477E+04  0.12700000000E+01 0. -1.
         25    2    1    2    0    0  0.00000000000E+00  0.00000000000E+00 -0.13893526534E+04  0.13949645021E+04  0.12500066625E+03 0.  0.
    9000005    1    3    3    0    0 -0.10269284338E+02 -0.48394801828E+02 -0.26859125835E+03  0.27311129436E+03  0.10000000000E+01 0.  0.
    9000005    1    3    3    0    0  0.10269284338E+02  0.48394801828E+02 -0.11207613951E+04  0.11218532078E+04  0.10000000000E+01 0.  0.
<mgrwt>
<rscale>  0 0.12500067E+03</rscale>
<asrwt>0</asrwt>
<pdfrwt beam="2">  1        4 0.21417769E+00 0.12500067E+03</pdfrwt>
<pdfrwt beam="1">  1       -4 0.43168178E-03 0.12500067E+03</pdfrwt>
<totfact> 0.20089027E+03</totfact>
</mgrwt>
</event>
<event>
 5    1  0.3331626E-002  0.1249938E+03  0.7818608E-02  0.1235079E+00
          4   -1    0    0  501    0  0.00000000000E+00  0.00000000000E+00  0.20794082690E+02  0.20832829259E+02  0.12700000000E+01 0.  1.
         -4   -1    0    0    0  501 -0.00000000000E+00 -0.00000000000E+00 -0.18761944306E+03  0.18762374134E+03  0.12700000000E+01 0.  1.
         25    2    1    2    0    0  0.00000000000E+00  0.00000000000E+00 -0.16682536037E+03  0.20845657060E+03  0.12499376370E+03 0.  0.
    9000005    1    3    3    0    0 -0.28285288858E+02 -0.55335149826E+01 -0.17588081420E+03  0.17822945367E+03  0.10000000000E+01 0.  0.
    9000005    1    3    3    0    0  0.28285288858E+02  0.55335149826E+01  0.90554538250E+01  0.30227116928E+02  0.10000000000E+01 0.  0.
<mgrwt>
<rscale>  0 0.12499376E+03</rscale>
<asrwt>0</asrwt>
<pdfrwt beam="1">  1        4 0.32024009E-02 0.12499376E+03</pdfrwt>
<pdfrwt beam="2">  1       -4 0.28867840E-01 0.12499376E+03</pdfrwt>
<totfact> 0.88740939E+03</totfact>
</mgrwt>
</event>
<event>
 5    1  0.3331626E-002  0.1250116E+03  0.7818608E-02  0.1235051E+00
          4   -1    0    0  501    0  0.00000000000E+00  0.00000000000E+00  0.44198085906E+02  0.44216328407E+02  0.12700000000E+01 0.  1.
         -4   -1    0    0    0  501 -0.00000000000E+00 -0.00000000000E+00 -0.88355927313E+02  0.88365054129E+02  0.12700000000E+01 0.  1.
         25    2    1    2    0    0  0.00000000000E+00  0.00000000000E+00 -0.44157841406E+02  0.13258138254E+03  0.12501163161E+03 0.  0.
    9000005    1    3    3    0    0 -0.57875141222E+02 -0.53672605560E+01 -0.46440193126E+02  0.74404509238E+02  0.10000000000E+01 0.  0.
    9000005    1    3    3    0    0  0.57875141222E+02  0.53672605560E+01  0.22823517195E+01  0.58176873298E+02  0.10000000000E+01 0.  0.
<mgrwt>
<rscale>  0 0.12501163E+03</rscale>
<asrwt>0</asrwt>
<pdfrwt beam="1">  1        4 0.68018109E-02 0.12501163E+03</pdfrwt>
<pdfrwt beam="2">  1       -4 0.13595325E-01 0.12501163E+03</pdfrwt>
<totfact> 0.10286605E+04</totfact>
</mgrwt>
</event>
<event>
 5    1  0.3331626E-002  0.1250003E+03  0.7818608E-02  0.1235069E+00
          4   -1    0    0  501    0  0.00000000000E+00  0.00000000000E+00  0.29313323645E+01  0.31946219543E+01  0.12700000000E+01 0. -1.
         -4   -1    0    0    0  501 -0.00000000000E+00 -0.00000000000E+00 -0.12750547757E+04  0.12750554082E+04  0.12700000000E+01 0. -1.
         25    2    1    2    0    0  0.00000000000E+00  0.00000000000E+00 -0.12721234433E+04  0.12782500301E+04  0.12500033784E+03 0.  0.
    9000005    1    3    3    0    0 -0.47899805440E+02  0.40066607119E+02 -0.66014545693E+03  0.66309331822E+03  0.10000000000E+01 0.  0.
    9000005    1    3    3    0    0  0.47899805440E+02 -0.40066607119E+02 -0.61197798642E+03  0.61515671192E+03  0.10000000000E+01 0.  0.
<mgrwt>
<rscale>  0 0.12500034E+03</rscale>
<asrwt>0</asrwt>
<pdfrwt beam="1">  1        4 0.47127693E-03 0.12500034E+03</pdfrwt>
<pdfrwt beam="2">  1       -4 0.19618215E+00 0.12500034E+03</pdfrwt>
<totfact> 0.22747644E+03</totfact>
</mgrwt>
</event>
<event>
 5    1  0.3331626E-002  0.1250003E+03  0.7818608E-02  0.1235069E+00
         -4   -1    0    0    0  501 -0.00000000000E+00  0.00000000000E+00  0.24074062146E+02  0.24107537580E+02  0.12700000000E+01 0.  1.
          4   -1    0    0  501    0  0.00000000000E+00 -0.00000000000E+00 -0.16211174533E+03  0.16211671990E+03  0.12700000000E+01 0.  1.
         25    2    1    2    0    0  0.00000000000E+00  0.00000000000E+00 -0.13803768318E+03  0.18622425749E+03  0.12500028839E+03 0.  0.
    9000005    1    3    3    0    0  0.49338807703E+02  0.15248248247E+02 -0.12144679415E+03  0.13197405363E+03  0.10000000000E+01 0.  0.
    9000005    1    3    3    0    0 -0.49338807703E+02 -0.15248248247E+02 -0.16590889027E+02  0.54250203860E+02  0.10000000000E+01 0.  0.
<mgrwt>
<rscale>  0 0.12500029E+03</rscale>
<asrwt>0</asrwt>
<pdfrwt beam="2">  1        4 0.24943225E-01 0.12500029E+03</pdfrwt>
<pdfrwt beam="1">  1       -4 0.37066597E-02 0.12500029E+03</pdfrwt>
<totfact> 0.92507866E+03</totfact>
</mgrwt>
</event>
<event>
 5    1  0.3331626E-002  0.1250028E+03  0.7818608E-02  0.1235065E+00
         -4   -1    0    0    0  501 -0.00000000000E+00  0.00000000000E+00  0.31765625004E+02  0.31791002373E+02  0.12700000000E+01 0. -1.
          4   -1    0    0  501    0  0.00000000000E+00 -0.00000000000E+00 -0.12289864854E+03  0.12290521028E+03  0.12700000000E+01 0. -1.
         25    2    1    2    0    0  0.00000000000E+00  0.00000000000E+00 -0.91133023535E+02  0.15469621265E+03  0.12500276089E+03 0.  0.
    9000005    1    3    3    0    0  0.42186881856E+02 -0.45571077551E+02 -0.36906681623E+02  0.72246517275E+02  0.10000000000E+01 0.  0.
    9000005    1    3    3    0    0 -0.42186881856E+02  0.45571077551E+02 -0.54226341913E+02  0.82449695373E+02  0.10000000000E+01 0.  0.
<mgrwt>
<rscale>  0 0.12500276E+03</rscale>
<asrwt>0</asrwt>
<pdfrwt beam="2">  1        4 0.18909941E-01 0.12500276E+03</pdfrwt>
<pdfrwt beam="1">  1       -4 0.48894761E-02 0.12500276E+03</pdfrwt>
<totfact> 0.98369061E+03</totfact>
</mgrwt>
</event>
<event>
 5    1  0.3331626E-002  0.1250045E+03  0.7818608E-02  0.1235062E+00
          4   -1    0    0  501    0  0.00000000000E+00  0.00000000000E+00  0.53539544500E+02  0.53554605080E+02  0.12700000000E+01 0. -1.
         -4   -1    0    0    0  501 -0.00000000000E+00 -0.00000000000E+00 -0.72934468496E+02  0.72945524844E+02  0.12700000000E+01 0. -1.
         25    2    1    2    0    0  0.00000000000E+00  0.00000000000E+00 -0.19394923995E+02  0.12650012992E+03  0.12500447910E+03 0.  0.
    9000005    1    3    3    0    0  0.29289418735E+02 -0.28097714518E+02  0.38391401720E+02  0.55877109240E+02  0.10000000000E+01 0.  0.
    9000005    1    3    3    0    0 -0.29289418735E+02  0.28097714518E+02 -0.57786325715E+02  0.70623020685E+02  0.10000000000E+01 0.  0.
<mgrwt>
<rscale>  0 0.12500448E+03</rscale>
<asrwt>0</asrwt>
<pdfrwt beam="1">  1        4 0.82388620E-02 0.12500448E+03</pdfrwt>
<pdfrwt beam="2">  1       -4 0.11222696E-01 0.12500448E+03</pdfrwt>
<totfact> 0.10418972E+04</totfact>
</mgrwt>
</event>
<event>
 5    1  0.3331626E-002  0.1250001E+03  0.7818608E-02  0.1235069E+00
          4   -1    0    0  501    0  0.00000000000E+00  0.00000000000E+00  0.25643768283E+02  0.25675197210E+02  0.12700000000E+01 0. -1.
         -4   -1    0    0    0  501 -0.00000000000E+00 -0.00000000000E+00 -0.15220021397E+03  0.15220551249E+03  0.12700000000E+01 0. -1.
         25    2    1    2    0    0  0.00000000000E+00  0.00000000000E+00 -0.12655644569E+03  0.17788070970E+03  0.12500005176E+03 0.  0.
    9000005    1    3    3    0    0  0.15889440210E+02 -0.32553577641E+02  0.91859872530E+01  0.37384382959E+02  0.10000000000E+01 0.  0.
    9000005    1    3    3    0    0 -0.15889440210E+02  0.32553577641E+02 -0.13574243294E+03  0.14049632674E+03  0.10000000000E+01 0.  0.
<mgrwt>
<rscale>  0 0.12500005E+03</rscale>
<asrwt>0</asrwt>
<pdfrwt beam="1">  1        4 0.39480204E-02 0.12500005E+03</pdfrwt>
<pdfrwt beam="2">  1       -4 0.23418242E-01 0.12500005E+03</pdfrwt>
<totfact> 0.93999770E+03</totfact>
</mgrwt>
</event>
<event>
 5    1  0.3331626E-002  0.1250030E+03  0.7818608E-02  0.1235065E+00
          4   -1    0    0  501    0  0.00000000000E+00  0.00000000000E+00  0.44756649649E+02  0.44774664575E+02  0.12700000000E+01 0. -1.
         -4   -1    0    0    0  501 -0.00000000000E+00 -0.00000000000E+00 -0.87241529838E+02  0.87250773226E+02  0.12700000000E+01 0. -1.
         25    2    1    2    0    0  0.00000000000E+00  0.00000000000E+00 -0.42484880189E+02  0.13202543780E+03  0.12500300469E+03 0.  0.
    9000005    1    3    3    0    0 -0.40047142497E+02  0.35157400245E+02 -0.55720167131E+02  0.77107414943E+02  0.10000000000E+01 0.  0.
    9000005    1    3    3    0    0  0.40047142497E+02 -0.35157400245E+02  0.13235286941E+02  0.54918022857E+02  0.10000000000E+01 0.  0.
<mgrwt>
<rscale>  0 0.12500300E+03</rscale>
<asrwt>0</asrwt>
<pdfrwt beam="1">  1        4 0.68877352E-02 0.12500300E+03</pdfrwt>
<pdfrwt beam="2">  1       -4 0.13423871E-01 0.12500300E+03</pdfrwt>
<totfact> 0.10300457E+04</totfact>
</mgrwt>
</event>
<event>
 5    1  0.3331626E-002  0.1249960E+03  0.7818608E-02  0.1235076E+00
          4   -1    0    0  501    0  0.00000000000E+00  0.00000000000E+00  0.35441191013E+01  0.37647948422E+01  0.12700000000E+01 0.  1.
         -4   -1    0    0    0  501 -0.00000000000E+00 -0.00000000000E+00 -0.10686101973E+04  0.10686109519E+04  0.12700000000E+01 0.  1.
         25    2    1    2    0    0  0.00000000000E+00  0.00000000000E+00 -0.10650660782E+04  0.10723757468E+04  0.12499596563E+03 0.  0.
    9000005    1    3    3    0    0 -0.16579641597E+02  0.38462303233E+02 -0.93040874686E+03  0.93135152843E+03  0.10000000000E+01 0.  0.
    9000005    1    3    3    0    0  0.16579641597E+02 -0.38462303233E+02 -0.13465733130E+03  0.14102421834E+03  0.10000000000E+01 0.  0.
<mgrwt>
<rscale>  0 0.12499597E+03</rscale>
<asrwt>0</asrwt>
<pdfrwt beam="1">  1        4 0.56228306E-03 0.12499597E+03</pdfrwt>
<pdfrwt beam="2">  1       -4 0.16441835E+00 0.12499597E+03</pdfrwt>
<totfact> 0.28308811E+03</totfact>
</mgrwt>
</event>
<event>
 5    1  0.3331626E-002  0.1250006E+03  0.7818608E-02  0.1235068E+00
          4   -1    0    0  501    0  0.00000000000E+00  0.00000000000E+00  0.81857469302E+01  0.82836799072E+01  0.12700000000E+01 0. -1.
         -4   -1    0    0    0  501 -0.00000000000E+00 -0.00000000000E+00 -0.47426930081E+03  0.47427100121E+03  0.12700000000E+01 0. -1.
         25    2    1    2    0    0  0.00000000000E+00  0.00000000000E+00 -0.46608355388E+03  0.48255468112E+03  0.12500056429E+03 0.  0.
    9000005    1    3    3    0    0 -0.61614022098E+02  0.12027490252E+01 -0.19300660734E+03  0.20260869873E+03  0.10000000000E+01 0.  0.
    9000005    1    3    3    0    0  0.61614022098E+02 -0.12027490252E+01 -0.27307694654E+03  0.27994598239E+03  0.10000000000E+01 0.  0.
<mgrwt>
<rscale>  0 0.12500056E+03</rscale>
<asrwt>0</asrwt>
<pdfrwt beam="1">  1        4 0.12670102E-02 0.12500056E+03</pdfrwt>
<pdfrwt beam="2">  1       -4 0.72972151E-01 0.12500056E+03</pdfrwt>
<totfact> 0.57243075E+03</totfact>
</mgrwt>
</event>
<event>
 5    1  0.3331626E-002  0.1250013E+03  0.7818608E-02  0.1235067E+00
          4   -1    0    0  501    0  0.00000000000E+00  0.00000000000E+00  0.88007262531E+02  0.88016425502E+02  0.12700000000E+01 0. -1.
         -4   -1    0    0    0  501 -0.00000000000E+00 -0.00000000000E+00 -0.44365926367E+02  0.44384099883E+02  0.12700000000E+01 0. -1.
         25    2    1    2    0    0  0.00000000000E+00  0.00000000000E+00  0.43641336164E+02  0.13240052539E+03  0.12500133159E+03 0.  0.
    9000005    1    3    3    0    0 -0.39838540368E+02  0.36952926272E+02 -0.10872298399E+02  0.55424136720E+02  0.10000000000E+01 0.  0.
    9000005    1    3    3    0    0  0.39838540368E+02 -0.36952926272E+02  0.54513634562E+02  0.76976388665E+02  0.10000000000E+01 0.  0.
<mgrwt>
<rscale>  0 0.12500133E+03</rscale>
<asrwt>0</asrwt>
<pdfrwt beam="1">  1        4 0.13541682E-01 0.12500133E+03</pdfrwt>
<pdfrwt beam="2">  1       -4 0.68276300E-02 0.12500133E+03</pdfrwt>
<totfact> 0.10292848E+04</totfact>
</mgrwt>
</event>
<event>
 5    1  0.3331626E-002  0.1249992E+03  0.7818608E-02  0.1235070E+00
          4   -1    0    0  501    0  0.00000000000E+00  0.00000000000E+00  0.23330458446E+03  0.23330804107E+03  0.12700000000E+01 0. -1.
         -4   -1    0    0    0  501 -0.00000000000E+00 -0.00000000000E+00 -0.16715256247E+02  0.16763433163E+02  0.12700000000E+01 0. -1.
         25    2    1    2    0    0  0.00000000000E+00  0.00000000000E+00  0.21658932821E+03  0.25007147424E+03  0.12499922052E+03 0.  0.
    9000005    1    3    3    0    0 -0.31763731442E+02  0.53160334239E+02  0.12506208008E+03  0.13955815865E+03  0.10000000000E+01 0.  0.
    9000005    1    3    3    0    0  0.31763731442E+02 -0.53160334239E+02  0.91527248131E+02  0.11051331559E+03  0.10000000000E+01 0.  0.
<mgrwt>
<rscale>  0 0.12499922E+03</rscale>
<asrwt>0</asrwt>
<pdfrwt beam="1">  1        4 0.35896985E-01 0.12499922E+03</pdfrwt>
<pdfrwt beam="2">  1       -4 0.25755497E-02 0.12499922E+03</pdfrwt>
<totfact> 0.82321327E+03</totfact>
</mgrwt>
</event>
<event>
 5    1  0.3331626E-002  0.1249737E+03  0.7818608E-02  0.1235110E+00
          4   -1    0    0  501    0  0.00000000000E+00  0.00000000000E+00  0.33595688605E+03  0.33595928650E+03  0.12700000000E+01 0. -1.
         -4   -1    0    0    0  501 -0.00000000000E+00 -0.00000000000E+00 -0.11585197949E+02  0.11654600445E+02  0.12700000000E+01 0. -1.
         25    2    1    2    0    0  0.00000000000E+00  0.00000000000E+00  0.32437168810E+03  0.34761388694E+03  0.12497368665E+03 0.  0.
    9000005    1    3    3    0    0  0.20996643881E+02 -0.63932180761E+01 -0.52275240598E+00  0.21977387509E+02  0.10000000000E+01 0.  0.
    9000005    1    3    3    0    0 -0.20996643881E+02  0.63932180761E+01  0.32489444051E+03  0.32563649943E+03  0.10000000000E+01 0.  0.
<mgrwt>
<rscale>  0 0.12497369E+03</rscale>
<asrwt>0</asrwt>
<pdfrwt beam="1">  1        4 0.51691187E-01 0.12497369E+03</pdfrwt>
<pdfrwt beam="2">  1       -4 0.17878618E-02 0.12497369E+03</pdfrwt>
<totfact> 0.70028639E+03</totfact>
</mgrwt>
</event>
<event>
 5    1  0.3331626E-002  0.1250002E+03  0.7818608E-02  0.1235069E+00
         -4   -1    0    0    0  501 -0.00000000000E+00  0.00000000000E+00  0.35568234281E+03  0.35568461013E+03  0.12700000000E+01 0. -1.
          4   -1    0    0  501    0  0.00000000000E+00 -0.00000000000E+00 -0.10943427310E+02  0.11016873481E+02  0.12700000000E+01 0. -1.
         25    2    1    2    0    0  0.00000000000E+00  0.00000000000E+00  0.34473891550E+03  0.36670148362E+03  0.12500023290E+03 0.  0.
    9000005    1    3    3    0    0 -0.24032128274E+02 -0.55771683586E+02  0.12913077860E+03  0.14270172340E+03  0.10000000000E+01 0.  0.
    9000005    1    3    3    0    0  0.24032128274E+02  0.55771683586E+02  0.21560813690E+03  0.22399976021E+03  0.10000000000E+01 0.  0.
<mgrwt>
<rscale>  0 0.12500023E+03</rscale>
<asrwt>0</asrwt>
<pdfrwt beam="2">  1        4 0.16894286E-02 0.12500023E+03</pdfrwt>
<pdfrwt beam="1">  1       -4 0.54726176E-01 0.12500023E+03</pdfrwt>
<totfact> 0.67925095E+03</totfact>
</mgrwt>
</event>
<event>
 5    1  0.3331626E-002  0.1249972E+03  0.7818608E-02  0.1235074E+00
         -4   -1    0    0    0  501 -0.00000000000E+00  0.00000000000E+00  0.13703378749E+03  0.13703967241E+03  0.12700000000E+01 0. -1.
          4   -1    0    0  501    0  0.00000000000E+00 -0.00000000000E+00 -0.28483827277E+02  0.28512125777E+02  0.12700000000E+01 0. -1.
         25    2    1    2    0    0  0.00000000000E+00  0.00000000000E+00  0.10854996021E+03  0.16555179818E+03  0.12499721605E+03 0.  0.
    9000005    1    3    3    0    0 -0.51851569311E+02 -0.90544423260E+01  0.98885502858E+02  0.11202638458E+03  0.10000000000E+01 0.  0.
    9000005    1    3    3    0    0  0.51851569311E+02  0.90544423260E+01  0.96644573524E+01  0.53525413607E+02  0.10000000000E+01 0.  0.
<mgrwt>
<rscale>  0 0.12499722E+03</rscale>
<asrwt>0</asrwt>
<pdfrwt beam="2">  1        4 0.43847568E-02 0.12499722E+03</pdfrwt>
<pdfrwt beam="1">  1       -4 0.21084751E-01 0.12499722E+03</pdfrwt>
<totfact> 0.96289014E+03</totfact>
</mgrwt>
</event>
<event>
 5    1  0.3331626E-002  0.1249930E+03  0.7818608E-02  0.1235080E+00
          4   -1    0    0  501    0  0.00000000000E+00  0.00000000000E+00  0.16381938011E+03  0.16382430283E+03  0.12700000000E+01 0.  1.
         -4   -1    0    0    0  501 -0.00000000000E+00 -0.00000000000E+00 -0.23819976594E+02  0.23853808604E+02  0.12700000000E+01 0.  1.
         25    2    1    2    0    0  0.00000000000E+00  0.00000000000E+00  0.13999940351E+03  0.18767811144E+03  0.12499296192E+03 0.  0.
    9000005    1    3    3    0    0  0.45176121394E+02  0.25223009930E+02  0.17388389058E+02  0.54593390150E+02  0.10000000000E+01 0.  0.
    9000005    1    3    3    0    0 -0.45176121394E+02 -0.25223009930E+02  0.12261101446E+03  0.13308472129E+03  0.10000000000E+01 0.  0.
<mgrwt>
<rscale>  0 0.12499296E+03</rscale>
<asrwt>0</asrwt>
<pdfrwt beam="1">  1        4 0.25205962E-01 0.12499296E+03</pdfrwt>
<pdfrwt beam="2">  1       -4 0.36675929E-02 0.12499296E+03</pdfrwt>
<totfact> 0.92267440E+03</totfact>
</mgrwt>
</event>
<event>
 5    1  0.3331626E-002  0.1249910E+03  0.7818608E-02  0.1235083E+00
         -4   -1    0    0    0  501 -0.00000000000E+00  0.00000000000E+00  0.50383483884E+03  0.50383643946E+03  0.12700000000E+01 0.  1.
          4   -1    0    0  501    0  0.00000000000E+00 -0.00000000000E+00 -0.76982774119E+01  0.78023313894E+01  0.12700000000E+01 0.  1.
         25    2    1    2    0    0  0.00000000000E+00  0.00000000000E+00  0.49613656143E+03  0.51163877085E+03  0.12499097668E+03 0.  0.
    9000005    1    3    3    0    0  0.64975879841E+01 -0.72475088099E+01  0.50073259767E+03  0.50082819350E+03  0.10000000000E+01 0.  0.
    9000005    1    3    3    0    0 -0.64975879841E+01  0.72475088099E+01 -0.45960362415E+01  0.10810577353E+02  0.10000000000E+01 0.  0.
<mgrwt>
<rscale>  0 0.12499098E+03</rscale>
<asrwt>0</asrwt>
<pdfrwt beam="2">  1        4 0.11924779E-02 0.12499098E+03</pdfrwt>
<pdfrwt beam="1">  1       -4 0.77521164E-01 0.12499098E+03</pdfrwt>
<totfact> 0.54983426E+03</totfact>
</mgrwt>
</event>
<event>
 5    1  0.3331626E-002  0.1249946E+03  0.7818608E-02  0.1235078E+00
          4   -1    0    0  501    0  0.00000000000E+00  0.00000000000E+00  0.11630885737E+03  0.11631579086E+03  0.12700000000E+01 0. -1.
         -4   -1    0    0    0  501 -0.00000000000E+00 -0.00000000000E+00 -0.33562302124E+02  0.33586321976E+02  0.12700000000E+01 0. -1.
         25    2    1    2    0    0  0.00000000000E+00  0.00000000000E+00  0.82746555247E+02  0.14990211283E+03  0.12499460399E+03 0.  0.
    9000005    1    3    3    0    0 -0.71641560164E+01  0.37931879865E+02  0.10030559054E+03  0.10748192469E+03  0.10000000000E+01 0.  0.
    9000005    1    3    3    0    0  0.71641560164E+01 -0.37931879865E+02 -0.17559035295E+02  0.42420188142E+02  0.10000000000E+01 0.  0.
<mgrwt>
<rscale>  0 0.12499460E+03</rscale>
<asrwt>0</asrwt>
<pdfrwt beam="1">  1        4 0.17896052E-01 0.12499460E+03</pdfrwt>
<pdfrwt beam="2">  1       -4 0.51658121E-02 0.12499460E+03</pdfrwt>
<totfact> 0.99335276E+03</totfact>
</mgrwt>
</event>
<event>
 5    1  0.3331626E-002  0.1250006E+03  0.7818608E-02  0.1235068E+00
         -4   -1    0    0    0  501 -0.00000000000E+00  0.00000000000E+00  0.33474720757E+03  0.33474961670E+03  0.12700000000E+01 0.  1.
          4   -1    0    0  501    0  0.00000000000E+00 -0.00000000000E+00 -0.11632347579E+02  0.11701470428E+02  0.12700000000E+01 0.  1.
         25    2    1    2    0    0  0.00000000000E+00  0.00000000000E+00  0.32311485999E+03  0.34645108712E+03  0.12500057208E+03 0.  0.
    9000005    1    3    3    0    0  0.44494876351E+02  0.43836657509E+02  0.16698805539E+03  0.17829037329E+03  0.10000000000E+01 0.  0.
    9000005    1    3    3    0    0 -0.44494876351E+02 -0.43836657509E+02  0.15612680460E+03  0.16816071384E+03  0.10000000000E+01 0.  0.
<mgrwt>
<rscale>  0 0.12500057E+03</rscale>
<asrwt>0</asrwt>
<pdfrwt beam="2">  1        4 0.17950944E-02 0.12500057E+03</pdfrwt>
<pdfrwt beam="1">  1       -4 0.51505074E-01 0.12500057E+03</pdfrwt>
<totfact> 0.70115862E+03</totfact>
</mgrwt>
</event>
<event>
 5    1  0.3331626E-002  0.1249990E+03  0.7818608E-02  0.1235071E+00
         -4   -1    0    0    0  501 -0.00000000000E+00  0.00000000000E+00  0.24483344425E+02  0.24516261016E+02  0.12700000000E+01 0.  1.
          4   -1    0    0  501    0  0.00000000000E+00 -0.00000000000E+00 -0.15940206689E+03  0.15940712603E+03  0.12700000000E+01 0.  1.
         25    2    1    2    0    0  0.00000000000E+00  0.00000000000E+00 -0.13491872246E+03  0.18392338704E+03  0.12499900252E+03 0.  0.
    9000005    1    3    3    0    0 -0.53611163254E+02 -0.11422034231E+02 -0.11161525258E+03  0.12435266101E+03  0.10000000000E+01 0.  0.
    9000005    1    3    3    0    0  0.53611163254E+02  0.11422034231E+02 -0.23303469879E+02  0.59570726031E+02  0.10000000000E+01 0.  0.
<mgrwt>
<rscale>  0 0.12499900E+03</rscale>
<asrwt>0</asrwt>
<pdfrwt beam="2">  1        4 0.24526315E-01 0.12499900E+03</pdfrwt>
<pdfrwt beam="1">  1       -4 0.37695897E-02 0.12499900E+03</pdfrwt>
<totfact> 0.92917588E+03</totfact>
</mgrwt>
</event>
<event>
 5    1  0.3331626E-002  0.1250006E+03  0.7818608E-02  0.1235068E+00
         -4   -1    0    0    0  501 -0.00000000000E+00  0.00000000000E+00  0.71620832511E+02  0.71632091618E+02  0.12700000000E+01 0.  1.
          4   -1    0    0  501    0  0.00000000000E+00 -0.00000000000E+00 -0.54518251780E+02  0.54533042067E+02  0.12700000000E+01 0.  1.
         25    2    1    2    0    0  0.00000000000E+00  0.00000000000E+00  0.17102580731E+02  0.12616513369E+03  0.12500057076E+03 0.  0.
    9000005    1    3    3    0    0  0.52924190471E+02  0.21571352080E+02 -0.16962515006E+02  0.59623989156E+02  0.10000000000E+01 0.  0.
    9000005    1    3    3    0    0 -0.52924190471E+02 -0.21571352080E+02  0.34065095737E+02  0.66541144529E+02  0.10000000000E+01 0.  0.
<mgrwt>
<rscale>  0 0.12500057E+03</rscale>
<asrwt>0</asrwt>
<pdfrwt beam="2">  1        4 0.83894272E-02 0.12500057E+03</pdfrwt>
<pdfrwt beam="1">  1       -4 0.11020593E-01 0.12500057E+03</pdfrwt>
<totfact> 0.10427207E+04</totfact>
</mgrwt>
</event>
<event>
 5    1  0.3331626E-002  0.1249985E+03  0.7818608E-02  0.1235072E+00
          4   -1    0    0  501    0  0.00000000000E+00  0.00000000000E+00  0.25639456070E+01  0.28612439735E+01  0.12700000000E+01 0. -1.
         -4   -1    0    0    0  501 -0.00000000000E+00 -0.00000000000E+00 -0.14397096370E+04  0.14397101972E+04  0.12700000000E+01 0. -1.
         25    2    1    2    0    0  0.00000000000E+00  0.00000000000E+00 -0.14371456914E+04  0.14425714411E+04  0.12499849779E+03 0.  0.
    9000005    1    3    3    0    0  0.35442430614E+02  0.32386877422E+02 -0.11802128522E+04  0.11811894226E+04  0.10000000000E+01 0.  0.
    9000005    1    3    3    0    0 -0.35442430614E+02 -0.32386877422E+02 -0.25693283925E+03  0.26138201851E+03  0.10000000000E+01 0.  0.
<mgrwt>
<rscale>  0 0.12499850E+03</rscale>
<asrwt>0</asrwt>
<pdfrwt beam="1">  1        4 0.41736651E-03 0.12499850E+03</pdfrwt>
<pdfrwt beam="2">  1       -4 0.22151609E+00 0.12499850E+03</pdfrwt>
<totfact> 0.19086108E+03</totfact>
</mgrwt>
</event>
<event>
 5    1  0.3331626E-002  0.1250042E+03  0.7818608E-02  0.1235063E+00
          4   -1    0    0  501    0  0.00000000000E+00  0.00000000000E+00  0.16333781667E+03  0.16334275391E+03  0.12700000000E+01 0.  1.
         -4   -1    0    0    0  501 -0.00000000000E+00 -0.00000000000E+00 -0.23894621407E+02  0.23928347878E+02  0.12700000000E+01 0.  1.
         25    2    1    2    0    0  0.00000000000E+00  0.00000000000E+00  0.13944319526E+03  0.18727110179E+03  0.12500424336E+03 0.  0.
    9000005    1    3    3    0    0  0.56730280494E+02 -0.10183024385E+02  0.33533551176E+02  0.66689712587E+02  0.10000000000E+01 0.  0.
    9000005    1    3    3    0    0 -0.56730280494E+02  0.10183024385E+02  0.10590964409E+03  0.12058138920E+03  0.10000000000E+01 0.  0.
<mgrwt>
<rscale>  0 0.12500424E+03</rscale>
<asrwt>0</asrwt>
<pdfrwt beam="1">  1        4 0.25131869E-01 0.12500424E+03</pdfrwt>
<pdfrwt beam="2">  1       -4 0.36790697E-02 0.12500424E+03</pdfrwt>
<totfact> 0.92315536E+03</totfact>
</mgrwt>
</event>
<event>
 5    1  0.3331626E-002  0.1249976E+03  0.7818608E-02  0.1235073E+00
          4   -1    0    0  501    0  0.00000000000E+00  0.00000000000E+00  0.18782872690E+03  0.18783302039E+03  0.12700000000E+01 0. -1.
         -4   -1    0    0    0  501 -0.00000000000E+00 -0.00000000000E+00 -0.20772147651E+02  0.20810935059E+02  0.12700000000E+01 0. -1.
         25    2    1    2    0    0  0.00000000000E+00  0.00000000000E+00  0.16705657925E+03  0.20864395545E+03  0.12499759788E+03 0.  0.
    9000005    1    3    3    0    0  0.25143808295E+02  0.55989619414E+02  0.10314040216E+03  0.12002496047E+03  0.10000000000E+01 0.  0.
    9000005    1    3    3    0    0 -0.25143808295E+02 -0.55989619414E+02  0.63916177092E+02  0.88618994983E+02  0.10000000000E+01 0.  0.
<mgrwt>
<rscale>  0 0.12499760E+03</rscale>
<asrwt>0</asrwt>
<pdfrwt beam="1">  1        4 0.28900043E-01 0.12499760E+03</pdfrwt>
<pdfrwt beam="2">  1       -4 0.31990288E-02 0.12499760E+03</pdfrwt>
<totfact> 0.88702583E+03</totfact>
</mgrwt>
</event>
<event>
 5    1  0.3331626E-002  0.1250309E+03  0.7818608E-02  0.1235021E+00
          4   -1    0    0  501    0  0.00000000000E+00  0.00000000000E+00  0.27004481649E+02  0.27034328716E+02  0.12700000000E+01 0. -1.
         -4   -1    0    0    0  501 -0.00000000000E+00 -0.00000000000E+00 -0.14461094334E+03  0.14461651991E+03  0.12700000000E+01 0. -1.
         25    2    1    2    0    0  0.00000000000E+00  0.00000000000E+00 -0.11760646169E+03  0.17165084863E+03  0.12503093219E+03 0.  0.
    9000005    1    3    3    0    0 -0.10518653993E+02  0.57767198882E+02 -0.88231690793E+02  0.10598831355E+03  0.10000000000E+01 0.  0.
    9000005    1    3    3    0    0  0.10518653993E+02 -0.57767198882E+02 -0.29374770894E+02  0.65662535084E+02  0.10000000000E+01 0.  0.
<mgrwt>
<rscale>  0 0.12503093E+03</rscale>
<asrwt>0</asrwt>
<pdfrwt beam="1">  1        4 0.41572606E-02 0.12503093E+03</pdfrwt>
<pdfrwt beam="2">  1       -4 0.22250562E-01 0.12503093E+03</pdfrwt>
<totfact> 0.95075820E+03</totfact>
</mgrwt>
</event>
<event>
 5    1  0.3331626E-002  0.1250092E+03  0.7818608E-02  0.1235055E+00
         -4   -1    0    0    0  501 -0.00000000000E+00  0.00000000000E+00  0.30515414067E+03  0.30515678342E+03  0.12700000000E+01 0.  1.
          4   -1    0    0  501    0  0.00000000000E+00 -0.00000000000E+00 -0.12768588947E+02  0.12831592406E+02  0.12700000000E+01 0.  1.
         25    2    1    2    0    0  0.00000000000E+00  0.00000000000E+00  0.29238555172E+03  0.31798837583E+03  0.12500918488E+03 0.  0.
    9000005    1    3    3    0    0 -0.36103853138E+02 -0.23348011188E+02  0.26156685227E+03  0.26507892417E+03  0.10000000000E+01 0.  0.
    9000005    1    3    3    0    0  0.36103853138E+02  0.23348011188E+02  0.30818699458E+02  0.52909451653E+02  0.10000000000E+01 0.  0.
<mgrwt>
<rscale>  0 0.12500918E+03</rscale>
<asrwt>0</asrwt>
<pdfrwt beam="2">  1        4 0.19694482E-02 0.12500918E+03</pdfrwt>
<pdfrwt beam="1">  1       -4 0.46951835E-01 0.12500918E+03</pdfrwt>
<totfact> 0.73381080E+03</totfact>
</mgrwt>
</event>
<event>
 5    1  0.3331626E-002  0.1249955E+03  0.7818608E-02  0.1235076E+00
         -4   -1    0    0    0  501 -0.00000000000E+00  0.00000000000E+00  0.13648903087E+03  0.13649493927E+03  0.12700000000E+01 0. -1.
          4   -1    0    0  501    0  0.00000000000E+00 -0.00000000000E+00 -0.28596822568E+02  0.28625009362E+02  0.12700000000E+01 0. -1.
         25    2    1    2    0    0  0.00000000000E+00  0.00000000000E+00  0.10789220830E+03  0.16511994863E+03  0.12499547522E+03 0.  0.
    9000005    1    3    3    0    0 -0.31861956921E+01 -0.60522748281E+02  0.74058948579E+02  0.95702052053E+02  0.10000000000E+01 0.  0.
    9000005    1    3    3    0    0  0.31861956921E+01  0.60522748281E+02  0.33833259720E+02  0.69417896581E+02  0.10000000000E+01 0.  0.
<mgrwt>
<rscale>  0 0.12499548E+03</rscale>
<asrwt>0</asrwt>
<pdfrwt beam="2">  1        4 0.44021338E-02 0.12499548E+03</pdfrwt>
<pdfrwt beam="1">  1       -4 0.21000935E-01 0.12499548E+03</pdfrwt>
<totfact> 0.96374476E+03</totfact>
</mgrwt>
</event>
<event>
 5    1  0.3331626E-002  0.1249995E+03  0.7818608E-02  0.1235070E+00
         -4   -1    0    0    0  501 -0.00000000000E+00  0.00000000000E+00  0.25836530527E+02  0.25867725251E+02  0.12700000000E+01 0.  1.
          4   -1    0    0  501    0  0.00000000000E+00 -0.00000000000E+00 -0.15106459455E+03  0.15106993290E+03  0.12700000000E+01 0.  1.
         25    2    1    2    0    0  0.00000000000E+00  0.00000000000E+00 -0.12522806402E+03  0.17693765815E+03  0.12499946741E+03 0.  0.
    9000005    1    3    3    0    0  0.55787867589E+02 -0.22608914912E+02 -0.38853422935E+02  0.71652199390E+02  0.10000000000E+01 0.  0.
    9000005    1    3    3    0    0 -0.55787867589E+02  0.22608914912E+02 -0.86374641089E+02  0.10528545876E+03  0.10000000000E+01 0.  0.
<mgrwt>
<rscale>  0 0.12499947E+03</rscale>
<asrwt>0</asrwt>
<pdfrwt beam="2">  1        4 0.23243516E-01 0.12499947E+03</pdfrwt>
<pdfrwt beam="1">  1       -4 0.39776612E-02 0.12499947E+03</pdfrwt>
<totfact> 0.94172282E+03</totfact>
</mgrwt>
</event>
<event>
 5    1  0.3331626E-002  0.1249895E+03  0.7818608E-02  0.1235086E+00
          4   -1    0    0  501    0  0.00000000000E+00  0.00000000000E+00  0.68394056132E+03  0.68394174045E+03  0.12700000000E+01 0.  1.
         -4   -1    0    0    0  501 -0.00000000000E+00 -0.00000000000E+00 -0.56386180951E+01  0.57798714538E+01  0.12700000000E+01 0.  1.
         25    2    1    2    0    0  0.00000000000E+00  0.00000000000E+00  0.67830194323E+03  0.68972161190E+03  0.12498950249E+03 0.  0.
    9000005    1    3    3    0    0  0.21133516869E+02  0.38710463595E+02  0.58342057532E+03  0.58508605627E+03  0.10000000000E+01 0.  0.
    9000005    1    3    3    0    0 -0.21133516869E+02 -0.38710463595E+02  0.94881367907E+02  0.10463555563E+03  0.10000000000E+01 0.  0.
<mgrwt>
<rscale>  0 0.12498950E+03</rscale>
<asrwt>0</asrwt>
<pdfrwt beam="1">  1        4 0.10523262E+00 0.12498950E+03</pdfrwt>
<pdfrwt beam="2">  1       -4 0.87843574E-03 0.12498950E+03</pdfrwt>
<totfact> 0.43644866E+03</totfact>
</mgrwt>
</event>
<event>
 5    1  0.3331626E-002  0.1249981E+03  0.7818608E-02  0.1235072E+00
         -4   -1    0    0    0  501 -0.00000000000E+00  0.00000000000E+00  0.51826076414E+02  0.51841634778E+02  0.12700000000E+01 0. -1.
          4   -1    0    0  501    0  0.00000000000E+00 -0.00000000000E+00 -0.75337803393E+02  0.75348507086E+02  0.12700000000E+01 0. -1.
         25    2    1    2    0    0  0.00000000000E+00  0.00000000000E+00 -0.23511726979E+02  0.12719014186E+03  0.12499812351E+03 0.  0.
    9000005    1    3    3    0    0 -0.28747400928E+02  0.52158514385E+02 -0.31014175906E+02  0.67155065260E+02  0.10000000000E+01 0.  0.
    9000005    1    3    3    0    0  0.28747400928E+02 -0.52158514385E+02  0.75024489265E+01  0.60035076604E+02  0.10000000000E+01 0.  0.
<mgrwt>
<rscale>  0 0.12499812E+03</rscale>
<asrwt>0</asrwt>
<pdfrwt beam="2">  1        4 0.11592451E-01 0.12499812E+03</pdfrwt>
<pdfrwt beam="1">  1       -4 0.79752627E-02 0.12499812E+03</pdfrwt>
<totfact> 0.10405458E+04</totfact>
</mgrwt>
</event>
<event>
 5    1  0.3331626E-002  0.1249989E+03  0.7818608E-02  0.1235071E+00
          4   -1    0    0  501    0  0.00000000000E+00  0.00000000000E+00  0.28733767156E+02  0.28761819744E+02  0.12700000000E+01 0.  1.
         -4   -1    0    0    0  501 -0.00000000000E+00 -0.00000000000E+00 -0.13584657225E+03  0.13585250859E+03  0.12700000000E+01 0.  1.
         25    2    1    2    0    0  0.00000000000E+00  0.00000000000E+00 -0.10711280509E+03  0.16461432834E+03  0.12499889631E+03 0.  0.
    9000005    1    3    3    0    0  0.41067554687E+02  0.44311785653E+02 -0.74590259642E+02  0.95993672860E+02  0.10000000000E+01 0.  0.
    9000005    1    3    3    0    0 -0.41067554687E+02 -0.44311785653E+02 -0.32522545449E+02  0.68620655477E+02  0.10000000000E+01 0.  0.
<mgrwt>
<rscale>  0 0.12499890E+03</rscale>
<asrwt>0</asrwt>
<pdfrwt beam="1">  1        4 0.44231942E-02 0.12499890E+03</pdfrwt>
<pdfrwt beam="2">  1       -4 0.20902087E-01 0.12499890E+03</pdfrwt>
<totfact> 0.96462874E+03</totfact>
</mgrwt>
</event>
<event>
 5    1  0.3331626E-002  0.1250102E+03  0.7818608E-02  0.1235053E+00
         -4   -1    0    0    0  501 -0.00000000000E+00  0.00000000000E+00  0.13014532293E+03  0.13015151932E+03  0.12700000000E+01 0.  1.
          4   -1    0    0  501    0  0.00000000000E+00 -0.00000000000E+00 -0.29999071404E+02  0.30025941869E+02  0.12700000000E+01 0.  1.
         25    2    1    2    0    0  0.00000000000E+00  0.00000000000E+00  0.10014625153E+03  0.16017746119E+03  0.12501018909E+03 0.  0.
    9000005    1    3    3    0    0  0.25622438021E+02 -0.19886870871E+02 -0.18377055026E+02  0.37292266150E+02  0.10000000000E+01 0.  0.
    9000005    1    3    3    0    0 -0.25622438021E+02  0.19886870871E+02  0.11852330655E+03  0.12288519504E+03  0.10000000000E+01 0.  0.
<mgrwt>
<rscale>  0 0.12501019E+03</rscale>
<asrwt>0</asrwt>
<pdfrwt beam="2">  1        4 0.46177854E-02 0.12501019E+03</pdfrwt>
<pdfrwt beam="1">  1       -4 0.20024901E-01 0.12501019E+03</pdfrwt>
<totfact> 0.97286301E+03</totfact>
</mgrwt>
</event>
<event>
 5    1  0.3331626E-002  0.1249995E+03  0.7818608E-02  0.1235070E+00
         -4   -1    0    0    0  501 -0.00000000000E+00  0.00000000000E+00  0.35492422209E+02  0.35515136692E+02  0.12700000000E+01 0.  1.
          4   -1    0    0  501    0  0.00000000000E+00 -0.00000000000E+00 -0.10999627686E+03  0.11000360823E+03  0.12700000000E+01 0.  1.
         25    2    1    2    0    0  0.00000000000E+00  0.00000000000E+00 -0.74503854651E+02  0.14551874492E+03  0.12499952306E+03 0.  0.
    9000005    1    3    3    0    0  0.13469139261E+00 -0.61180840639E+02 -0.52074076676E+02  0.80348135415E+02  0.10000000000E+01 0.  0.
    9000005    1    3    3    0    0 -0.13469139261E+00  0.61180840639E+02 -0.22429777975E+02  0.65170609504E+02  0.10000000000E+01 0.  0.
<mgrwt>
<rscale>  0 0.12499952E+03</rscale>
<asrwt>0</asrwt>
<pdfrwt beam="2">  1        4 0.16924815E-01 0.12499952E+03</pdfrwt>
<pdfrwt beam="1">  1       -4 0.54626839E-02 0.12499952E+03</pdfrwt>
<totfact> 0.10020567E+04</totfact>
</mgrwt>
</event>
<event>
 5    1  0.3331626E-002  0.1249967E+03  0.7818608E-02  0.1235074E+00
         -4   -1    0    0    0  501 -0.00000000000E+00  0.00000000000E+00  0.42966988972E+02  0.42985753934E+02  0.12700000000E+01 0.  1.
          4   -1    0    0  501    0  0.00000000000E+00 -0.00000000000E+00 -0.90864933547E+02  0.90873808375E+02  0.12700000000E+01 0.  1.
         25    2    1    2    0    0  0.00000000000E+00  0.00000000000E+00 -0.47897944576E+02  0.13385956231E+03  0.12499667726E+03 0.  0.
    9000005    1    3    3    0    0  0.44605300357E+02 -0.43535861449E+02 -0.28742785959E+02  0.68645114879E+02  0.10000000000E+01 0.  0.
    9000005    1    3    3    0    0 -0.44605300357E+02  0.43535861449E+02 -0.19155158617E+02  0.65214447430E+02  0.10000000000E+01 0.  0.
<mgrwt>
<rscale>  0 0.12499668E+03</rscale>
<asrwt>0</asrwt>
<pdfrwt beam="2">  1        4 0.13981347E-01 0.12499668E+03</pdfrwt>
<pdfrwt beam="1">  1       -4 0.66124321E-02 0.12499668E+03</pdfrwt>
<totfact> 0.10262934E+04</totfact>
</mgrwt>
</event>
<event>
 5    1  0.3331626E-002  0.1250006E+03  0.7818608E-02  0.1235068E+00
          4   -1    0    0  501    0  0.00000000000E+00  0.00000000000E+00  0.63900906255E+02  0.63913525331E+02  0.12700000000E+01 0.  1.
         -4   -1    0    0    0  501 -0.00000000000E+00 -0.00000000000E+00 -0.61105136310E+02  0.61118332630E+02  0.12700000000E+01 0.  1.
         25    2    1    2    0    0  0.00000000000E+00  0.00000000000E+00  0.27957699456E+01  0.12503185796E+03  0.12500059670E+03 0.  0.
    9000005    1    3    3    0    0 -0.15436747778E+02  0.41398071228E+02  0.45603889959E+02  0.63504395618E+02  0.10000000000E+01 0.  0.
    9000005    1    3    3    0    0  0.15436747778E+02 -0.41398071228E+02 -0.42808120014E+02  0.61527462344E+02  0.10000000000E+01 0.  0.
<mgrwt>
<rscale>  0 0.12500060E+03</rscale>
<asrwt>0</asrwt>
<pdfrwt beam="1">  1        4 0.98328944E-02 0.12500060E+03</pdfrwt>
<pdfrwt beam="2">  1       -4 0.94027760E-02 0.12500060E+03</pdfrwt>
<totfact> 0.10452030E+04</totfact>
</mgrwt>
</event>
<event>
 5    1  0.3331626E-002  0.1249997E+03  0.7818608E-02  0.1235070E+00
          4   -1    0    0  501    0  0.00000000000E+00  0.00000000000E+00  0.59896659163E+03  0.59896793803E+03  0.12700000000E+01 0.  1.
         -4   -1    0    0    0  501 -0.00000000000E+00 -0.00000000000E+00 -0.64584175514E+01  0.65821012806E+01  0.12700000000E+01 0.  1.
         25    2    1    2    0    0  0.00000000000E+00  0.00000000000E+00  0.59250817407E+03  0.60555003931E+03  0.12499965504E+03 0.  0.
    9000005    1    3    3    0    0  0.14403103869E+02  0.10601670311E+01  0.17131341181E+01  0.14577660433E+02  0.10000000000E+01 0.  0.
    9000005    1    3    3    0    0 -0.14403103869E+02 -0.10601670311E+01  0.59079503996E+03  0.59097237887E+03  0.10000000000E+01 0.  0.
<mgrwt>
<rscale>  0 0.12499966E+03</rscale>
<asrwt>0</asrwt>
<pdfrwt beam="1">  1        4 0.92158338E-01 0.12499966E+03</pdfrwt>
<pdfrwt beam="2">  1       -4 0.10032203E-02 0.12499966E+03</pdfrwt>
<totfact> 0.48519501E+03</totfact>
</mgrwt>
</event>
<event>
 5    1  0.3331626E-002  0.1249576E+03  0.7818608E-02  0.1235136E+00
          4   -1    0    0  501    0  0.00000000000E+00  0.00000000000E+00  0.11077180053E+03  0.11077908057E+03  0.12700000000E+01 0.  1.
         -4   -1    0    0    0  501 -0.00000000000E+00 -0.00000000000E+00 -0.35220112688E+02  0.35243002678E+02  0.12700000000E+01 0.  1.
         25    2    1    2    0    0  0.00000000000E+00  0.00000000000E+00  0.75551687838E+02  0.14602208325E+03  0.12495755784E+03 0.  0.
    9000005    1    3    3    0    0 -0.57155924696E+01  0.58978611005E+02  0.14655410593E+02  0.61048551276E+02  0.10000000000E+01 0.  0.
    9000005    1    3    3    0    0  0.57155924696E+01 -0.58978611005E+02  0.60896277245E+02  0.84973531971E+02  0.10000000000E+01 0.  0.
<mgrwt>
<rscale>  0 0.12495756E+03</rscale>
<asrwt>0</asrwt>
<pdfrwt beam="1">  1        4 0.17044136E-01 0.12495756E+03</pdfrwt>
<pdfrwt beam="2">  1       -4 0.54207997E-02 0.12495756E+03</pdfrwt>
<totfact> 0.10019835E+04</totfact>
</mgrwt>
</event>
<event>
 5    1  0.3331626E-002  0.1250014E+03  0.7818608E-02  0.1235067E+00
         -4   -1    0    0    0  501 -0.00000000000E+00  0.00000000000E+00  0.95731852677E+01  0.96570583601E+01  0.12700000000E+01 0.  1.
          4   -1    0    0  501    0  0.00000000000E+00 -0.00000000000E+00 -0.40618544436E+03  0.40618742978E+03  0.12700000000E+01 0.  1.
         25    2    1    2    0    0  0.00000000000E+00  0.00000000000E+00 -0.39661225909E+03  0.41584448814E+03  0.12500141700E+03 0.  0.
    9000005    1    3    3    0    0 -0.27540381037E+02  0.66370365759E+01 -0.12998199484E+02  0.31184547969E+02  0.10000000000E+01 0.  0.
    9000005    1    3    3    0    0  0.27540381037E+02 -0.66370365759E+01 -0.38361405961E+03  0.38465994017E+03  0.10000000000E+01 0.  0.
<mgrwt>
<rscale>  0 0.12500142E+03</rscale>
<asrwt>0</asrwt>
<pdfrwt beam="2">  1        4 0.62496660E-01 0.12500142E+03</pdfrwt>
<pdfrwt beam="1">  1       -4 0.14794025E-02 0.12500142E+03</pdfrwt>
<totfact> 0.63038439E+03</totfact>
</mgrwt>
</event>
<event>
 5    1  0.3331626E-002  0.1250016E+03  0.7818608E-02  0.1235067E+00
         -4   -1    0    0    0  501 -0.00000000000E+00  0.00000000000E+00  0.37554222773E+02  0.37575690920E+02  0.12700000000E+01 0.  1.
          4   -1    0    0  501    0  0.00000000000E+00 -0.00000000000E+00 -0.10396384849E+03  0.10397160523E+03  0.12700000000E+01 0.  1.
         25    2    1    2    0    0  0.00000000000E+00  0.00000000000E+00 -0.66409625721E+02  0.14154729615E+03  0.12500159462E+03 0.  0.
    9000005    1    3    3    0    0  0.54005193155E+02 -0.30030606676E+02 -0.22645773406E+02  0.65819672426E+02  0.10000000000E+01 0.  0.
    9000005    1    3    3    0    0 -0.54005193155E+02  0.30030606676E+02 -0.43763852315E+02  0.75727623722E+02  0.10000000000E+01 0.  0.
<mgrwt>
<rscale>  0 0.12500159E+03</rscale>
<asrwt>0</asrwt>
<pdfrwt beam="2">  1        4 0.15996686E-01 0.12500159E+03</pdfrwt>
<pdfrwt beam="1">  1       -4 0.57798208E-02 0.12500159E+03</pdfrwt>
<totfact> 0.10101255E+04</totfact>
</mgrwt>
</event>
<event>
 5    1  0.3331626E-002  0.1250040E+03  0.7818608E-02  0.1235063E+00
         -4   -1    0    0    0  501 -0.00000000000E+00  0.00000000000E+00  0.27066678504E+03  0.27066976452E+03  0.12700000000E+01 0. -1.
          4   -1    0    0  501    0  0.00000000000E+00 -0.00000000000E+00 -0.14401870272E+02  0.14457758033E+02  0.12700000000E+01 0. -1.
         25    2    1    2    0    0  0.00000000000E+00  0.00000000000E+00  0.25626491477E+03  0.28512752255E+03  0.12500399023E+03 0.  0.
    9000005    1    3    3    0    0  0.11109602364E+02 -0.36924458930E+02  0.15955742660E+02  0.41742360449E+02  0.10000000000E+01 0.  0.
    9000005    1    3    3    0    0 -0.11109602364E+02  0.36924458930E+02  0.24030917211E+03  0.24338516210E+03  0.10000000000E+01 0.  0.
<mgrwt>
<rscale>  0 0.12500399E+03</rscale>
<asrwt>0</asrwt>
<pdfrwt beam="2">  1        4 0.22202007E-02 0.12500399E+03</pdfrwt>
<pdfrwt beam="1">  1       -4 0.41645569E-01 0.12500399E+03</pdfrwt>
<totfact> 0.77496238E+03</totfact>
</mgrwt>
</event>
<event>
 5    1  0.3331626E-002  0.1250073E+03  0.7818608E-02  0.1235058E+00
          4   -1    0    0  501    0  0.00000000000E+00  0.00000000000E+00  0.20338364314E+02  0.20377977401E+02  0.12700000000E+01 0. -1.
         -4   -1    0    0    0  501 -0.00000000000E+00 -0.00000000000E+00 -0.19185703340E+03  0.19186123674E+03  0.12700000000E+01 0. -1.
         25    2    1    2    0    0  0.00000000000E+00  0.00000000000E+00 -0.17151866908E+03  0.21223921414E+03  0.12500732049E+03 0.  0.
    9000005    1    3    3    0    0 -0.53447655446E+02  0.29085229332E+02 -0.10995572608E+03  0.12567364137E+03  0.10000000000E+01 0.  0.
    9000005    1    3    3    0    0  0.53447655446E+02 -0.29085229332E+02 -0.61562943007E+02  0.86565572773E+02  0.10000000000E+01 0.  0.
<mgrwt>
<rscale>  0 0.12500732E+03</rscale>
<asrwt>0</asrwt>
<pdfrwt beam="1">  1        4 0.31323497E-02 0.12500732E+03</pdfrwt>
<pdfrwt beam="2">  1       -4 0.29519836E-01 0.12500732E+03</pdfrwt>
<totfact> 0.88097073E+03</totfact>
</mgrwt>
</event>
<event>
 5    1  0.3331626E-002  0.1249985E+03  0.7818608E-02  0.1235072E+00
          4   -1    0    0  501    0  0.00000000000E+00  0.00000000000E+00  0.42895807232E+03  0.42895995233E+03  0.12700000000E+01 0. -1.
         -4   -1    0    0    0  501 -0.00000000000E+00 -0.00000000000E+00 -0.90599632116E+01  0.91485426924E+01  0.12700000000E+01 0. -1.
         25    2    1    2    0    0  0.00000000000E+00  0.00000000000E+00  0.41989810910E+03  0.43810849503E+03  0.12499852553E+03 0.  0.
    9000005    1    3    3    0    0 -0.34799960164E+02  0.71588610797E+01  0.39013246124E+03  0.39174816379E+03  0.10000000000E+01 0.  0.
    9000005    1    3    3    0    0  0.34799960164E+02 -0.71588610797E+01  0.29765647862E+02  0.46360331233E+02  0.10000000000E+01 0.  0.
<mgrwt>
<rscale>  0 0.12499853E+03</rscale>
<asrwt>0</asrwt>
<pdfrwt beam="1">  1        4 0.66000510E-01 0.12499853E+03</pdfrwt>
<pdfrwt beam="2">  1       -4 0.14007989E-02 0.12499853E+03</pdfrwt>
<totfact> 0.61009800E+03</totfact>
</mgrwt>
</event>
<event>
 5    1  0.3331626E-002  0.1249932E+03  0.7818608E-02  0.1235080E+00
         -4   -1    0    0    0  501 -0.00000000000E+00  0.00000000000E+00  0.87402813867E+01  0.88320676356E+01  0.12700000000E+01 0.  1.
          4   -1    0    0  501    0  0.00000000000E+00 -0.00000000000E+00 -0.44444929413E+03  0.44445110862E+03  0.12700000000E+01 0.  1.
         25    2    1    2    0    0  0.00000000000E+00  0.00000000000E+00 -0.43570901274E+03  0.45328317625E+03  0.12499317617E+03 0.  0.
    9000005    1    3    3    0    0  0.18826311652E+02  0.39026824523E+02 -0.38113802781E+03  0.38359447244E+03  0.10000000000E+01 0.  0.
    9000005    1    3    3    0    0 -0.18826311652E+02 -0.39026824523E+02 -0.54570984928E+02  0.69688703810E+02  0.10000000000E+01 0.  0.
<mgrwt>
<rscale>  0 0.12499318E+03</rscale>
<asrwt>0</asrwt>
<pdfrwt beam="2">  1        4 0.68383997E-01 0.12499318E+03</pdfrwt>
<pdfrwt beam="1">  1       -4 0.13518591E-02 0.12499318E+03</pdfrwt>
<totfact> 0.59689403E+03</totfact>
</mgrwt>
</event>
<event>
 5    1  0.3331626E-002  0.1249953E+03  0.7818608E-02  0.1235077E+00
          4   -1    0    0  501    0  0.00000000000E+00  0.00000000000E+00  0.45106052205E+01  0.46859854305E+01  0.12700000000E+01 0. -1.
         -4   -1    0    0    0  501 -0.00000000000E+00 -0.00000000000E+00 -0.84925986376E+03  0.84926081335E+03  0.12700000000E+01 0. -1.
         25    2    1    2    0    0  0.00000000000E+00  0.00000000000E+00 -0.84474925854E+03  0.85394679878E+03  0.12499530130E+03 0.  0.
    9000005    1    3    3    0    0 -0.61046515386E+02  0.64658214751E+01 -0.50218505338E+03  0.50592421540E+03  0.10000000000E+01 0.  0.
    9000005    1    3    3    0    0  0.61046515386E+02 -0.64658214751E+01 -0.34256420516E+03  0.34802258338E+03  0.10000000000E+01 0.  0.
<mgrwt>
<rscale>  0 0.12499530E+03</rscale>
<asrwt>0</asrwt>
<pdfrwt beam="1">  1        4 0.70750377E-03 0.12499530E+03</pdfrwt>
<pdfrwt beam="2">  1       -4 0.13066880E+00 0.12499530E+03</pdfrwt>
<totfact> 0.35970080E+03</totfact>
</mgrwt>
</event>
<event>
 5    1  0.3331626E-002  0.1250187E+03  0.7818608E-02  0.1235040E+00
          4   -1    0    0  501    0  0.00000000000E+00  0.00000000000E+00  0.65283512060E+01  0.66507345060E+01  0.12700000000E+01 0.  1.
         -4   -1    0    0    0  501 -0.00000000000E+00 -0.00000000000E+00 -0.59284947463E+03  0.59285083492E+03  0.12700000000E+01 0.  1.
         25    2    1    2    0    0  0.00000000000E+00  0.00000000000E+00 -0.58632112342E+03  0.59950156943E+03  0.12501868650E+03 0.  0.
    9000005    1    3    3    0    0 -0.44974954672E+02 -0.42407412040E+02 -0.33744450087E+03  0.34306111163E+03  0.10000000000E+01 0.  0.
    9000005    1    3    3    0    0  0.44974954672E+02  0.42407412040E+02 -0.24887662255E+03  0.25644045780E+03  0.10000000000E+01 0.  0.
<mgrwt>
<rscale>  0 0.12501869E+03</rscale>
<asrwt>0</asrwt>
<pdfrwt beam="1">  1        4 0.10138809E-02 0.12501869E+03</pdfrwt>
<pdfrwt beam="2">  1       -4 0.91217088E-01 0.12501869E+03</pdfrwt>
<totfact> 0.48879074E+03</totfact>
</mgrwt>
</event>
<event>
 5    1  0.3331626E-002  0.1250037E+03  0.7818608E-02  0.1235063E+00
         -4   -1    0    0    0  501 -0.00000000000E+00  0.00000000000E+00  0.18034613835E+03  0.18035060998E+03  0.12700000000E+01 0. -1.
          4   -1    0    0  501    0  0.00000000000E+00 -0.00000000000E+00 -0.21637674677E+02  0.21674913274E+02  0.12700000000E+01 0. -1.
         25    2    1    2    0    0  0.00000000000E+00  0.00000000000E+00  0.15870846368E+03  0.20202552325E+03  0.12500374235E+03 0.  0.
    9000005    1    3    3    0    0 -0.12306888773E+02 -0.61163917086E+02  0.73527180839E+02  0.96435110757E+02  0.10000000000E+01 0.  0.
    9000005    1    3    3    0    0  0.12306888773E+02  0.61163917086E+02  0.85181282836E+02  0.10559041249E+03  0.10000000000E+01 0.  0.
<mgrwt>
<rscale>  0 0.12500374E+03</rscale>
<asrwt>0</asrwt>
<pdfrwt beam="2">  1        4 0.33320814E-02 0.12500374E+03</pdfrwt>
<pdfrwt beam="1">  1       -4 0.27748769E-01 0.12500374E+03</pdfrwt>
<totfact> 0.89787488E+03</totfact>
</mgrwt>
</event>
<event>
 5    1  0.3331626E-002  0.1249522E+03  0.7818608E-02  0.1235144E+00
         -4   -1    0    0    0  501 -0.00000000000E+00  0.00000000000E+00  0.48248704738E+02  0.48265416283E+02  0.12700000000E+01 0.  1.
          4   -1    0    0  501    0  0.00000000000E+00 -0.00000000000E+00 -0.80863105051E+02  0.80873077464E+02  0.12700000000E+01 0.  1.
         25    2    1    2    0    0  0.00000000000E+00  0.00000000000E+00 -0.32614400313E+02  0.12913849375E+03  0.12495219670E+03 0.  0.
    9000005    1    3    3    0    0  0.47614141721E+02 -0.38995522690E+02 -0.52479634807E+01  0.61776196082E+02  0.10000000000E+01 0.  0.
    9000005    1    3    3    0    0 -0.47614141721E+02  0.38995522690E+02 -0.27366436832E+02  0.67362297664E+02  0.10000000000E+01 0.  0.
<mgrwt>
<rscale>  0 0.12495220E+03</rscale>
<asrwt>0</asrwt>
<pdfrwt beam="2">  1        4 0.12442530E-01 0.12495220E+03</pdfrwt>
<pdfrwt beam="1">  1       -4 0.74249303E-02 0.12495220E+03</pdfrwt>
<totfact> 0.10374162E+04</totfact>
</mgrwt>
</event>
<event>
 5    1  0.3331626E-002  0.1250010E+03  0.7818608E-02  0.1235068E+00
          4   -1    0    0  501    0  0.00000000000E+00  0.00000000000E+00  0.57138661169E+02  0.57152773338E+02  0.12700000000E+01 0. -1.
         -4   -1    0    0    0  501 -0.00000000000E+00 -0.00000000000E+00 -0.68337006814E+02  0.68348806868E+02  0.12700000000E+01 0. -1.
         25    2    1    2    0    0  0.00000000000E+00  0.00000000000E+00 -0.11198345644E+02  0.12550158021E+03  0.12500097475E+03 0.  0.
    9000005    1    3    3    0    0  0.26120128560E+02  0.55725252685E+02  0.52953675263E+01  0.61778684188E+02  0.10000000000E+01 0.  0.
    9000005    1    3    3    0    0 -0.26120128560E+02 -0.55725252685E+02 -0.16493713171E+02  0.63722896018E+02  0.10000000000E+01 0.  0.
<mgrwt>
<rscale>  0 0.12500097E+03</rscale>
<asrwt>0</asrwt>
<pdfrwt beam="1">  1        4 0.87925565E-02 0.12500097E+03</pdfrwt>
<pdfrwt beam="2">  1       -4 0.10515379E-01 0.12500097E+03</pdfrwt>
<totfact> 0.10441690E+04</totfact>
</mgrwt>
</event>
<event>
 5    1  0.3331626E-002  0.1249998E+03  0.7818608E-02  0.1235070E+00
          4   -1    0    0  501    0  0.00000000000E+00  0.00000000000E+00  0.15413222970E+04  0.15413228203E+04  0.12700000000E+01 0.  1.
         -4   -1    0    0    0  501 -0.00000000000E+00 -0.00000000000E+00 -0.23746793787E+01  0.26929541682E+01  0.12700000000E+01 0.  1.
         25    2    1    2    0    0  0.00000000000E+00  0.00000000000E+00  0.15389476177E+04  0.15440157744E+04  0.12499976710E+03 0.  0.
    9000005    1    3    3    0    0  0.27884800614E+02 -0.89712679651E+01  0.14513291931E+04  0.14516251143E+04  0.10000000000E+01 0.  0.
    9000005    1    3    3    0    0 -0.27884800614E+02  0.89712679651E+01  0.87618424563E+02  0.92390660118E+02  0.10000000000E+01 0.  0.
<mgrwt>
<rscale>  0 0.12499977E+03</rscale>
<asrwt>0</asrwt>
<pdfrwt beam="1">  1        4 0.23715138E+00 0.12499977E+03</pdfrwt>
<pdfrwt beam="2">  1       -4 0.38985763E-03 0.12499977E+03</pdfrwt>
<totfact> 0.17081273E+03</totfact>
</mgrwt>
</event>
<event>
 5    1  0.3331626E-002  0.1250020E+03  0.7818608E-02  0.1235066E+00
          4   -1    0    0  501    0  0.00000000000E+00  0.00000000000E+00  0.63499815595E+01  0.64757366999E+01  0.12700000000E+01 0.  1.
         -4   -1    0    0    0  501 -0.00000000000E+00 -0.00000000000E+00 -0.60902049716E+03  0.60902182134E+03  0.12700000000E+01 0.  1.
         25    2    1    2    0    0  0.00000000000E+00  0.00000000000E+00 -0.60267051560E+03  0.61549755804E+03  0.12500197427E+03 0.  0.
    9000005    1    3    3    0    0  0.32978145430E+01  0.57406291826E+02 -0.18082376074E+03  0.18974875591E+03  0.10000000000E+01 0.  0.
    9000005    1    3    3    0    0 -0.32978145430E+01 -0.57406291826E+02 -0.42184675486E+03  0.42574880212E+03  0.10000000000E+01 0.  0.
<mgrwt>
<rscale>  0 0.12500197E+03</rscale>
<asrwt>0</asrwt>
<pdfrwt beam="1">  1        4 0.98669606E-03 0.12500197E+03</pdfrwt>
<pdfrwt beam="2">  1       -4 0.93705190E-01 0.12500197E+03</pdfrwt>
<totfact> 0.47901692E+03</totfact>
</mgrwt>
</event>
<event>
 5    1  0.3331626E-002  0.1250003E+03  0.7818608E-02  0.1235069E+00
         -4   -1    0    0    0  501 -0.00000000000E+00  0.00000000000E+00  0.41540180678E+02  0.41559589878E+02  0.12700000000E+01 0.  1.
          4   -1    0    0  501    0  0.00000000000E+00 -0.00000000000E+00 -0.93990314520E+02  0.93998894268E+02  0.12700000000E+01 0.  1.
         25    2    1    2    0    0  0.00000000000E+00  0.00000000000E+00 -0.52450133841E+02  0.13555848415E+03  0.12500034433E+03 0.  0.
    9000005    1    3    3    0    0 -0.42163698524E+02 -0.30679052037E+02  0.11126678000E+02  0.53327147594E+02  0.10000000000E+01 0.  0.
    9000005    1    3    3    0    0  0.42163698524E+02  0.30679052037E+02 -0.63576811841E+02  0.82231336552E+02  0.10000000000E+01 0.  0.
<mgrwt>
<rscale>  0 0.12500034E+03</rscale>
<asrwt>0</asrwt>
<pdfrwt beam="2">  1        4 0.14462201E-01 0.12500034E+03</pdfrwt>
<pdfrwt beam="1">  1       -4 0.63929501E-02 0.12500034E+03</pdfrwt>
<totfact> 0.10226233E+04</totfact>
</mgrwt>
</event>
<event>
 5    1  0.3331626E-002  0.1250001E+03  0.7818608E-02  0.1235069E+00
          4   -1    0    0  501    0  0.00000000000E+00  0.00000000000E+00  0.15426649847E+02  0.15478837990E+02  0.12700000000E+01 0.  1.
         -4   -1    0    0    0  501 -0.00000000000E+00 -0.00000000000E+00 -0.25273339402E+03  0.25273658491E+03  0.12700000000E+01 0.  1.
         25    2    1    2    0    0  0.00000000000E+00  0.00000000000E+00 -0.23730674417E+03  0.26821542290E+03  0.12500008901E+03 0.  0.
    9000005    1    3    3    0    0 -0.27988323444E+02  0.55858988261E+02 -0.12143681613E+03  0.13657039624E+03  0.10000000000E+01 0.  0.
    9000005    1    3    3    0    0  0.27988323444E+02 -0.55858988261E+02 -0.11586992804E+03  0.13164502666E+03  0.10000000000E+01 0.  0.
<mgrwt>
<rscale>  0 0.12500009E+03</rscale>
<asrwt>0</asrwt>
<pdfrwt beam="1">  1        4 0.23775909E-02 0.12500009E+03</pdfrwt>
<pdfrwt beam="2">  1       -4 0.38886317E-01 0.12500009E+03</pdfrwt>
<totfact> 0.79766634E+03</totfact>
</mgrwt>
</event>
<event>
 5    1  0.3331626E-002  0.1250019E+03  0.7818608E-02  0.1235066E+00
          4   -1    0    0  501    0  0.00000000000E+00  0.00000000000E+00  0.53238998067E+02  0.53254143644E+02  0.12700000000E+01 0.  1.
         -4   -1    0    0    0  501 -0.00000000000E+00 -0.00000000000E+00 -0.73343082242E+02  0.73354077001E+02  0.12700000000E+01 0.  1.
         25    2    1    2    0    0  0.00000000000E+00  0.00000000000E+00 -0.20104084174E+02  0.12660822065E+03  0.12500186932E+03 0.  0.
    9000005    1    3    3    0    0 -0.68693939341E+01  0.15071452106E+02 -0.71084420099E+02  0.72995424667E+02  0.10000000000E+01 0.  0.
    9000005    1    3    3    0    0  0.68693939341E+01 -0.15071452106E+02  0.50980335924E+02  0.53612795978E+02  0.10000000000E+01 0.  0.
<mgrwt>
<rscale>  0 0.12500187E+03</rscale>
<asrwt>0</asrwt>
<pdfrwt beam="1">  1        4 0.81926259E-02 0.12500187E+03</pdfrwt>
<pdfrwt beam="2">  1       -4 0.11285562E-01 0.12500187E+03</pdfrwt>
<totfact> 0.10417230E+04</totfact>
</mgrwt>
</event>
<event>
 5    1  0.3331626E-002  0.1250220E+03  0.7818608E-02  0.1235035E+00
          4   -1    0    0  501    0  0.00000000000E+00  0.00000000000E+00  0.29618113235E+03  0.29618385516E+03  0.12700000000E+01 0. -1.
         -4   -1    0    0    0  501 -0.00000000000E+00 -0.00000000000E+00 -0.13160002118E+02  0.13221140486E+02  0.12700000000E+01 0. -1.
         25    2    1    2    0    0  0.00000000000E+00  0.00000000000E+00  0.28302113023E+03  0.30940499565E+03  0.12502196277E+03 0.  0.
    9000005    1    3    3    0    0  0.13158250603E+02 -0.55365415354E+02  0.77540130576E+02  0.96187008613E+02  0.10000000000E+01 0.  0.
    9000005    1    3    3    0    0 -0.13158250603E+02  0.55365415354E+02  0.20548099965E+03  0.21321798703E+03  0.10000000000E+01 0.  0.
<mgrwt>
<rscale>  0 0.12502196E+03</rscale>
<asrwt>0</asrwt>
<pdfrwt beam="1">  1        4 0.45571243E-01 0.12502196E+03</pdfrwt>
<pdfrwt beam="2">  1       -4 0.20295280E-02 0.12502196E+03</pdfrwt>
<totfact> 0.74397776E+03</totfact>
</mgrwt>
</event>
<event>
 5    1  0.3331626E-002  0.1250008E+03  0.7818608E-02  0.1235068E+00
          4   -1    0    0  501    0  0.00000000000E+00  0.00000000000E+00  0.18464318158E+03  0.18464754914E+03  0.12700000000E+01 0. -1.
         -4   -1    0    0    0  501 -0.00000000000E+00 -0.00000000000E+00 -0.21132246212E+02  0.21170373874E+02  0.12700000000E+01 0. -1.
         25    2    1    2    0    0  0.00000000000E+00  0.00000000000E+00  0.16351093537E+03  0.20581792302E+03  0.12500076580E+03 0.  0.
    9000005    1    3    3    0    0 -0.20966763807E+02  0.40801759366E+02  0.11881337424E+02  0.47397836775E+02  0.10000000000E+01 0.  0.
    9000005    1    3    3    0    0  0.20966763807E+02 -0.40801759366E+02  0.15162959795E+03  0.15842008624E+03  0.10000000000E+01 0.  0.
<mgrwt>
<rscale>  0 0.12500077E+03</rscale>
<asrwt>0</asrwt>
<pdfrwt beam="1">  1        4 0.28409913E-01 0.12500077E+03</pdfrwt>
<pdfrwt beam="2">  1       -4 0.32543836E-02 0.12500077E+03</pdfrwt>
<totfact> 0.89161928E+03</totfact>
</mgrwt>
</event>
<event>
 5    1  0.3331626E-002  0.1249978E+03  0.7818608E-02  0.1235073E+00
         -4   -1    0    0    0  501 -0.00000000000E+00  0.00000000000E+00  0.15386910311E+03  0.15387434416E+03  0.12700000000E+01 0. -1.
          4   -1    0    0  501    0  0.00000000000E+00 -0.00000000000E+00 -0.25364368913E+02  0.25396143612E+02  0.12700000000E+01 0. -1.
         25    2    1    2    0    0  0.00000000000E+00  0.00000000000E+00  0.12850473419E+03  0.17927048777E+03  0.12499776428E+03 0.  0.
    9000005    1    3    3    0    0 -0.72908483422E+00 -0.61620168681E+02  0.79124678761E+02  0.10029601957E+03  0.10000000000E+01 0.  0.
    9000005    1    3    3    0    0  0.72908483422E+00  0.61620168681E+02  0.49380055433E+02  0.78974468200E+02  0.10000000000E+01 0.  0.
<mgrwt>
<rscale>  0 0.12499776E+03</rscale>
<asrwt>0</asrwt>
<pdfrwt beam="2">  1        4 0.39050580E-02 0.12499776E+03</pdfrwt>
<pdfrwt beam="1">  1       -4 0.23675017E-01 0.12499776E+03</pdfrwt>
<totfact> 0.93753182E+03</totfact>
</mgrwt>
</event>
<event>
 5    1  0.3331626E-002  0.1249988E+03  0.7818608E-02  0.1235071E+00
          4   -1    0    0  501    0  0.00000000000E+00  0.00000000000E+00  0.16538193517E+03  0.16538681139E+03  0.12700000000E+01 0.  1.
         -4   -1    0    0    0  501 -0.00000000000E+00 -0.00000000000E+00 -0.23596809064E+02  0.23630960582E+02  0.12700000000E+01 0.  1.
         25    2    1    2    0    0  0.00000000000E+00  0.00000000000E+00  0.14178512611E+03  0.18901777197E+03  0.12499878453E+03 0.  0.
    9000005    1    3    3    0    0 -0.32403219925E+02  0.34681020270E+02  0.94232053831E+01  0.48399779216E+02  0.10000000000E+01 0.  0.
    9000005    1    3    3    0    0  0.32403219925E+02 -0.34681020270E+02  0.13236192072E+03  0.14061799275E+03  0.10000000000E+01 0.  0.
<mgrwt>
<rscale>  0 0.12499878E+03</rscale>
<asrwt>0</asrwt>
<pdfrwt beam="1">  1        4 0.25446377E-01 0.12499878E+03</pdfrwt>
<pdfrwt beam="2">  1       -4 0.36332804E-02 0.12499878E+03</pdfrwt>
<totfact> 0.92021005E+03</totfact>
</mgrwt>
</event>
<event>
 5    1  0.3331626E-002  0.1249981E+03  0.7818608E-02  0.1235072E+00
          4   -1    0    0  501    0  0.00000000000E+00  0.00000000000E+00  0.70746358859E+02  0.70757757114E+02  0.12700000000E+01 0.  1.
         -4   -1    0    0    0  501 -0.00000000000E+00 -0.00000000000E+00 -0.55190007059E+02  0.55204617372E+02  0.12700000000E+01 0.  1.
         25    2    1    2    0    0  0.00000000000E+00  0.00000000000E+00  0.15556351800E+02  0.12596237449E+03  0.12499807880E+03 0.  0.
    9000005    1    3    3    0    0 -0.35974905268E+02 -0.22021577667E+02 -0.38685945013E+02  0.57242868844E+02  0.10000000000E+01 0.  0.
    9000005    1    3    3    0    0  0.35974905268E+02  0.22021577667E+02  0.54242296814E+02  0.68719505641E+02  0.10000000000E+01 0.  0.
<mgrwt>
<rscale>  0 0.12499808E+03</rscale>
<asrwt>0</asrwt>
<pdfrwt beam="1">  1        4 0.10886056E-01 0.12499808E+03</pdfrwt>
<pdfrwt beam="2">  1       -4 0.84927710E-02 0.12499808E+03</pdfrwt>
<totfact> 0.10432234E+04</totfact>
</mgrwt>
</event>
<event>
 5    1  0.3331626E-002  0.1250058E+03  0.7818608E-02  0.1235060E+00
         -4   -1    0    0    0  501 -0.00000000000E+00  0.00000000000E+00  0.19103398423E+03  0.19103820568E+03  0.12700000000E+01 0.  1.
          4   -1    0    0  501    0  0.00000000000E+00 -0.00000000000E+00 -0.20425662081E+02  0.20465106192E+02  0.12700000000E+01 0.  1.
         25    2    1    2    0    0  0.00000000000E+00  0.00000000000E+00  0.17060832215E+03  0.21150331187E+03  0.12500580526E+03 0.  0.
    9000005    1    3    3    0    0  0.14653592041E+02  0.60358863274E+02  0.73619585232E+02  0.96326338377E+02  0.10000000000E+01 0.  0.
    9000005    1    3    3    0    0 -0.14653592041E+02 -0.60358863274E+02  0.96988736915E+02  0.11517697350E+03  0.10000000000E+01 0.  0.
<mgrwt>
<rscale>  0 0.12500581E+03</rscale>
<asrwt>0</asrwt>
<pdfrwt beam="2">  1        4 0.31457686E-02 0.12500581E+03</pdfrwt>
<pdfrwt beam="1">  1       -4 0.29393201E-01 0.12500581E+03</pdfrwt>
<totfact> 0.88219509E+03</totfact>
</mgrwt>
</event>
<event>
 5    1  0.3331626E-002  0.1250007E+03  0.7818608E-02  0.1235068E+00
          4   -1    0    0  501    0  0.00000000000E+00  0.00000000000E+00  0.96047683363E+03  0.96047767326E+03  0.12700000000E+01 0. -1.
         -4   -1    0    0    0  501 -0.00000000000E+00 -0.00000000000E+00 -0.39670309420E+01  0.41653612683E+01  0.12700000000E+01 0. -1.
         25    2    1    2    0    0  0.00000000000E+00  0.00000000000E+00  0.95650980269E+03  0.96464303453E+03  0.12500072574E+03 0.  0.
    9000005    1    3    3    0    0 -0.10138837932E+02  0.12588403808E+02  0.12405915535E+02  0.20400261893E+02  0.10000000000E+01 0.  0.
    9000005    1    3    3    0    0  0.10138837932E+02 -0.12588403808E+02  0.94410388715E+03  0.94424277264E+03  0.10000000000E+01 0.  0.
<mgrwt>
<rscale>  0 0.12500073E+03</rscale>
<asrwt>0</asrwt>
<pdfrwt beam="1">  1        4 0.14778081E+00 0.12500073E+03</pdfrwt>
<pdfrwt beam="2">  1       -4 0.62563398E-03 0.12500073E+03</pdfrwt>
<totfact> 0.31801260E+03</totfact>
</mgrwt>
</event>
<event>
 5    1  0.3331626E-002  0.1250030E+03  0.7818608E-02  0.1235065E+00
          4   -1    0    0  501    0  0.00000000000E+00  0.00000000000E+00  0.66145255520E+02  0.66157446503E+02  0.12700000000E+01 0. -1.
         -4   -1    0    0    0  501 -0.00000000000E+00 -0.00000000000E+00 -0.59034051068E+02  0.59047710248E+02  0.12700000000E+01 0. -1.
         25    2    1    2    0    0  0.00000000000E+00  0.00000000000E+00  0.71112044523E+01  0.12520515675E+03  0.12500304816E+03 0.  0.
    9000005    1    3    3    0    0 -0.57555001045E+02  0.15622124064E+02  0.22262297714E+02  0.63665051677E+02  0.10000000000E+01 0.  0.
    9000005    1    3    3    0    0  0.57555001045E+02 -0.15622124064E+02 -0.15151093261E+02  0.61540105074E+02  0.10000000000E+01 0.  0.
<mgrwt>
<rscale>  0 0.12500305E+03</rscale>
<asrwt>0</asrwt>
<pdfrwt beam="1">  1        4 0.10178182E-01 0.12500305E+03</pdfrwt>
<pdfrwt beam="2">  1       -4 0.90841502E-02 0.12500305E+03</pdfrwt>
<totfact> 0.10447689E+04</totfact>
</mgrwt>
</event>
<event>
 5    1  0.3331626E-002  0.1249988E+03  0.7818608E-02  0.1235071E+00
         -4   -1    0    0    0  501 -0.00000000000E+00  0.00000000000E+00  0.10785850322E+04  0.10785857799E+04  0.12700000000E+01 0. -1.
          4   -1    0    0  501    0  0.00000000000E+00 -0.00000000000E+00 -0.35094607310E+01  0.37321863060E+01  0.12700000000E+01 0. -1.
         25    2    1    2    0    0  0.00000000000E+00  0.00000000000E+00  0.10750755715E+04  0.10823179662E+04  0.12499878234E+03 0.  0.
    9000005    1    3    3    0    0  0.23417126808E+02 -0.25845891219E+02  0.88556236082E+02  0.95181820060E+02  0.10000000000E+01 0.  0.
    9000005    1    3    3    0    0 -0.23417126808E+02  0.25845891219E+02  0.98651933540E+03  0.98713614615E+03  0.10000000000E+01 0.  0.
<mgrwt>
<rscale>  0 0.12499878E+03</rscale>
<asrwt>0</asrwt>
<pdfrwt beam="2">  1        4 0.55710698E-03 0.12499878E+03</pdfrwt>
<pdfrwt beam="1">  1       -4 0.16595344E+00 0.12499878E+03</pdfrwt>
<totfact> 0.28007464E+03</totfact>
</mgrwt>
</event>
<event>
 5    1  0.3331626E-002  0.1249962E+03  0.7818608E-02  0.1235075E+00
         -4   -1    0    0    0  501 -0.00000000000E+00  0.00000000000E+00  0.13633663498E+02  0.13692687113E+02  0.12700000000E+01 0. -1.
          4   -1    0    0  501    0  0.00000000000E+00 -0.00000000000E+00 -0.28581826897E+03  0.28582109050E+03  0.12700000000E+01 0. -1.
         25    2    1    2    0    0  0.00000000000E+00  0.00000000000E+00 -0.27218460547E+03  0.29951377762E+03  0.12499617405E+03 0.  0.
    9000005    1    3    3    0    0  0.39650349267E+02  0.23252977170E+02 -0.23753211639E+03  0.24194081397E+03  0.10000000000E+01 0.  0.
    9000005    1    3    3    0    0 -0.39650349267E+02 -0.23252977170E+02 -0.34652489079E+02  0.57572963652E+02  0.10000000000E+01 0.  0.
<mgrwt>
<rscale>  0 0.12499617E+03</rscale>
<asrwt>0</asrwt>
<pdfrwt beam="2">  1        4 0.43976794E-01 0.12499617E+03</pdfrwt>
<pdfrwt beam="1">  1       -4 0.21022442E-02 0.12499617E+03</pdfrwt>
<totfact> 0.75666298E+03</totfact>
</mgrwt>
</event>
<event>
 5    1  0.3331626E-002  0.1250003E+03  0.7818608E-02  0.1235069E+00
          4   -1    0    0  501    0  0.00000000000E+00  0.00000000000E+00  0.11925508878E+04  0.11925515641E+04  0.12700000000E+01 0.  1.
         -4   -1    0    0    0  501 -0.00000000000E+00 -0.00000000000E+00 -0.31517521859E+01  0.33980055682E+01  0.12700000000E+01 0.  1.
         25    2    1    2    0    0  0.00000000000E+00  0.00000000000E+00  0.11893991356E+04  0.11959495696E+04  0.12500027698E+03 0.  0.
    9000005    1    3    3    0    0  0.55000892794E+02  0.20493419607E+02  0.38945581818E+03  0.39385519264E+03  0.10000000000E+01 0.  0.
    9000005    1    3    3    0    0 -0.55000892794E+02 -0.20493419607E+02  0.79994331747E+03  0.80209437700E+03  0.10000000000E+01 0.  0.
<mgrwt>
<rscale>  0 0.12500028E+03</rscale>
<asrwt>0</asrwt>
<pdfrwt beam="1">  1        4 0.18348851E+00 0.12500028E+03</pdfrwt>
<pdfrwt beam="2">  1       -4 0.50387914E-03 0.12500028E+03</pdfrwt>
<totfact> 0.24818838E+03</totfact>
</mgrwt>
</event>
<event>
 5    1  0.3331626E-002  0.1250005E+03  0.7818608E-02  0.1235068E+00
          4   -1    0    0  501    0  0.00000000000E+00  0.00000000000E+00  0.47763519056E+03  0.47763687898E+03  0.12700000000E+01 0. -1.
         -4   -1    0    0    0  501 -0.00000000000E+00 -0.00000000000E+00 -0.81273615938E+01  0.82259896959E+01  0.12700000000E+01 0. -1.
         25    2    1    2    0    0  0.00000000000E+00  0.00000000000E+00  0.46950782897E+03  0.48586286867E+03  0.12500050279E+03 0.  0.
    9000005    1    3    3    0    0  0.55840566418E+02 -0.26419520881E+02  0.27144775355E+03  0.27839009115E+03  0.10000000000E+01 0.  0.
    9000005    1    3    3    0    0 -0.55840566418E+02  0.26419520881E+02  0.19806007541E+03  0.20747277752E+03  0.10000000000E+01 0.  0.
<mgrwt>
<rscale>  0 0.12500050E+03</rscale>
<asrwt>0</asrwt>
<pdfrwt beam="1">  1        4 0.73490064E-01 0.12500050E+03</pdfrwt>
<pdfrwt beam="2">  1       -4 0.12580798E-02 0.12500050E+03</pdfrwt>
<totfact> 0.56977526E+03</totfact>
</mgrwt>
</event>
<event>
 4    1  0.3331626E-002  0.1249203E+03  0.7818608E-02  0.1235194E+00
          4   -1    0    0  501    0  0.00000000000E+00  0.00000000000E+00  0.48018689287E+02  0.48035480854E+02  0.12700000000E+01 0.  1.
         -4   -1    0    0    0  501 -0.00000000000E+00 -0.00000000000E+00 -0.81208813702E+02  0.81218743667E+02  0.12700000000E+01 0.  1.
    9000005    1    1    2    0    0 -0.20298027395E+00  0.59686940522E+02 -0.35609106738E+02  0.69509571661E+02  0.10000000000E+01 0.  0.
    9000005    1    1    2    0    0  0.20298027395E+00 -0.59686940522E+02  0.24189823234E+01  0.59744652860E+02  0.10000000000E+01 0.  0.
<mgrwt>
<rscale>  0 0.12492026E+03</rscale>
<asrwt>0</asrwt>
<pdfrwt beam="1">  1        4 0.73895461E-02 0.12492026E+03</pdfrwt>
<pdfrwt beam="2">  1       -4 0.12495719E-01 0.12492026E+03</pdfrwt>
<totfact> 0.10379160E+04</totfact>
</mgrwt>
</event>
<event>
 5    1  0.3331626E-002  0.1250008E+03  0.7818608E-02  0.1235068E+00
          4   -1    0    0  501    0  0.00000000000E+00  0.00000000000E+00  0.14850452936E+02  0.14904658749E+02  0.12700000000E+01 0. -1.
         -4   -1    0    0    0  501 -0.00000000000E+00 -0.00000000000E+00 -0.26250769387E+03  0.26251076595E+03  0.12700000000E+01 0. -1.
         25    2    1    2    0    0  0.00000000000E+00  0.00000000000E+00 -0.24765724094E+03  0.27741542470E+03  0.12500083550E+03 0.  0.
    9000005    1    3    3    0    0  0.42938619812E+02 -0.44488570849E+02 -0.10368979092E+03  0.12072916279E+03  0.10000000000E+01 0.  0.
    9000005    1    3    3    0    0 -0.42938619812E+02  0.44488570849E+02 -0.14396745001E+03  0.15668626191E+03  0.10000000000E+01 0.  0.
<mgrwt>
<rscale>  0 0.12500084E+03</rscale>
<asrwt>0</asrwt>
<pdfrwt beam="1">  1        4 0.22890913E-02 0.12500084E+03</pdfrwt>
<pdfrwt beam="2">  1       -4 0.40390202E-01 0.12500084E+03</pdfrwt>
<totfact> 0.78520597E+03</totfact>
</mgrwt>
</event>
<event>
 5    1  0.3331626E-002  0.1249923E+03  0.7818608E-02  0.1235081E+00
         -4   -1    0    0    0  501 -0.00000000000E+00  0.00000000000E+00  0.11615244033E+04  0.11615250976E+04  0.12700000000E+01 0.  1.
          4   -1    0    0  501    0  0.00000000000E+00 -0.00000000000E+00 -0.32419869085E+01  0.34818643159E+01  0.12700000000E+01 0.  1.
         25    2    1    2    0    0  0.00000000000E+00  0.00000000000E+00  0.11582824164E+04  0.11650069619E+04  0.12499226055E+03 0.  0.
    9000005    1    3    3    0    0  0.27839480434E+02 -0.53418112022E+02  0.73405307956E+03  0.73652118433E+03  0.10000000000E+01 0.  0.
    9000005    1    3    3    0    0 -0.27839480434E+02  0.53418112022E+02  0.42422933681E+03  0.42848577756E+03  0.10000000000E+01 0.  0.
<mgrwt>
<rscale>  0 0.12499226E+03</rscale>
<asrwt>0</asrwt>
<pdfrwt beam="2">  1        4 0.51727222E-03 0.12499226E+03</pdfrwt>
<pdfrwt beam="1">  1       -4 0.17871474E+00 0.12499226E+03</pdfrwt>
<totfact> 0.25651795E+03</totfact>
</mgrwt>
</event>
<event>
 5    1  0.3331626E-002  0.1250008E+03  0.7818608E-02  0.1235068E+00
         -4   -1    0    0    0  501 -0.00000000000E+00  0.00000000000E+00  0.13106585892E+03  0.13107201179E+03  0.12700000000E+01 0. -1.
          4   -1    0    0  501    0  0.00000000000E+00 -0.00000000000E+00 -0.29783699984E+02  0.29810764578E+02  0.12700000000E+01 0. -1.
         25    2    1    2    0    0  0.00000000000E+00  0.00000000000E+00  0.10128215893E+03  0.16088277637E+03  0.12500076805E+03 0.  0.
    9000005    1    3    3    0    0 -0.32732397455E+02  0.27984849640E+02 -0.76432474717E+01  0.43749067241E+02  0.10000000000E+01 0.  0.
    9000005    1    3    3    0    0  0.32732397455E+02 -0.27984849640E+02  0.10892540641E+03  0.11713370912E+03  0.10000000000E+01 0.  0.
<mgrwt>
<rscale>  0 0.12500077E+03</rscale>
<asrwt>0</asrwt>
<pdfrwt beam="2">  1        4 0.45846630E-02 0.12500077E+03</pdfrwt>
<pdfrwt beam="1">  1       -4 0.20166533E-01 0.12500077E+03</pdfrwt>
<totfact> 0.97171185E+03</totfact>
</mgrwt>
</event>
<event>
 5    1  0.3331626E-002  0.1250024E+03  0.7818608E-02  0.1235065E+00
          4   -1    0    0  501    0  0.00000000000E+00  0.00000000000E+00  0.26685528231E+02  0.26715731638E+02  0.12700000000E+01 0.  1.
         -4   -1    0    0    0  501 -0.00000000000E+00 -0.00000000000E+00 -0.14627075905E+03  0.14627627235E+03  0.12700000000E+01 0.  1.
         25    2    1    2    0    0  0.00000000000E+00  0.00000000000E+00 -0.11958523082E+03  0.17299200399E+03  0.12500242404E+03 0.  0.
    9000005    1    3    3    0    0  0.34305626058E+02  0.40430808230E+02 -0.14021499906E+02  0.54855525638E+02  0.10000000000E+01 0.  0.
    9000005    1    3    3    0    0 -0.34305626058E+02 -0.40430808230E+02 -0.10556373092E+03  0.11813647836E+03  0.10000000000E+01 0.  0.
<mgrwt>
<rscale>  0 0.12500242E+03</rscale>
<asrwt>0</asrwt>
<pdfrwt beam="1">  1        4 0.41082134E-02 0.12500242E+03</pdfrwt>
<pdfrwt beam="2">  1       -4 0.22505941E-01 0.12500242E+03</pdfrwt>
<totfact> 0.94888731E+03</totfact>
</mgrwt>
</event>
<event>
 5    1  0.3331626E-002  0.1250121E+03  0.7818608E-02  0.1235050E+00
         -4   -1    0    0    0  501 -0.00000000000E+00  0.00000000000E+00  0.25791207502E+02  0.25822456979E+02  0.12700000000E+01 0. -1.
          4   -1    0    0  501    0  0.00000000000E+00 -0.00000000000E+00 -0.15136034376E+03  0.15136567168E+03  0.12700000000E+01 0. -1.
         25    2    1    2    0    0  0.00000000000E+00  0.00000000000E+00 -0.12556913626E+03  0.17718812866E+03  0.12501209924E+03 0.  0.
    9000005    1    3    3    0    0  0.44905071352E+02 -0.34380034822E+02 -0.25082743213E+02  0.61875651387E+02  0.10000000000E+01 0.  0.
    9000005    1    3    3    0    0 -0.44905071352E+02  0.34380034822E+02 -0.10048639305E+03  0.11531247727E+03  0.10000000000E+01 0.  0.
<mgrwt>
<rscale>  0 0.12501210E+03</rscale>
<asrwt>0</asrwt>
<pdfrwt beam="2">  1        4 0.23289020E-01 0.12501210E+03</pdfrwt>
<pdfrwt beam="1">  1       -4 0.39706918E-02 0.12501210E+03</pdfrwt>
<totfact> 0.94100074E+03</totfact>
</mgrwt>
</event>
<event>
 5    1  0.3331626E-002  0.1249992E+03  0.7818608E-02  0.1235070E+00
         -4   -1    0    0    0  501 -0.00000000000E+00  0.00000000000E+00  0.40314053163E+02  0.40334052393E+02  0.12700000000E+01 0.  1.
          4   -1    0    0  501    0  0.00000000000E+00 -0.00000000000E+00 -0.96846112258E+02  0.96854439029E+02  0.12700000000E+01 0.  1.
         25    2    1    2    0    0  0.00000000000E+00  0.00000000000E+00 -0.56532059095E+02  0.13718849142E+03  0.12499923389E+03 0.  0.
    9000005    1    3    3    0    0  0.10313966502E+02  0.60619469663E+02 -0.16039494045E+02  0.63555986157E+02  0.10000000000E+01 0.  0.
    9000005    1    3    3    0    0 -0.10313966502E+02 -0.60619469663E+02 -0.40492565050E+02  0.73632505264E+02  0.10000000000E+01 0.  0.
<mgrwt>
<rscale>  0 0.12499923E+03</rscale>
<asrwt>0</asrwt>
<pdfrwt beam="2">  1        4 0.14901581E-01 0.12499923E+03</pdfrwt>
<pdfrwt beam="1">  1       -4 0.62043410E-02 0.12499923E+03</pdfrwt>
<totfact> 0.10192322E+04</totfact>
</mgrwt>
</event>
<event>
 5    1  0.3331626E-002  0.1250018E+03  0.7818608E-02  0.1235066E+00
         -4   -1    0    0    0  501 -0.00000000000E+00  0.00000000000E+00  0.46078128919E+01  0.47796275636E+01  0.12700000000E+01 0. -1.
          4   -1    0    0  501    0  0.00000000000E+00 -0.00000000000E+00 -0.83208040887E+03  0.83208137807E+03  0.12700000000E+01 0. -1.
         25    2    1    2    0    0  0.00000000000E+00  0.00000000000E+00 -0.82747259598E+03  0.83686100563E+03  0.12500178259E+03 0.  0.
    9000005    1    3    3    0    0 -0.59704312483E+02 -0.16904341362E+02 -0.46338608505E+03  0.46752328873E+03  0.10000000000E+01 0.  0.
    9000005    1    3    3    0    0  0.59704312483E+02  0.16904341362E+02 -0.36408651093E+03  0.36933771690E+03  0.10000000000E+01 0.  0.
<mgrwt>
<rscale>  0 0.12500178E+03</rscale>
<asrwt>0</asrwt>
<pdfrwt beam="2">  1        4 0.12802554E+00 0.12500178E+03</pdfrwt>
<pdfrwt beam="1">  1       -4 0.72218602E-03 0.12500178E+03</pdfrwt>
<totfact> 0.36669702E+03</totfact>
</mgrwt>
</event>
<event>
 5    1  0.3331626E-002  0.1249975E+03  0.7818608E-02  0.1235073E+00
          4   -1    0    0  501    0  0.00000000000E+00  0.00000000000E+00  0.35650200718E+02  0.35672814736E+02  0.12700000000E+01 0.  1.
         -4   -1    0    0    0  501 -0.00000000000E+00 -0.00000000000E+00 -0.10950614759E+03  0.10951351177E+03  0.12700000000E+01 0.  1.
         25    2    1    2    0    0  0.00000000000E+00  0.00000000000E+00 -0.73855946874E+02  0.14518632651E+03  0.12499747404E+03 0.  0.
    9000005    1    3    3    0    0 -0.39577935550E+02  0.12826956678E+02 -0.91086777427E+02  0.10014362098E+03  0.10000000000E+01 0.  0.
    9000005    1    3    3    0    0  0.39577935550E+02 -0.12826956678E+02  0.17230830553E+02  0.45042705531E+02  0.10000000000E+01 0.  0.
<mgrwt>
<rscale>  0 0.12499747E+03</rscale>
<asrwt>0</asrwt>
<pdfrwt beam="1">  1        4 0.54869523E-02 0.12499747E+03</pdfrwt>
<pdfrwt beam="2">  1       -4 0.16849406E-01 0.12499747E+03</pdfrwt>
<totfact> 0.10027774E+04</totfact>
</mgrwt>
</event>
<event>
 5    1  0.3331626E-002  0.1250007E+03  0.7818608E-02  0.1235068E+00
          4   -1    0    0  501    0  0.00000000000E+00  0.00000000000E+00  0.14588962283E+03  0.14589515053E+03  0.12700000000E+01 0. -1.
         -4   -1    0    0    0  501 -0.00000000000E+00 -0.00000000000E+00 -0.26754572000E+02  0.26784697551E+02  0.12700000000E+01 0. -1.
         25    2    1    2    0    0  0.00000000000E+00  0.00000000000E+00  0.11913505083E+03  0.17267984808E+03  0.12500067839E+03 0.  0.
    9000005    1    3    3    0    0 -0.52343719756E+02  0.34070143780E+02  0.62547290459E+02  0.88395719573E+02  0.10000000000E+01 0.  0.
    9000005    1    3    3    0    0  0.52343719756E+02 -0.34070143780E+02  0.56587760370E+02  0.84284128510E+02  0.10000000000E+01 0.  0.
<mgrwt>
<rscale>  0 0.12500068E+03</rscale>
<asrwt>0</asrwt>
<pdfrwt beam="1">  1        4 0.22447301E-01 0.12500068E+03</pdfrwt>
<pdfrwt beam="2">  1       -4 0.41188305E-02 0.12500068E+03</pdfrwt>
<totfact> 0.94950051E+03</totfact>
</mgrwt>
</event>
<event>
 5    1  0.3331626E-002  0.1249721E+03  0.7818608E-02  0.1235113E+00
          4   -1    0    0  501    0  0.00000000000E+00  0.00000000000E+00  0.98182512693E+01  0.99000483831E+01  0.12700000000E+01 0. -1.
         -4   -1    0    0    0  501 -0.00000000000E+00 -0.00000000000E+00 -0.39594591303E+03  0.39594794979E+03  0.12700000000E+01 0. -1.
         25    2    1    2    0    0  0.00000000000E+00  0.00000000000E+00 -0.38612766176E+03  0.40584799818E+03  0.12497210267E+03 0.  0.
    9000005    1    3    3    0    0 -0.49775152872E+02  0.84083463915E+01 -0.31261629000E+03  0.31666735055E+03  0.10000000000E+01 0.  0.
    9000005    1    3    3    0    0  0.49775152872E+02 -0.84083463915E+01 -0.73511371760E+02  0.89180647623E+02  0.10000000000E+01 0.  0.
<mgrwt>
<rscale>  0 0.12497210E+03</rscale>
<asrwt>0</asrwt>
<pdfrwt beam="1">  1        4 0.15169493E-02 0.12497210E+03</pdfrwt>
<pdfrwt beam="2">  1       -4 0.60921192E-01 0.12497210E+03</pdfrwt>
<totfact> 0.64027387E+03</totfact>
</mgrwt>
</event>
<event>
 5    1  0.3331626E-002  0.1250001E+03  0.7818608E-02  0.1235069E+00
         -4   -1    0    0    0  501 -0.00000000000E+00  0.00000000000E+00  0.86962411938E+02  0.86971684990E+02  0.12700000000E+01 0.  1.
          4   -1    0    0  501    0  0.00000000000E+00 -0.00000000000E+00 -0.44898280267E+02  0.44916238388E+02  0.12700000000E+01 0.  1.
         25    2    1    2    0    0  0.00000000000E+00  0.00000000000E+00  0.42064131671E+02  0.13188792338E+03  0.12500013264E+03 0.  0.
    9000005    1    3    3    0    0 -0.90769163187E+01 -0.53842560855E+02  0.53101734292E+02  0.76172212480E+02  0.10000000000E+01 0.  0.
    9000005    1    3    3    0    0  0.90769163187E+01  0.53842560855E+02 -0.11037602621E+02  0.55715710898E+02  0.10000000000E+01 0.  0.
<mgrwt>
<rscale>  0 0.12500013E+03</rscale>
<asrwt>0</asrwt>
<pdfrwt beam="2">  1        4 0.69095225E-02 0.12500013E+03</pdfrwt>
<pdfrwt beam="1">  1       -4 0.13380927E-01 0.12500013E+03</pdfrwt>
<totfact> 0.10304060E+04</totfact>
</mgrwt>
</event>
<event>
 5    1  0.3331626E-002  0.1250264E+03  0.7818608E-02  0.1235028E+00
         -4   -1    0    0    0  501 -0.00000000000E+00  0.00000000000E+00  0.66313681787E+02  0.66325841813E+02  0.12700000000E+01 0.  1.
          4   -1    0    0  501    0  0.00000000000E+00 -0.00000000000E+00 -0.58906120319E+02  0.58919809156E+02  0.12700000000E+01 0.  1.
         25    2    1    2    0    0  0.00000000000E+00  0.00000000000E+00  0.74075614682E+01  0.12524565097E+03  0.12502640169E+03 0.  0.
    9000005    1    3    3    0    0 -0.18718207334E+02  0.33874577750E+02 -0.45464283002E+02  0.59714816691E+02  0.10000000000E+01 0.  0.
    9000005    1    3    3    0    0  0.18718207334E+02 -0.33874577750E+02  0.52871844470E+02  0.65530834278E+02  0.10000000000E+01 0.  0.
<mgrwt>
<rscale>  0 0.12502640E+03</rscale>
<asrwt>0</asrwt>
<pdfrwt beam="2">  1        4 0.90644685E-02 0.12502640E+03</pdfrwt>
<pdfrwt beam="1">  1       -4 0.10204093E-01 0.12502640E+03</pdfrwt>
<totfact> 0.10441298E+04</totfact>
</mgrwt>
</event>
<event>
 5    1  0.3331626E-002  0.1249993E+03  0.7818608E-02  0.1235070E+00
         -4   -1    0    0    0  501 -0.00000000000E+00  0.00000000000E+00  0.45349568121E+01  0.47094302509E+01  0.12700000000E+01 0.  1.
          4   -1    0    0  501    0  0.00000000000E+00 -0.00000000000E+00 -0.84492265190E+03  0.84492360637E+03  0.12700000000E+01 0.  1.
         25    2    1    2    0    0  0.00000000000E+00  0.00000000000E+00 -0.84038769509E+03  0.84963303662E+03  0.12499927542E+03 0.  0.
    9000005    1    3    3    0    0  0.53030930204E+02 -0.30758278603E+02 -0.33782443351E+03  0.34334341284E+03  0.10000000000E+01 0.  0.
    9000005    1    3    3    0    0 -0.53030930204E+02  0.30758278603E+02 -0.50256326158E+03  0.50628962378E+03  0.10000000000E+01 0.  0.
<mgrwt>
<rscale>  0 0.12499928E+03</rscale>
<asrwt>0</asrwt>
<pdfrwt beam="2">  1        4 0.13000147E+00 0.12499928E+03</pdfrwt>
<pdfrwt beam="1">  1       -4 0.71118079E-03 0.12499928E+03</pdfrwt>
<totfact> 0.36142947E+03</totfact>
</mgrwt>
</event>
<event>
 5    1  0.3331626E-002  0.1250024E+03  0.7818608E-02  0.1235065E+00
         -4   -1    0    0    0  501 -0.00000000000E+00  0.00000000000E+00  0.42984016241E+02  0.43002773773E+02  0.12700000000E+01 0.  1.
          4   -1    0    0  501    0  0.00000000000E+00 -0.00000000000E+00 -0.90837303907E+02  0.90846181434E+02  0.12700000000E+01 0.  1.
         25    2    1    2    0    0  0.00000000000E+00  0.00000000000E+00 -0.47853287666E+02  0.13384895521E+03  0.12500242266E+03 0.  0.
    9000005    1    3    3    0    0  0.40143486825E+02  0.45589001665E+02 -0.39647107119E+02  0.72544811739E+02  0.10000000000E+01 0.  0.
    9000005    1    3    3    0    0 -0.40143486825E+02 -0.45589001665E+02 -0.82061805475E+01  0.61304143469E+02  0.10000000000E+01 0.  0.
<mgrwt>
<rscale>  0 0.12500242E+03</rscale>
<asrwt>0</asrwt>
<pdfrwt beam="2">  1        4 0.13977095E-01 0.12500242E+03</pdfrwt>
<pdfrwt beam="1">  1       -4 0.66150514E-02 0.12500242E+03</pdfrwt>
<totfact> 0.10261829E+04</totfact>
</mgrwt>
</event>
<event>
 5    1  0.3331626E-002  0.1250012E+03  0.7818608E-02  0.1235067E+00
          4   -1    0    0  501    0  0.00000000000E+00  0.00000000000E+00  0.83898070739E+01  0.84853852439E+01  0.12700000000E+01 0. -1.
         -4   -1    0    0    0  501 -0.00000000000E+00 -0.00000000000E+00 -0.46286979203E+03  0.46287153431E+03  0.12700000000E+01 0. -1.
         25    2    1    2    0    0  0.00000000000E+00  0.00000000000E+00 -0.45447998496E+03  0.47135691955E+03  0.12500115553E+03 0.  0.
    9000005    1    3    3    0    0  0.53689975603E+02 -0.10704776418E+02 -0.11360642452E+03  0.12611354174E+03  0.10000000000E+01 0.  0.
    9000005    1    3    3    0    0 -0.53689975603E+02  0.10704776418E+02 -0.34087356044E+03  0.34524337781E+03  0.10000000000E+01 0.  0.
<mgrwt>
<rscale>  0 0.12500116E+03</rscale>
<asrwt>0</asrwt>
<pdfrwt beam="1">  1        4 0.12982261E-02 0.12500116E+03</pdfrwt>
<pdfrwt beam="2">  1       -4 0.71218204E-01 0.12500116E+03</pdfrwt>
<totfact> 0.58155814E+03</totfact>
</mgrwt>
</event>
<event>
 5    1  0.3331626E-002  0.1250021E+03  0.7818608E-02  0.1235066E+00
          4   -1    0    0  501    0  0.00000000000E+00  0.00000000000E+00  0.40502985064E+02  0.40522891051E+02  0.12700000000E+01 0.  1.
         -4   -1    0    0    0  501 -0.00000000000E+00 -0.00000000000E+00 -0.96398924980E+02  0.96407290374E+02  0.12700000000E+01 0.  1.
         25    2    1    2    0    0  0.00000000000E+00  0.00000000000E+00 -0.55895939916E+02  0.13693018142E+03  0.12500207393E+03 0.  0.
    9000005    1    3    3    0    0  0.41472958798E+02 -0.44496485373E+02 -0.12247221873E+02  0.62055926112E+02  0.10000000000E+01 0.  0.
    9000005    1    3    3    0    0 -0.41472958798E+02  0.44496485373E+02 -0.43648718042E+02  0.74874255313E+02  0.10000000000E+01 0.  0.
<mgrwt>
<rscale>  0 0.12500207E+03</rscale>
<asrwt>0</asrwt>
<pdfrwt beam="1">  1        4 0.62334032E-02 0.12500207E+03</pdfrwt>
<pdfrwt beam="2">  1       -4 0.14832779E-01 0.12500207E+03</pdfrwt>
<totfact> 0.10197069E+04</totfact>
</mgrwt>
</event>
<event>
 5    1  0.3331626E-002  0.1249981E+03  0.7818608E-02  0.1235072E+00
         -4   -1    0    0    0  501 -0.00000000000E+00  0.00000000000E+00  0.30561698724E+01  0.33095429124E+01  0.12700000000E+01 0.  1.
          4   -1    0    0  501    0  0.00000000000E+00 -0.00000000000E+00 -0.12269871964E+04  0.12269878536E+04  0.12700000000E+01 0.  1.
         25    2    1    2    0    0  0.00000000000E+00  0.00000000000E+00 -0.12239310265E+04  0.12302973966E+04  0.12499810525E+03 0.  0.
    9000005    1    3    3    0    0  0.52837270508E+02 -0.28638253941E+02 -0.44342968515E+03  0.44748498569E+03  0.10000000000E+01 0.  0.
    9000005    1    3    3    0    0 -0.52837270508E+02  0.28638253941E+02 -0.78050134136E+03  0.78281241087E+03  0.10000000000E+01 0.  0.
<mgrwt>
<rscale>  0 0.12499811E+03</rscale>
<asrwt>0</asrwt>
<pdfrwt beam="2">  1        4 0.18878642E+00 0.12499811E+03</pdfrwt>
<pdfrwt beam="1">  1       -4 0.48972175E-03 0.12499811E+03</pdfrwt>
<totfact> 0.23934264E+03</totfact>
</mgrwt>
</event>
<event>
 5    1  0.3331626E-002  0.1249943E+03  0.7818608E-02  0.1235078E+00
         -4   -1    0    0    0  501 -0.00000000000E+00  0.00000000000E+00  0.35992809976E+02  0.36015208870E+02  0.12700000000E+01 0. -1.
          4   -1    0    0  501    0  0.00000000000E+00 -0.00000000000E+00 -0.10845885074E+03  0.10846628602E+03  0.12700000000E+01 0. -1.
         25    2    1    2    0    0  0.00000000000E+00  0.00000000000E+00 -0.72466040762E+02  0.14448149489E+03  0.12499430108E+03 0.  0.
    9000005    1    3    3    0    0  0.25133273943E+02 -0.10475974845E+02 -0.10124653153E+03  0.10484888008E+03  0.10000000000E+01 0.  0.
    9000005    1    3    3    0    0 -0.25133273943E+02  0.10475974845E+02  0.28780490765E+02  0.39632614810E+02  0.10000000000E+01 0.  0.
<mgrwt>
<rscale>  0 0.12499430E+03</rscale>
<asrwt>0</asrwt>
<pdfrwt beam="2">  1        4 0.16688272E-01 0.12499430E+03</pdfrwt>
<pdfrwt beam="1">  1       -4 0.55396504E-02 0.12499430E+03</pdfrwt>
<totfact> 0.10042823E+04</totfact>
</mgrwt>
</event>
<event>
 5    1  0.3331626E-002  0.1249991E+03  0.7818608E-02  0.1235071E+00
          4   -1    0    0  501    0  0.00000000000E+00  0.00000000000E+00  0.57744164216E+02  0.57758128441E+02  0.12700000000E+01 0.  1.
         -4   -1    0    0    0  501 -0.00000000000E+00 -0.00000000000E+00 -0.67618419505E+02  0.67630344937E+02  0.12700000000E+01 0.  1.
         25    2    1    2    0    0  0.00000000000E+00  0.00000000000E+00 -0.98742552883E+01  0.12538847338E+03  0.12499907335E+03 0.  0.
    9000005    1    3    3    0    0  0.45828409190E+01 -0.60811816511E+02  0.87476813530E+01  0.61616567475E+02  0.10000000000E+01 0.  0.
    9000005    1    3    3    0    0 -0.45828409190E+01  0.60811816511E+02 -0.18621936641E+02  0.63771905904E+02  0.10000000000E+01 0.  0.
<mgrwt>
<rscale>  0 0.12499907E+03</rscale>
<asrwt>0</asrwt>
<pdfrwt beam="1">  1        4 0.88857091E-02 0.12499907E+03</pdfrwt>
<pdfrwt beam="2">  1       -4 0.10404825E-01 0.12499907E+03</pdfrwt>
<totfact> 0.10444641E+04</totfact>
</mgrwt>
</event>
<event>
 5    1  0.3331626E-002  0.1249990E+03  0.7818608E-02  0.1235071E+00
         -4   -1    0    0    0  501 -0.00000000000E+00  0.00000000000E+00  0.60494600240E+02  0.60507929713E+02  0.12700000000E+01 0.  1.
          4   -1    0    0  501    0  0.00000000000E+00 -0.00000000000E+00 -0.64544130389E+02  0.64556623732E+02  0.12700000000E+01 0.  1.
         25    2    1    2    0    0  0.00000000000E+00  0.00000000000E+00 -0.40495301486E+01  0.12506455345E+03  0.12499897533E+03 0.  0.
    9000005    1    3    3    0    0 -0.42963818381E+02  0.32225048518E+02 -0.33992153538E+02  0.63567365401E+02  0.10000000000E+01 0.  0.
    9000005    1    3    3    0    0  0.42963818381E+02 -0.32225048518E+02  0.29942623389E+02  0.61497188044E+02  0.10000000000E+01 0.  0.
<mgrwt>
<rscale>  0 0.12499898E+03</rscale>
<asrwt>0</asrwt>
<pdfrwt beam="2">  1        4 0.99318526E-02 0.12499898E+03</pdfrwt>
<pdfrwt beam="1">  1       -4 0.93088480E-02 0.12499898E+03</pdfrwt>
<totfact> 0.10451703E+04</totfact>
</mgrwt>
</event>
<event>
 5    1  0.3331626E-002  0.1250163E+03  0.7818608E-02  0.1235044E+00
          4   -1    0    0  501    0  0.00000000000E+00  0.00000000000E+00  0.82413848921E+01  0.83386644578E+01  0.12700000000E+01 0.  1.
         -4   -1    0    0    0  501 -0.00000000000E+00 -0.00000000000E+00 -0.47122335928E+03  0.47122507068E+03  0.12700000000E+01 0.  1.
         25    2    1    2    0    0  0.00000000000E+00  0.00000000000E+00 -0.46298197439E+03  0.47956373513E+03  0.12501626872E+03 0.  0.
    9000005    1    3    3    0    0  0.44966268653E+02  0.11513401412E+02 -0.70939248460E+02  0.84781487960E+02  0.10000000000E+01 0.  0.
    9000005    1    3    3    0    0 -0.44966268653E+02 -0.11513401412E+02 -0.39204272593E+03  0.39478224717E+03  0.10000000000E+01 0.  0.
<mgrwt>
<rscale>  0 0.12501627E+03</rscale>
<asrwt>0</asrwt>
<pdfrwt beam="1">  1        4 0.12755204E-02 0.12501627E+03</pdfrwt>
<pdfrwt beam="2">  1       -4 0.72503495E-01 0.12501627E+03</pdfrwt>
<totfact> 0.57465016E+03</totfact>
</mgrwt>
</event>
<event>
 5    1  0.3331626E-002  0.1250027E+03  0.7818608E-02  0.1235065E+00
         -4   -1    0    0    0  501 -0.00000000000E+00  0.00000000000E+00  0.50338286359E+03  0.50338446564E+03  0.12700000000E+01 0.  1.
          4   -1    0    0  501    0  0.00000000000E+00 -0.00000000000E+00 -0.77067506846E+01  0.78106917821E+01  0.12700000000E+01 0.  1.
         25    2    1    2    0    0  0.00000000000E+00  0.00000000000E+00  0.49567611290E+03  0.51119515743E+03  0.12500272027E+03 0.  0.
    9000005    1    3    3    0    0  0.20971948403E+02 -0.28674133832E+02  0.45809386732E+03  0.45947036884E+03  0.10000000000E+01 0.  0.
    9000005    1    3    3    0    0 -0.20971948403E+02  0.28674133832E+02  0.37582245582E+02  0.51724788581E+02  0.10000000000E+01 0.  0.
<mgrwt>
<rscale>  0 0.12500272E+03</rscale>
<asrwt>0</asrwt>
<pdfrwt beam="2">  1        4 0.11937729E-02 0.12500272E+03</pdfrwt>
<pdfrwt beam="1">  1       -4 0.77451620E-01 0.12500272E+03</pdfrwt>
<totfact> 0.55002821E+03</totfact>
</mgrwt>
</event>
<event>
 5    1  0.3331626E-002  0.1250019E+03  0.7818608E-02  0.1235066E+00
         -4   -1    0    0    0  501 -0.00000000000E+00  0.00000000000E+00  0.57626035249E+01  0.59008897113E+01  0.12700000000E+01 0.  1.
          4   -1    0    0  501    0  0.00000000000E+00 -0.00000000000E+00 -0.66970682525E+03  0.66970802943E+03  0.12700000000E+01 0.  1.
         25    2    1    2    0    0  0.00000000000E+00  0.00000000000E+00 -0.66394422172E+03  0.67560891914E+03  0.12500192824E+03 0.  0.
    9000005    1    3    3    0    0  0.19730789771E+02  0.39251349480E+02 -0.57219034410E+03  0.57387521500E+03  0.10000000000E+01 0.  0.
    9000005    1    3    3    0    0 -0.19730789771E+02 -0.39251349480E+02 -0.91753877617E+02  0.10173370414E+03  0.10000000000E+01 0.  0.
<mgrwt>
<rscale>  0 0.12500193E+03</rscale>
<asrwt>0</asrwt>
<pdfrwt beam="2">  1        4 0.10304249E+00 0.12500193E+03</pdfrwt>
<pdfrwt beam="1">  1       -4 0.89728495E-03 0.12500193E+03</pdfrwt>
<totfact> 0.44404070E+03</totfact>
</mgrwt>
</event>
<event>
 5    1  0.3331626E-002  0.1249939E+03  0.7818608E-02  0.1235079E+00
         -4   -1    0    0    0  501 -0.00000000000E+00  0.00000000000E+00  0.14560765771E+03  0.14561319612E+03  0.12700000000E+01 0.  1.
          4   -1    0    0  501    0  0.00000000000E+00 -0.00000000000E+00 -0.26803527642E+02  0.26833598231E+02  0.12700000000E+01 0.  1.
         25    2    1    2    0    0  0.00000000000E+00  0.00000000000E+00  0.11880413007E+03  0.17244679435E+03  0.12499390209E+03 0.  0.
    9000005    1    3    3    0    0  0.99666749522E+01 -0.53507263913E+02  0.17046684391E+02  0.57043416358E+02  0.10000000000E+01 0.  0.
    9000005    1    3    3    0    0 -0.99666749522E+01  0.53507263913E+02  0.10175744567E+03  0.11540337799E+03  0.10000000000E+01 0.  0.
<mgrwt>
<rscale>  0 0.12499390E+03</rscale>
<asrwt>0</asrwt>
<pdfrwt beam="2">  1        4 0.41263589E-02 0.12499390E+03</pdfrwt>
<pdfrwt beam="1">  1       -4 0.22403917E-01 0.12499390E+03</pdfrwt>
<totfact> 0.95007545E+03</totfact>
</mgrwt>
</event>
<event>
 5    1  0.3331626E-002  0.1250141E+03  0.7818608E-02  0.1235047E+00
          4   -1    0    0  501    0  0.00000000000E+00  0.00000000000E+00  0.92704401457E+02  0.92713100205E+02  0.12700000000E+01 0. -1.
         -4   -1    0    0    0  501 -0.00000000000E+00 -0.00000000000E+00 -0.42125864450E+02  0.42145003923E+02  0.12700000000E+01 0. -1.
         25    2    1    2    0    0  0.00000000000E+00  0.00000000000E+00  0.50578537007E+02  0.13485810413E+03  0.12501407858E+03 0.  0.
    9000005    1    3    3    0    0  0.21221411952E+02  0.52408599235E+02  0.54015463467E+02  0.78202812561E+02  0.10000000000E+01 0.  0.
    9000005    1    3    3    0    0 -0.21221411952E+02 -0.52408599235E+02 -0.34369264594E+01  0.56655291566E+02  0.10000000000E+01 0.  0.
<mgrwt>
<rscale>  0 0.12501408E+03</rscale>
<asrwt>0</asrwt>
<pdfrwt beam="1">  1        4 0.14264357E-01 0.12501408E+03</pdfrwt>
<pdfrwt beam="2">  1       -4 0.64830438E-02 0.12501408E+03</pdfrwt>
<totfact> 0.10237812E+04</totfact>
</mgrwt>
</event>
<event>
 5    1  0.3331626E-002  0.1249966E+03  0.7818608E-02  0.1235075E+00
         -4   -1    0    0    0  501 -0.00000000000E+00  0.00000000000E+00  0.25626768253E+03  0.25627082941E+03  0.12700000000E+01 0. -1.
          4   -1    0    0  501    0  0.00000000000E+00 -0.00000000000E+00 -0.15212330131E+02  0.15265250997E+02  0.12700000000E+01 0. -1.
         25    2    1    2    0    0  0.00000000000E+00  0.00000000000E+00  0.24105535239E+03  0.27153608041E+03  0.12499664014E+03 0.  0.
    9000005    1    3    3    0    0 -0.14409792472E+02 -0.42295183736E+01 -0.11244629142E+02  0.18787565816E+02  0.10000000000E+01 0.  0.
    9000005    1    3    3    0    0  0.14409792472E+02  0.42295183736E+01  0.25229998154E+03  0.25274851459E+03  0.10000000000E+01 0.  0.
<mgrwt>
<rscale>  0 0.12499664E+03</rscale>
<asrwt>0</asrwt>
<pdfrwt beam="2">  1        4 0.23446715E-02 0.12499664E+03</pdfrwt>
<pdfrwt beam="1">  1       -4 0.39430108E-01 0.12499664E+03</pdfrwt>
<totfact> 0.79319834E+03</totfact>
</mgrwt>
</event>
<event>
 5    1  0.3331626E-002  0.1249959E+03  0.7818608E-02  0.1235076E+00
          4   -1    0    0  501    0  0.00000000000E+00  0.00000000000E+00  0.15691320972E+02  0.15742631732E+02  0.12700000000E+01 0.  1.
         -4   -1    0    0    0  501 -0.00000000000E+00 -0.00000000000E+00 -0.24846791708E+03  0.24847116275E+03  0.12700000000E+01 0.  1.
         25    2    1    2    0    0  0.00000000000E+00  0.00000000000E+00 -0.23277659610E+03  0.26421379448E+03  0.12499594193E+03 0.  0.
    9000005    1    3    3    0    0 -0.54556356214E+02 -0.25822697455E+02 -0.82187597982E+02  0.10197553123E+03  0.10000000000E+01 0.  0.
    9000005    1    3    3    0    0  0.54556356214E+02  0.25822697455E+02 -0.15058899812E+03  0.16223826325E+03  0.10000000000E+01 0.  0.
<mgrwt>
<rscale>  0 0.12499594E+03</rscale>
<asrwt>0</asrwt>
<pdfrwt beam="1">  1        4 0.24182462E-02 0.12499594E+03</pdfrwt>
<pdfrwt beam="2">  1       -4 0.38230027E-01 0.12499594E+03</pdfrwt>
<totfact> 0.80325582E+03</totfact>
</mgrwt>
</event>
<event>
 4    1  0.3331626E-002  0.1249164E+03  0.7818608E-02  0.1235200E+00
          4   -1    0    0  501    0  0.00000000000E+00  0.00000000000E+00  0.20366323307E+02  0.20405882119E+02  0.12700000000E+01 0. -1.
         -4   -1    0    0    0  501 -0.00000000000E+00 -0.00000000000E+00 -0.19131535535E+03  0.19131957060E+03  0.12700000000E+01 0. -1.
    9000005    1    1    2    0    0  0.95106837056E+01  0.25798457198E+02  0.95631487870E+01  0.29128462250E+02  0.10000000000E+01 0.  0.
    9000005    1    1    2    0    0 -0.95106837056E+01 -0.25798457198E+02 -0.18051218083E+03  0.18259699046E+03  0.10000000000E+01 0.  0.
<mgrwt>
<rscale>  0 0.12491636E+03</rscale>
<asrwt>0</asrwt>
<pdfrwt beam="1">  1        4 0.31366479E-02 0.12491636E+03</pdfrwt>
<pdfrwt beam="2">  1       -4 0.29436498E-01 0.12491636E+03</pdfrwt>
<totfact> 0.88359969E+03</totfact>
</mgrwt>
</event>
<event>
 5    1  0.3331626E-002  0.1249989E+03  0.7818608E-02  0.1235071E+00
          4   -1    0    0  501    0  0.00000000000E+00  0.00000000000E+00  0.96485205300E+03  0.96485288883E+03  0.12700000000E+01 0. -1.
         -4   -1    0    0    0  501 -0.00000000000E+00 -0.00000000000E+00 -0.39480169134E+01  0.41472566292E+01  0.12700000000E+01 0. -1.
         25    2    1    2    0    0  0.00000000000E+00  0.00000000000E+00  0.96090403609E+03  0.96900014546E+03  0.12499886130E+03 0.  0.
    9000005    1    3    3    0    0 -0.50924886589E+02  0.19991712976E+02  0.71458077865E+03  0.71667266020E+03  0.10000000000E+01 0.  0.
    9000005    1    3    3    0    0  0.50924886589E+02 -0.19991712976E+02  0.24632325744E+03  0.25232748526E+03  0.10000000000E+01 0.  0.
<mgrwt>
<rscale>  0 0.12499886E+03</rscale>
<asrwt>0</asrwt>
<pdfrwt beam="1">  1        4 0.14845422E+00 0.12499886E+03</pdfrwt>
<pdfrwt beam="2">  1       -4 0.62277740E-03 0.12499886E+03</pdfrwt>
<totfact> 0.31651625E+03</totfact>
</mgrwt>
</event>
<event>
 5    1  0.3331626E-002  0.1249910E+03  0.7818608E-02  0.1235083E+00
          4   -1    0    0  501    0  0.00000000000E+00  0.00000000000E+00  0.17215311657E+04  0.17215316341E+04  0.12700000000E+01 0.  1.
         -4   -1    0    0    0  501 -0.00000000000E+00 -0.00000000000E+00 -0.20904904520E+01  0.24460274589E+01  0.12700000000E+01 0.  1.
         25    2    1    2    0    0  0.00000000000E+00  0.00000000000E+00  0.17194406752E+04  0.17239776616E+04  0.12499096778E+03 0.  0.
    9000005    1    3    3    0    0 -0.51060144537E+02  0.30303366564E+02  0.59111317746E+03  0.59408856322E+03  0.10000000000E+01 0.  0.
    9000005    1    3    3    0    0  0.51060144537E+02 -0.30303366564E+02  0.11283274978E+04  0.11298890984E+04  0.10000000000E+01 0.  0.
<mgrwt>
<rscale>  0 0.12499097E+03</rscale>
<asrwt>0</asrwt>
<pdfrwt beam="1">  1        4 0.26487910E+00 0.12499097E+03</pdfrwt>
<pdfrwt beam="2">  1       -4 0.34899794E-03 0.12499097E+03</pdfrwt>
<totfact> 0.13914419E+03</totfact>
</mgrwt>
</event>
<event>
 5    1  0.3331626E-002  0.1249982E+03  0.7818608E-02  0.1235072E+00
         -4   -1    0    0    0  501 -0.00000000000E+00  0.00000000000E+00  0.10750490049E+02  0.10825245322E+02  0.12700000000E+01 0. -1.
          4   -1    0    0  501    0  0.00000000000E+00 -0.00000000000E+00 -0.36201019429E+03  0.36201242198E+03  0.12700000000E+01 0. -1.
         25    2    1    2    0    0  0.00000000000E+00  0.00000000000E+00 -0.35125970424E+03  0.37283766730E+03  0.12499818534E+03 0.  0.
    9000005    1    3    3    0    0  0.52620497919E+02 -0.32852338493E+02 -0.15312176012E+03  0.16521339645E+03  0.10000000000E+01 0.  0.
    9000005    1    3    3    0    0 -0.52620497919E+02  0.32852338493E+02 -0.19813794412E+03  0.20762427085E+03  0.10000000000E+01 0.  0.
<mgrwt>
<rscale>  0 0.12499819E+03</rscale>
<asrwt>0</asrwt>
<pdfrwt beam="2">  1        4 0.55699788E-01 0.12499819E+03</pdfrwt>
<pdfrwt beam="1">  1       -4 0.16598436E-02 0.12499819E+03</pdfrwt>
<totfact> 0.67285809E+03</totfact>
</mgrwt>
</event>
<event>
 5    1  0.3331626E-002  0.1249929E+03  0.7818608E-02  0.1235080E+00
          4   -1    0    0  501    0  0.00000000000E+00  0.00000000000E+00  0.10465701838E+02  0.10542476699E+02  0.12700000000E+01 0. -1.
         -4   -1    0    0    0  501 -0.00000000000E+00 -0.00000000000E+00 -0.37175913524E+03  0.37176130451E+03  0.12700000000E+01 0. -1.
         25    2    1    2    0    0  0.00000000000E+00  0.00000000000E+00 -0.36129343340E+03  0.38230378121E+03  0.12499294424E+03 0.  0.
    9000005    1    3    3    0    0  0.15983876026E+02 -0.57582390103E+02 -0.12478276994E+03  0.13835807030E+03  0.10000000000E+01 0.  0.
    9000005    1    3    3    0    0 -0.15983876026E+02  0.57582390103E+02 -0.23651066346E+03  0.24394571092E+03  0.10000000000E+01 0.  0.
<mgrwt>
<rscale>  0 0.12499294E+03</rscale>
<asrwt>0</asrwt>
<pdfrwt beam="1">  1        4 0.16161809E-02 0.12499294E+03</pdfrwt>
<pdfrwt beam="2">  1       -4 0.57199776E-01 0.12499294E+03</pdfrwt>
<totfact> 0.66321420E+03</totfact>
</mgrwt>
</event>
<event>
 5    1  0.3331626E-002  0.1249982E+03  0.7818608E-02  0.1235072E+00
         -4   -1    0    0    0  501 -0.00000000000E+00  0.00000000000E+00  0.23073737255E+03  0.23074086762E+03  0.12700000000E+01 0. -1.
          4   -1    0    0  501    0  0.00000000000E+00 -0.00000000000E+00 -0.16901473136E+02  0.16949120749E+02  0.12700000000E+01 0. -1.
         25    2    1    2    0    0  0.00000000000E+00  0.00000000000E+00  0.21383589941E+03  0.24768998837E+03  0.12499815383E+03 0.  0.
    9000005    1    3    3    0    0 -0.48917283904E+02 -0.28757406174E+02  0.15878934892E+03  0.16862664797E+03  0.10000000000E+01 0.  0.
    9000005    1    3    3    0    0  0.48917283904E+02  0.28757406174E+02  0.55046550489E+02  0.79063340399E+02  0.10000000000E+01 0.  0.
<mgrwt>
<rscale>  0 0.12499815E+03</rscale>
<asrwt>0</asrwt>
<pdfrwt beam="2">  1        4 0.26041606E-02 0.12499815E+03</pdfrwt>
<pdfrwt beam="1">  1       -4 0.35501992E-01 0.12499815E+03</pdfrwt>
<totfact> 0.82668645E+03</totfact>
</mgrwt>
</event>
<event>
 5    1  0.3331626E-002  0.1249707E+03  0.7818608E-02  0.1235115E+00
         -4   -1    0    0    0  501 -0.00000000000E+00  0.00000000000E+00  0.55747047693E+02  0.55761512053E+02  0.12700000000E+01 0.  1.
          4   -1    0    0  501    0  0.00000000000E+00 -0.00000000000E+00 -0.70008872775E+02  0.70020391082E+02  0.12700000000E+01 0.  1.
         25    2    1    2    0    0  0.00000000000E+00  0.00000000000E+00 -0.14261825082E+02  0.12578190313E+03  0.12497074658E+03 0.  0.
    9000005    1    3    3    0    0 -0.58061955007E+02 -0.72999279046E+01 -0.29157712053E+02  0.65388467934E+02  0.10000000000E+01 0.  0.
    9000005    1    3    3    0    0  0.58061955007E+02  0.72999279046E+01  0.14895886971E+02  0.60393435200E+02  0.10000000000E+01 0.  0.
<mgrwt>
<rscale>  0 0.12497075E+03</rscale>
<asrwt>0</asrwt>
<pdfrwt beam="2">  1        4 0.10772594E-01 0.12497075E+03</pdfrwt>
<pdfrwt beam="1">  1       -4 0.85784676E-02 0.12497075E+03</pdfrwt>
<totfact> 0.10442634E+04</totfact>
</mgrwt>
</event>
<event>
 5    1  0.3331626E-002  0.1250005E+03  0.7818608E-02  0.1235069E+00
         -4   -1    0    0    0  501 -0.00000000000E+00  0.00000000000E+00  0.14427586484E+04  0.14427592074E+04  0.12700000000E+01 0. -1.
          4   -1    0    0  501    0  0.00000000000E+00 -0.00000000000E+00 -0.25579881168E+01  0.28559067221E+01  0.12700000000E+01 0. -1.
         25    2    1    2    0    0  0.00000000000E+00  0.00000000000E+00  0.14402006603E+04  0.14456151141E+04  0.12500046477E+03 0.  0.
    9000005    1    3    3    0    0 -0.36328055227E+02 -0.52554335350E+01  0.13050056062E+04  0.13055221099E+04  0.10000000000E+01 0.  0.
    9000005    1    3    3    0    0  0.36328055227E+02  0.52554335350E+01  0.13519505408E+03  0.14009300420E+03  0.10000000000E+01 0.  0.
<mgrwt>
<rscale>  0 0.12500046E+03</rscale>
<asrwt>0</asrwt>
<pdfrwt beam="2">  1        4 0.41649779E-03 0.12500046E+03</pdfrwt>
<pdfrwt beam="1">  1       -4 0.22198511E+00 0.12500046E+03</pdfrwt>
<totfact> 0.19022624E+03</totfact>
</mgrwt>
</event>
<event>
 5    1  0.3331626E-002  0.1249873E+03  0.7818608E-02  0.1235089E+00
          4   -1    0    0  501    0  0.00000000000E+00  0.00000000000E+00  0.29122019023E+03  0.29122295942E+03  0.12700000000E+01 0.  1.
         -4   -1    0    0    0  501 -0.00000000000E+00 -0.00000000000E+00 -0.13377750551E+02  0.13437898266E+02  0.12700000000E+01 0.  1.
         25    2    1    2    0    0  0.00000000000E+00  0.00000000000E+00  0.27784243968E+03  0.30466085769E+03  0.12498726705E+03 0.  0.
    9000005    1    3    3    0    0 -0.59322628061E+02  0.14878470328E+02  0.17012844390E+03  0.18079057084E+03  0.10000000000E+01 0.  0.
    9000005    1    3    3    0    0  0.59322628061E+02 -0.14878470328E+02  0.10771399577E+03  0.12387028685E+03  0.10000000000E+01 0.  0.
<mgrwt>
<rscale>  0 0.12498727E+03</rscale>
<asrwt>0</asrwt>
<pdfrwt beam="1">  1        4 0.44807947E-01 0.12498727E+03</pdfrwt>
<pdfrwt beam="2">  1       -4 0.20629552E-02 0.12498727E+03</pdfrwt>
<totfact> 0.75039084E+03</totfact>
</mgrwt>
</event>
<event>
 5    1  0.3331626E-002  0.1249982E+03  0.7818608E-02  0.1235072E+00
          4   -1    0    0  501    0  0.00000000000E+00  0.00000000000E+00  0.44965102958E+01  0.46724195916E+01  0.12700000000E+01 0.  1.
         -4   -1    0    0    0  501 -0.00000000000E+00 -0.00000000000E+00 -0.85186143260E+03  0.85186237929E+03  0.12700000000E+01 0.  1.
         25    2    1    2    0    0  0.00000000000E+00  0.00000000000E+00 -0.84736492230E+03  0.85653479888E+03  0.12499820057E+03 0.  0.
    9000005    1    3    3    0    0  0.25219400100E+02  0.57170987123E+02 -0.42897977969E+03  0.43350800603E+03  0.10000000000E+01 0.  0.
    9000005    1    3    3    0    0 -0.25219400100E+02 -0.57170987123E+02 -0.41838514261E+03  0.42302679285E+03  0.10000000000E+01 0.  0.
<mgrwt>
<rscale>  0 0.12499820E+03</rscale>
<asrwt>0</asrwt>
<pdfrwt beam="1">  1        4 0.70537580E-03 0.12499820E+03</pdfrwt>
<pdfrwt beam="2">  1       -4 0.13106908E+00 0.12499820E+03</pdfrwt>
<totfact> 0.35862836E+03</totfact>
</mgrwt>
</event>
<event>
 5    1  0.3331626E-002  0.1250020E+03  0.7818608E-02  0.1235066E+00
          4   -1    0    0  501    0  0.00000000000E+00  0.00000000000E+00  0.41000382279E+01  0.42922270991E+01  0.12700000000E+01 0.  1.
         -4   -1    0    0    0  501 -0.00000000000E+00 -0.00000000000E+00 -0.93075426478E+03  0.93075513122E+03  0.12700000000E+01 0.  1.
         25    2    1    2    0    0  0.00000000000E+00  0.00000000000E+00 -0.92665422655E+03  0.93504735832E+03  0.12500202689E+03 0.  0.
    9000005    1    3    3    0    0 -0.24332165222E+02 -0.10551428242E+02 -0.40048307547E+02  0.48044290397E+02  0.10000000000E+01 0.  0.
    9000005    1    3    3    0    0  0.24332165222E+02  0.10551428242E+02 -0.88660591900E+03  0.88700306793E+03  0.10000000000E+01 0.  0.
<mgrwt>
<rscale>  0 0.12500203E+03</rscale>
<asrwt>0</asrwt>
<pdfrwt beam="1">  1        4 0.64562626E-03 0.12500203E+03</pdfrwt>
<pdfrwt beam="2">  1       -4 0.14320765E+00 0.12500203E+03</pdfrwt>
<totfact> 0.32851456E+03</totfact>
</mgrwt>
</event>
<event>
 5    1  0.3331626E-002  0.1250036E+03  0.7818608E-02  0.1235064E+00
          4   -1    0    0  501    0  0.00000000000E+00  0.00000000000E+00  0.20641422123E+02  0.20680454716E+02  0.12700000000E+01 0. -1.
         -4   -1    0    0    0  501 -0.00000000000E+00 -0.00000000000E+00 -0.18903411027E+03  0.18903837638E+03  0.12700000000E+01 0. -1.
         25    2    1    2    0    0  0.00000000000E+00  0.00000000000E+00 -0.16839268815E+03  0.20971883110E+03  0.12500356273E+03 0.  0.
    9000005    1    3    3    0    0 -0.54188749245E+02  0.12411003461E+02 -0.13209231005E+03  0.14331724225E+03  0.10000000000E+01 0.  0.
    9000005    1    3    3    0    0  0.54188749245E+02 -0.12411003461E+02 -0.36300378095E+02  0.66401588847E+02  0.10000000000E+01 0.  0.
<mgrwt>
<rscale>  0 0.12500356E+03</rscale>
<asrwt>0</asrwt>
<pdfrwt beam="1">  1        4 0.31789342E-02 0.12500356E+03</pdfrwt>
<pdfrwt beam="2">  1       -4 0.29085500E-01 0.12500356E+03</pdfrwt>
<totfact> 0.88514770E+03</totfact>
</mgrwt>
</event>
<event>
 5    1  0.3331626E-002  0.1249958E+03  0.7818608E-02  0.1235076E+00
          4   -1    0    0  501    0  0.00000000000E+00  0.00000000000E+00  0.11421057296E+02  0.11491451160E+02  0.12700000000E+01 0.  1.
         -4   -1    0    0    0  501 -0.00000000000E+00 -0.00000000000E+00 -0.34087670100E+03  0.34087906681E+03  0.12700000000E+01 0.  1.
         25    2    1    2    0    0  0.00000000000E+00  0.00000000000E+00 -0.32945564371E+03  0.35237051797E+03  0.12499584298E+03 0.  0.
    9000005    1    3    3    0    0 -0.36993261562E+02  0.25217098970E+02 -0.41828966224E+02  0.61278592484E+02  0.10000000000E+01 0.  0.
    9000005    1    3    3    0    0  0.36993261562E+02 -0.25217098970E+02 -0.28762667748E+03  0.29109192548E+03  0.10000000000E+01 0.  0.
<mgrwt>
<rscale>  0 0.12499584E+03</rscale>
<asrwt>0</asrwt>
<pdfrwt beam="1">  1        4 0.17626829E-02 0.12499584E+03</pdfrwt>
<pdfrwt beam="2">  1       -4 0.52448159E-01 0.12499584E+03</pdfrwt>
<totfact> 0.69470948E+03</totfact>
</mgrwt>
</event>
<event>
 5    1  0.3331626E-002  0.1250058E+03  0.7818608E-02  0.1235060E+00
          4   -1    0    0  501    0  0.00000000000E+00  0.00000000000E+00  0.22043106178E+02  0.22079661003E+02  0.12700000000E+01 0. -1.
         -4   -1    0    0    0  501 -0.00000000000E+00 -0.00000000000E+00 -0.17704024969E+03  0.17704480481E+03  0.12700000000E+01 0. -1.
         25    2    1    2    0    0  0.00000000000E+00  0.00000000000E+00 -0.15499714351E+03  0.19912446581E+03  0.12500575342E+03 0.  0.
    9000005    1    3    3    0    0  0.27146449644E+02  0.56159148189E+02 -0.71364280833E+02  0.94787342153E+02  0.10000000000E+01 0.  0.
    9000005    1    3    3    0    0 -0.27146449644E+02 -0.56159148189E+02 -0.83632862676E+02  0.10433712366E+03  0.10000000000E+01 0.  0.
<mgrwt>
<rscale>  0 0.12500575E+03</rscale>
<asrwt>0</asrwt>
<pdfrwt beam="1">  1        4 0.33944095E-02 0.12500575E+03</pdfrwt>
<pdfrwt beam="2">  1       -4 0.27240123E-01 0.12500575E+03</pdfrwt>
<totfact> 0.90271759E+03</totfact>
</mgrwt>
</event>
<event>
 5    1  0.3331626E-002  0.1250034E+03  0.7818608E-02  0.1235064E+00
         -4   -1    0    0    0  501 -0.00000000000E+00  0.00000000000E+00  0.14136227852E+02  0.14193161659E+02  0.12700000000E+01 0. -1.
          4   -1    0    0  501    0  0.00000000000E+00 -0.00000000000E+00 -0.27573038778E+03  0.27573331254E+03  0.12700000000E+01 0. -1.
         25    2    1    2    0    0  0.00000000000E+00  0.00000000000E+00 -0.26159415993E+03  0.28992647420E+03  0.12500342369E+03 0.  0.
    9000005    1    3    3    0    0 -0.60409636427E+02  0.97026780773E+01 -0.16031736792E+03  0.17159873133E+03  0.10000000000E+01 0.  0.
    9000005    1    3    3    0    0  0.60409636427E+02 -0.97026780773E+01 -0.10127679201E+03  0.11832774288E+03  0.10000000000E+01 0.  0.
<mgrwt>
<rscale>  0 0.12500342E+03</rscale>
<asrwt>0</asrwt>
<pdfrwt beam="2">  1        4 0.42424660E-01 0.12500342E+03</pdfrwt>
<pdfrwt beam="1">  1       -4 0.21794090E-02 0.12500342E+03</pdfrwt>
<totfact> 0.76874226E+03</totfact>
</mgrwt>
</event>
<event>
 5    1  0.3331626E-002  0.1249950E+03  0.7818608E-02  0.1235077E+00
         -4   -1    0    0    0  501 -0.00000000000E+00  0.00000000000E+00  0.18496783474E+01  0.22437045235E+01  0.12700000000E+01 0. -1.
          4   -1    0    0  501    0  0.00000000000E+00 -0.00000000000E+00 -0.19080220477E+04  0.19080224704E+04  0.12700000000E+01 0. -1.
         25    2    1    2    0    0  0.00000000000E+00  0.00000000000E+00 -0.19061723694E+04  0.19102661749E+04  0.12499502883E+03 0.  0.
    9000005    1    3    3    0    0  0.50052964211E+02 -0.24300550485E+02 -0.51836730099E+03  0.52134583024E+03  0.10000000000E+01 0.  0.
    9000005    1    3    3    0    0 -0.50052964211E+02  0.24300550485E+02 -0.13878050684E+04  0.13889203447E+04  0.10000000000E+01 0.  0.
<mgrwt>
<rscale>  0 0.12499503E+03</rscale>
<asrwt>0</asrwt>
<pdfrwt beam="2">  1        4 0.29357077E+00 0.12499503E+03</pdfrwt>
<pdfrwt beam="1">  1       -4 0.31490964E-03 0.12499503E+03</pdfrwt>
<totfact> 0.11079619E+03</totfact>
</mgrwt>
</event>
<event>
 5    1  0.3331626E-002  0.1249996E+03  0.7818608E-02  0.1235070E+00
          4   -1    0    0  501    0  0.00000000000E+00  0.00000000000E+00  0.19462656527E+03  0.19463070880E+03  0.12700000000E+01 0.  1.
         -4   -1    0    0    0  501 -0.00000000000E+00 -0.00000000000E+00 -0.20045913333E+02  0.20086103190E+02  0.12700000000E+01 0.  1.
         25    2    1    2    0    0  0.00000000000E+00  0.00000000000E+00  0.17458065194E+03  0.21471681199E+03  0.12499962128E+03 0.  0.
    9000005    1    3    3    0    0  0.39960293066E+02 -0.36113767999E+02  0.32856754757E+02  0.63099885849E+02  0.10000000000E+01 0.  0.
    9000005    1    3    3    0    0 -0.39960293066E+02  0.36113767999E+02  0.14172389718E+03  0.15161692614E+03  0.10000000000E+01 0.  0.
<mgrwt>
<rscale>  0 0.12499962E+03</rscale>
<asrwt>0</asrwt>
<pdfrwt beam="1">  1        4 0.29945959E-01 0.12499962E+03</pdfrwt>
<pdfrwt beam="2">  1       -4 0.30873969E-02 0.12499962E+03</pdfrwt>
<totfact> 0.87712052E+03</totfact>
</mgrwt>
</event>
<event>
 5    1  0.3331626E-002  0.1249970E+03  0.7818608E-02  0.1235074E+00
          4   -1    0    0  501    0  0.00000000000E+00  0.00000000000E+00  0.12522173021E+03  0.12522817022E+03  0.12700000000E+01 0.  1.
         -4   -1    0    0    0  501 -0.00000000000E+00 -0.00000000000E+00 -0.31173007739E+02  0.31198867150E+02  0.12700000000E+01 0.  1.
         25    2    1    2    0    0  0.00000000000E+00  0.00000000000E+00  0.94048722476E+02  0.15642703738E+03  0.12499702326E+03 0.  0.
    9000005    1    3    3    0    0  0.76268339844E+01  0.61314718750E+02  0.58723918171E+02  0.85247650392E+02  0.10000000000E+01 0.  0.
    9000005    1    3    3    0    0 -0.76268339844E+01 -0.61314718750E+02  0.35324804305E+02  0.71179386983E+02  0.10000000000E+01 0.  0.
<mgrwt>
<rscale>  0 0.12499702E+03</rscale>
<asrwt>0</asrwt>
<pdfrwt beam="1">  1        4 0.19267366E-01 0.12499702E+03</pdfrwt>
<pdfrwt beam="2">  1       -4 0.47983319E-02 0.12499702E+03</pdfrwt>
<totfact> 0.98042642E+03</totfact>
</mgrwt>
</event>
<event>
 5    1  0.3331626E-002  0.1249823E+03  0.7818608E-02  0.1235097E+00
          4   -1    0    0  501    0  0.00000000000E+00  0.00000000000E+00  0.12501652213E+02  0.12565994113E+02  0.12700000000E+01 0. -1.
         -4   -1    0    0    0  501 -0.00000000000E+00 -0.00000000000E+00 -0.31150289228E+03  0.31150548117E+03  0.12700000000E+01 0. -1.
         25    2    1    2    0    0  0.00000000000E+00  0.00000000000E+00 -0.29900124007E+03  0.32407147528E+03  0.12498231687E+03 0.  0.
    9000005    1    3    3    0    0  0.44525267445E+01 -0.30236097913E+02 -0.29081216497E+03  0.29241539273E+03  0.10000000000E+01 0.  0.
    9000005    1    3    3    0    0 -0.44525267445E+01  0.30236097913E+02 -0.81890750943E+01  0.31656082549E+02  0.10000000000E+01 0.  0.
<mgrwt>
<rscale>  0 0.12498232E+03</rscale>
<asrwt>0</asrwt>
<pdfrwt beam="1">  1        4 0.19284799E-02 0.12498232E+03</pdfrwt>
<pdfrwt beam="2">  1       -4 0.47928664E-01 0.12498232E+03</pdfrwt>
<totfact> 0.72702970E+03</totfact>
</mgrwt>
</event>
<event>
 5    1  0.3331626E-002  0.1250039E+03  0.7818608E-02  0.1235063E+00
          4   -1    0    0  501    0  0.00000000000E+00  0.00000000000E+00  0.52799513436E+03  0.52799666174E+03  0.12700000000E+01 0. -1.
         -4   -1    0    0    0  501 -0.00000000000E+00 -0.00000000000E+00 -0.73426760146E+01  0.74516971929E+01  0.12700000000E+01 0. -1.
         25    2    1    2    0    0  0.00000000000E+00  0.00000000000E+00  0.52065245835E+03  0.53544835893E+03  0.12500385075E+03 0.  0.
    9000005    1    3    3    0    0 -0.30807432461E+02 -0.42247212550E+02  0.11371151934E+03  0.12516083451E+03  0.10000000000E+01 0.  0.
    9000005    1    3    3    0    0  0.30807432461E+02  0.42247212550E+02  0.40694093900E+03  0.41028752443E+03  0.10000000000E+01 0.  0.
<mgrwt>
<rscale>  0 0.12500385E+03</rscale>
<asrwt>0</asrwt>
<pdfrwt beam="1">  1        4 0.81238529E-01 0.12500385E+03</pdfrwt>
<pdfrwt beam="2">  1       -4 0.11381461E-02 0.12500385E+03</pdfrwt>
<totfact> 0.53210715E+03</totfact>
</mgrwt>
</event>
<event>
 5    1  0.3331626E-002  0.1250011E+03  0.7818608E-02  0.1235068E+00
          4   -1    0    0  501    0  0.00000000000E+00  0.00000000000E+00  0.28083884146E+02  0.28112585238E+02  0.12700000000E+01 0.  1.
         -4   -1    0    0    0  501 -0.00000000000E+00 -0.00000000000E+00 -0.13899210119E+03  0.13899790319E+03  0.12700000000E+01 0.  1.
         25    2    1    2    0    0  0.00000000000E+00  0.00000000000E+00 -0.11090821704E+03  0.16711048843E+03  0.12500113094E+03 0.  0.
    9000005    1    3    3    0    0  0.16751129788E+02 -0.22572031980E+02  0.19162307630E+02  0.34033674656E+02  0.10000000000E+01 0.  0.
    9000005    1    3    3    0    0 -0.16751129788E+02  0.22572031980E+02 -0.13007052467E+03  0.13307681378E+03  0.10000000000E+01 0.  0.
<mgrwt>
<rscale>  0 0.12500113E+03</rscale>
<asrwt>0</asrwt>
<pdfrwt beam="1">  1        4 0.43232517E-02 0.12500113E+03</pdfrwt>
<pdfrwt beam="2">  1       -4 0.21386054E-01 0.12500113E+03</pdfrwt>
<totfact> 0.95986748E+03</totfact>
</mgrwt>
</event>
<event>
 5    1  0.3331626E-002  0.1250003E+03  0.7818608E-02  0.1235069E+00
          4   -1    0    0  501    0  0.00000000000E+00  0.00000000000E+00  0.16798469400E+02  0.16846408346E+02  0.12700000000E+01 0. -1.
         -4   -1    0    0    0  501 -0.00000000000E+00 -0.00000000000E+00 -0.23215620286E+03  0.23215967657E+03  0.12700000000E+01 0. -1.
         25    2    1    2    0    0  0.00000000000E+00  0.00000000000E+00 -0.21535773346E+03  0.24900608492E+03  0.12500030786E+03 0.  0.
    9000005    1    3    3    0    0 -0.48869530991E+02 -0.29110015861E+02 -0.56129748123E+02  0.79919789208E+02  0.10000000000E+01 0.  0.
    9000005    1    3    3    0    0  0.48869530991E+02  0.29110015861E+02 -0.15922798533E+03  0.16908629571E+03  0.10000000000E+01 0.  0.
<mgrwt>
<rscale>  0 0.12500031E+03</rscale>
<asrwt>0</asrwt>
<pdfrwt beam="1">  1        4 0.25883349E-02 0.12500031E+03</pdfrwt>
<pdfrwt beam="2">  1       -4 0.35720291E-01 0.12500031E+03</pdfrwt>
<totfact> 0.82473527E+03</totfact>
</mgrwt>
</event>
<event>
 5    1  0.3331626E-002  0.1250024E+03  0.7818608E-02  0.1235066E+00
          4   -1    0    0  501    0  0.00000000000E+00  0.00000000000E+00  0.13871863656E+03  0.13872445001E+03  0.12700000000E+01 0.  1.
         -4   -1    0    0    0  501 -0.00000000000E+00 -0.00000000000E+00 -0.28139881355E+02  0.28168525390E+02  0.12700000000E+01 0.  1.
         25    2    1    2    0    0  0.00000000000E+00  0.00000000000E+00  0.11057875521E+03  0.16689297540E+03  0.12500241651E+03 0.  0.
    9000005    1    3    3    0    0 -0.43345747557E+01 -0.56373047626E+02  0.19746841541E+02  0.59896968102E+02  0.10000000000E+01 0.  0.
    9000005    1    3    3    0    0  0.43345747557E+01  0.56373047626E+02  0.90831913668E+02  0.10699600730E+03  0.10000000000E+01 0.  0.
<mgrwt>
<rscale>  0 0.12500242E+03</rscale>
<asrwt>0</asrwt>
<pdfrwt beam="1">  1        4 0.21343979E-01 0.12500242E+03</pdfrwt>
<pdfrwt beam="2">  1       -4 0.43318631E-02 0.12500242E+03</pdfrwt>
<totfact> 0.96024878E+03</totfact>
</mgrwt>
</event>
<event>
 5    1  0.3331626E-002  0.1250052E+03  0.7818608E-02  0.1235061E+00
         -4   -1    0    0    0  501 -0.00000000000E+00  0.00000000000E+00  0.38593001159E+02  0.38613891781E+02  0.12700000000E+01 0. -1.
          4   -1    0    0  501    0  0.00000000000E+00 -0.00000000000E+00 -0.10117274579E+03  0.10118071650E+03  0.12700000000E+01 0. -1.
         25    2    1    2    0    0  0.00000000000E+00  0.00000000000E+00 -0.62579744633E+02  0.13979460828E+03  0.12500523215E+03 0.  0.
    9000005    1    3    3    0    0  0.34924077392E+02 -0.86409361357E+01 -0.88435626275E+02  0.95478882239E+02  0.10000000000E+01 0.  0.
    9000005    1    3    3    0    0 -0.34924077392E+02  0.86409361357E+01  0.25855881642E+02  0.44315726040E+02  0.10000000000E+01 0.  0.
<mgrwt>
<rscale>  0 0.12500523E+03</rscale>
<asrwt>0</asrwt>
<pdfrwt beam="2">  1        4 0.15567258E-01 0.12500523E+03</pdfrwt>
<pdfrwt beam="1">  1       -4 0.59396049E-02 0.12500523E+03</pdfrwt>
<totfact> 0.10136649E+04</totfact>
</mgrwt>
</event>
<event>
 5    1  0.3331626E-002  0.1249968E+03  0.7818608E-02  0.1235074E+00
          4   -1    0    0  501    0  0.00000000000E+00  0.00000000000E+00  0.19079400707E+03  0.19079823383E+03  0.12700000000E+01 0. -1.
         -4   -1    0    0    0  501 -0.00000000000E+00 -0.00000000000E+00 -0.20448437750E+02  0.20487838012E+02  0.12700000000E+01 0. -1.
         25    2    1    2    0    0  0.00000000000E+00  0.00000000000E+00  0.17034556932E+03  0.21128607184E+03  0.12499676463E+03 0.  0.
    9000005    1    3    3    0    0 -0.37075508109E+02 -0.58444122651E+00  0.17019688573E+03  0.17419217774E+03  0.10000000000E+01 0.  0.
    9000005    1    3    3    0    0  0.37075508109E+02  0.58444122651E+00  0.14868358863E+00  0.37093894106E+02  0.10000000000E+01 0.  0.
<mgrwt>
<rscale>  0 0.12499676E+03</rscale>
<asrwt>0</asrwt>
<pdfrwt beam="1">  1        4 0.29356280E-01 0.12499676E+03</pdfrwt>
<pdfrwt beam="2">  1       -4 0.31492694E-02 0.12499676E+03</pdfrwt>
<totfact> 0.88272662E+03</totfact>
</mgrwt>
</event>
<event>
 5    1  0.3331626E-002  0.1249985E+03  0.7818608E-02  0.1235072E+00
          4   -1    0    0  501    0  0.00000000000E+00  0.00000000000E+00  0.18862006879E+02  0.18904713791E+02  0.12700000000E+01 0.  1.
         -4   -1    0    0    0  501 -0.00000000000E+00 -0.00000000000E+00 -0.20681224559E+03  0.20681614498E+03  0.12700000000E+01 0.  1.
         25    2    1    2    0    0  0.00000000000E+00  0.00000000000E+00 -0.18795023871E+03  0.22572085877E+03  0.12499845541E+03 0.  0.
    9000005    1    3    3    0    0  0.48360708791E+02  0.35029115332E+02 -0.12724069642E+03  0.14055956709E+03  0.10000000000E+01 0.  0.
    9000005    1    3    3    0    0 -0.48360708791E+02 -0.35029115332E+02 -0.60709542287E+02  0.85161291678E+02  0.10000000000E+01 0.  0.
<mgrwt>
<rscale>  0 0.12499846E+03</rscale>
<asrwt>0</asrwt>
<pdfrwt beam="1">  1        4 0.29054325E-02 0.12499846E+03</pdfrwt>
<pdfrwt beam="2">  1       -4 0.31820852E-01 0.12499846E+03</pdfrwt>
<totfact> 0.85973988E+03</totfact>
</mgrwt>
</event>
<event>
 5    1  0.3331626E-002  0.1249954E+03  0.7818608E-02  0.1235077E+00
         -4   -1    0    0    0  501 -0.00000000000E+00  0.00000000000E+00  0.11143279189E+03  0.11144002875E+03  0.12700000000E+01 0. -1.
          4   -1    0    0  501    0  0.00000000000E+00 -0.00000000000E+00 -0.35032288738E+02  0.35055301371E+02  0.12700000000E+01 0. -1.
         25    2    1    2    0    0  0.00000000000E+00  0.00000000000E+00  0.76400503150E+02  0.14649533012E+03  0.12499537938E+03 0.  0.
    9000005    1    3    3    0    0 -0.38958714635E+02 -0.28015827462E+02  0.85114073401E+02  0.97714244229E+02  0.10000000000E+01 0.  0.
    9000005    1    3    3    0    0  0.38958714635E+02  0.28015827462E+02 -0.87135702508E+01  0.48781085893E+02  0.10000000000E+01 0.  0.
<mgrwt>
<rscale>  0 0.12499538E+03</rscale>
<asrwt>0</asrwt>
<pdfrwt beam="2">  1        4 0.53919099E-02 0.12499538E+03</pdfrwt>
<pdfrwt beam="1">  1       -4 0.17145833E-01 0.12499538E+03</pdfrwt>
<totfact> 0.10001735E+04</totfact>
</mgrwt>
</event>
<event>
 5    1  0.3331626E-002  0.1249978E+03  0.7818608E-02  0.1235073E+00
          4   -1    0    0  501    0  0.00000000000E+00  0.00000000000E+00  0.88820490908E+02  0.88829569993E+02  0.12700000000E+01 0. -1.
         -4   -1    0    0    0  501 -0.00000000000E+00 -0.00000000000E+00 -0.43957129986E+02  0.43975472443E+02  0.12700000000E+01 0. -1.
         25    2    1    2    0    0  0.00000000000E+00  0.00000000000E+00  0.44863360922E+02  0.13280504244E+03  0.12499783255E+03 0.  0.
    9000005    1    3    3    0    0  0.42766740598E+02 -0.13536199588E+02 -0.23793112003E+02  0.50787153685E+02  0.10000000000E+01 0.  0.
    9000005    1    3    3    0    0 -0.42766740598E+02  0.13536199588E+02  0.68656472925E+02  0.82017888751E+02  0.10000000000E+01 0.  0.
<mgrwt>
<rscale>  0 0.12499783E+03</rscale>
<asrwt>0</asrwt>
<pdfrwt beam="1">  1        4 0.13666800E-01 0.12499783E+03</pdfrwt>
<pdfrwt beam="2">  1       -4 0.67647448E-02 0.12499783E+03</pdfrwt>
<totfact> 0.10285048E+04</totfact>
</mgrwt>
</event>
<event>
 5    1  0.3331626E-002  0.1249981E+03  0.7818608E-02  0.1235072E+00
         -4   -1    0    0    0  501 -0.00000000000E+00  0.00000000000E+00  0.17915920431E+03  0.17916370556E+03  0.12700000000E+01 0. -1.
          4   -1    0    0  501    0  0.00000000000E+00 -0.00000000000E+00 -0.21779302294E+02  0.21816299146E+02  0.12700000000E+01 0. -1.
         25    2    1    2    0    0  0.00000000000E+00  0.00000000000E+00  0.15737990201E+03  0.20098000470E+03  0.12499811491E+03 0.  0.
    9000005    1    3    3    0    0 -0.23582825883E+02 -0.17477691789E+01  0.17169524541E+03  0.17331895935E+03  0.10000000000E+01 0.  0.
    9000005    1    3    3    0    0  0.23582825883E+02  0.17477691789E+01 -0.14315343392E+02  0.27661045356E+02  0.10000000000E+01 0.  0.
<mgrwt>
<rscale>  0 0.12499811E+03</rscale>
<asrwt>0</asrwt>
<pdfrwt beam="2">  1        4 0.33538540E-02 0.12499811E+03</pdfrwt>
<pdfrwt beam="1">  1       -4 0.27566147E-01 0.12499811E+03</pdfrwt>
<totfact> 0.89974278E+03</totfact>
</mgrwt>
</event>
<event>
 5    1  0.3331626E-002  0.1249995E+03  0.7818608E-02  0.1235070E+00
          4   -1    0    0  501    0  0.00000000000E+00  0.00000000000E+00  0.54229111533E+02  0.54243980658E+02  0.12700000000E+01 0. -1.
         -4   -1    0    0    0  501 -0.00000000000E+00 -0.00000000000E+00 -0.72001474300E+02  0.72012673894E+02  0.12700000000E+01 0. -1.
         25    2    1    2    0    0  0.00000000000E+00  0.00000000000E+00 -0.17772362767E+02  0.12625665455E+03  0.12499954376E+03 0.  0.
    9000005    1    3    3    0    0 -0.42957998540E+02  0.44076673056E+02 -0.19815293158E+02  0.64666750259E+02  0.10000000000E+01 0.  0.
    9000005    1    3    3    0    0  0.42957998540E+02 -0.44076673056E+02  0.20429303910E+01  0.61589904293E+02  0.10000000000E+01 0.  0.
<mgrwt>
<rscale>  0 0.12499954E+03</rscale>
<asrwt>0</asrwt>
<pdfrwt beam="1">  1        4 0.83449455E-02 0.12499954E+03</pdfrwt>
<pdfrwt beam="2">  1       -4 0.11079155E-01 0.12499954E+03</pdfrwt>
<totfact> 0.10425448E+04</totfact>
</mgrwt>
</event>
<event>
 5    1  0.3331626E-002  0.1249992E+03  0.7818608E-02  0.1235071E+00
         -4   -1    0    0    0  501 -0.00000000000E+00  0.00000000000E+00  0.81428423484E+02  0.81438326672E+02  0.12700000000E+01 0. -1.
          4   -1    0    0  501    0  0.00000000000E+00 -0.00000000000E+00 -0.47949704122E+02  0.47966519838E+02  0.12700000000E+01 0. -1.
         25    2    1    2    0    0  0.00000000000E+00  0.00000000000E+00  0.33478719362E+02  0.12940484651E+03  0.12499915860E+03 0.  0.
    9000005    1    3    3    0    0 -0.15837893151E+02 -0.68583445316E+01 -0.45438517008E+02  0.48616196654E+02  0.10000000000E+01 0.  0.
    9000005    1    3    3    0    0  0.15837893151E+02  0.68583445316E+01  0.78917236370E+02  0.80788649856E+02  0.10000000000E+01 0.  0.
<mgrwt>
<rscale>  0 0.12499916E+03</rscale>
<asrwt>0</asrwt>
<pdfrwt beam="2">  1        4 0.73789330E-02 0.12499916E+03</pdfrwt>
<pdfrwt beam="1">  1       -4 0.12529505E-01 0.12499916E+03</pdfrwt>
<totfact> 0.10357452E+04</totfact>
</mgrwt>
</event>
<event>
 5    1  0.3331626E-002  0.1249990E+03  0.7818608E-02  0.1235071E+00
          4   -1    0    0  501    0  0.00000000000E+00  0.00000000000E+00  0.34462861932E+02  0.34486254545E+02  0.12700000000E+01 0. -1.
         -4   -1    0    0    0  501 -0.00000000000E+00 -0.00000000000E+00 -0.11327945016E+03  0.11328656905E+03  0.12700000000E+01 0. -1.
         25    2    1    2    0    0  0.00000000000E+00  0.00000000000E+00 -0.78816588226E+02  0.14777282360E+03  0.12499901125E+03 0.  0.
    9000005    1    3    3    0    0 -0.27904477595E+02 -0.39617914694E+02  0.72388662251E+01  0.49006532409E+02  0.10000000000E+01 0.  0.
    9000005    1    3    3    0    0  0.27904477595E+02  0.39617914694E+02 -0.86055454451E+02  0.98766291190E+02  0.10000000000E+01 0.  0.
<mgrwt>
<rscale>  0 0.12499901E+03</rscale>
<asrwt>0</asrwt>
<pdfrwt beam="1">  1        4 0.53043259E-02 0.12499901E+03</pdfrwt>
<pdfrwt beam="2">  1       -4 0.17429955E-01 0.12499901E+03</pdfrwt>
<totfact> 0.99751739E+03</totfact>
</mgrwt>
</event>
<event>
 5    1  0.3331626E-002  0.1249992E+03  0.7818608E-02  0.1235071E+00
          4   -1    0    0  501    0  0.00000000000E+00  0.00000000000E+00  0.85138693856E+03  0.85138788577E+03  0.12700000000E+01 0. -1.
         -4   -1    0    0    0  501 -0.00000000000E+00 -0.00000000000E+00 -0.44991883639E+01  0.46749968914E+01  0.12700000000E+01 0. -1.
         25    2    1    2    0    0  0.00000000000E+00  0.00000000000E+00  0.84688775019E+03  0.85606288267E+03  0.12499919061E+03 0.  0.
    9000005    1    3    3    0    0  0.59458071082E+02 -0.28388496761E+01  0.55372444044E+03  0.55691568233E+03  0.10000000000E+01 0.  0.
    9000005    1    3    3    0    0 -0.59458071082E+02  0.28388496761E+01  0.29316330976E+03  0.29914720034E+03  0.10000000000E+01 0.  0.
<mgrwt>
<rscale>  0 0.12499919E+03</rscale>
<asrwt>0</asrwt>
<pdfrwt beam="1">  1        4 0.13099614E+00 0.12499919E+03</pdfrwt>
<pdfrwt beam="2">  1       -4 0.70577974E-03 0.12499919E+03</pdfrwt>
<totfact> 0.35881149E+03</totfact>
</mgrwt>
</event>
<event>
 5    1  0.3331626E-002  0.1249969E+03  0.7818608E-02  0.1235074E+00
         -4   -1    0    0    0  501 -0.00000000000E+00  0.00000000000E+00  0.42258949965E+01  0.44126056385E+01  0.12700000000E+01 0. -1.
          4   -1    0    0  501    0  0.00000000000E+00 -0.00000000000E+00 -0.90414930534E+03  0.90415019729E+03  0.12700000000E+01 0. -1.
         25    2    1    2    0    0  0.00000000000E+00  0.00000000000E+00 -0.89992341035E+03  0.90856280293E+03  0.12499688943E+03 0.  0.
    9000005    1    3    3    0    0  0.38432586067E+02 -0.16585417188E+02 -0.11269825758E+03  0.12022494332E+03  0.10000000000E+01 0.  0.
    9000005    1    3    3    0    0 -0.38432586067E+02  0.16585417188E+02 -0.78722515277E+03  0.78833785961E+03  0.10000000000E+01 0.  0.
<mgrwt>
<rscale>  0 0.12499689E+03</rscale>
<asrwt>0</asrwt>
<pdfrwt beam="2">  1        4 0.13911417E+00 0.12499689E+03</pdfrwt>
<pdfrwt beam="1">  1       -4 0.66456938E-03 0.12499689E+03</pdfrwt>
<totfact> 0.33836488E+03</totfact>
</mgrwt>
</event>
<event>
 5    1  0.3331626E-002  0.1249947E+03  0.7818608E-02  0.1235078E+00
          4   -1    0    0  501    0  0.00000000000E+00  0.00000000000E+00  0.51988574613E+02  0.52004084361E+02  0.12700000000E+01 0.  1.
         -4   -1    0    0    0  501 -0.00000000000E+00 -0.00000000000E+00 -0.75098248491E+02  0.75108986322E+02  0.12700000000E+01 0.  1.
         25    2    1    2    0    0  0.00000000000E+00  0.00000000000E+00 -0.23109673878E+02  0.12711307068E+03  0.12499470273E+03 0.  0.
    9000005    1    3    3    0    0 -0.17078759252E+02  0.30933107004E+01  0.49493085488E+02  0.52457774446E+02  0.10000000000E+01 0.  0.
    9000005    1    3    3    0    0  0.17078759252E+02 -0.30933107004E+01 -0.72602759366E+02  0.74655296237E+02  0.10000000000E+01 0.  0.
<mgrwt>
<rscale>  0 0.12499470E+03</rscale>
<asrwt>0</asrwt>
<pdfrwt beam="1">  1        4 0.80002613E-02 0.12499470E+03</pdfrwt>
<pdfrwt beam="2">  1       -4 0.11555596E-01 0.12499470E+03</pdfrwt>
<totfact> 0.10407935E+04</totfact>
</mgrwt>
</event>
<event>
 5    1  0.3331626E-002  0.1250008E+03  0.7818608E-02  0.1235068E+00
          4   -1    0    0  501    0  0.00000000000E+00  0.00000000000E+00  0.76525205015E+02  0.76535742647E+02  0.12700000000E+01 0. -1.
         -4   -1    0    0    0  501 -0.00000000000E+00 -0.00000000000E+00 -0.51023963779E+02  0.51039766651E+02  0.12700000000E+01 0. -1.
         25    2    1    2    0    0  0.00000000000E+00  0.00000000000E+00  0.25501241235E+02  0.12757550930E+03  0.12500078907E+03 0.  0.
    9000005    1    3    3    0    0  0.25974261001E+01  0.62420059922E+02  0.14294665078E+02  0.64096395786E+02  0.10000000000E+01 0.  0.
    9000005    1    3    3    0    0 -0.25974261001E+01 -0.62420059922E+02  0.11206576157E+02  0.63479113512E+02  0.10000000000E+01 0.  0.
<mgrwt>
<rscale>  0 0.12500079E+03</rscale>
<asrwt>0</asrwt>
<pdfrwt beam="1">  1        4 0.11775135E-01 0.12500079E+03</pdfrwt>
<pdfrwt beam="2">  1       -4 0.78518668E-02 0.12500079E+03</pdfrwt>
<totfact> 0.10396480E+04</totfact>
</mgrwt>
</event>
<event>
 5    1  0.3331626E-002  0.1249984E+03  0.7818608E-02  0.1235072E+00
         -4   -1    0    0    0  501 -0.00000000000E+00  0.00000000000E+00  0.32040404752E+02  0.32065564655E+02  0.12700000000E+01 0.  1.
          4   -1    0    0  501    0  0.00000000000E+00 -0.00000000000E+00 -0.12183699193E+03  0.12184361084E+03  0.12700000000E+01 0.  1.
         25    2    1    2    0    0  0.00000000000E+00  0.00000000000E+00 -0.89796587179E+02  0.15390917550E+03  0.12499842892E+03 0.  0.
    9000005    1    3    3    0    0  0.37292819438E+01 -0.30409242709E+01 -0.12161457743E+03  0.12171384559E+03  0.10000000000E+01 0.  0.
    9000005    1    3    3    0    0 -0.37292819438E+01  0.30409242709E+01  0.31817990251E+02  0.32195329908E+02  0.10000000000E+01 0.  0.
<mgrwt>
<rscale>  0 0.12499843E+03</rscale>
<asrwt>0</asrwt>
<pdfrwt beam="2">  1        4 0.18746597E-01 0.12499843E+03</pdfrwt>
<pdfrwt beam="1">  1       -4 0.49317376E-02 0.12499843E+03</pdfrwt>
<totfact> 0.98533550E+03</totfact>
</mgrwt>
</event>
<event>
 5    1  0.3331626E-002  0.1249996E+03  0.7818608E-02  0.1235070E+00
         -4   -1    0    0    0  501 -0.00000000000E+00  0.00000000000E+00  0.11805391524E+02  0.11873507024E+02  0.12700000000E+01 0.  1.
          4   -1    0    0  501    0  0.00000000000E+00 -0.00000000000E+00 -0.32986372680E+03  0.32986617159E+03  0.12700000000E+01 0.  1.
         25    2    1    2    0    0  0.00000000000E+00  0.00000000000E+00 -0.31805833528E+03  0.34173967861E+03  0.12499961320E+03 0.  0.
    9000005    1    3    3    0    0 -0.52022255912E+02 -0.72738138459E+01 -0.25157982144E+03  0.25700706222E+03  0.10000000000E+01 0.  0.
    9000005    1    3    3    0    0  0.52022255912E+02  0.72738138459E+01 -0.66478513840E+02  0.84732616391E+02  0.10000000000E+01 0.  0.
<mgrwt>
<rscale>  0 0.12499961E+03</rscale>
<asrwt>0</asrwt>
<pdfrwt beam="2">  1        4 0.50753686E-01 0.12499961E+03</pdfrwt>
<pdfrwt beam="1">  1       -4 0.18216420E-02 0.12499961E+03</pdfrwt>
<totfact> 0.70643563E+03</totfact>
</mgrwt>
</event>
<event>
 5    1  0.3331626E-002  0.1250060E+03  0.7818608E-02  0.1235060E+00
          4   -1    0    0  501    0  0.00000000000E+00  0.00000000000E+00  0.65723140289E+02  0.65735409556E+02  0.12700000000E+01 0.  1.
         -4   -1    0    0    0  501 -0.00000000000E+00 -0.00000000000E+00 -0.59416048764E+02  0.59429620146E+02  0.12700000000E+01 0.  1.
         25    2    1    2    0    0  0.00000000000E+00  0.00000000000E+00  0.63070915256E+01  0.12516502970E+03  0.12500602088E+03 0.  0.
    9000005    1    3    3    0    0  0.65531313419E+01  0.57648289479E+02 -0.20100067122E+02  0.61410760527E+02  0.10000000000E+01 0.  0.
    9000005    1    3    3    0    0 -0.65531313419E+01 -0.57648289479E+02  0.26407158648E+02  0.63754269175E+02  0.10000000000E+01 0.  0.
<mgrwt>
<rscale>  0 0.12500602E+03</rscale>
<asrwt>0</asrwt>
<pdfrwt beam="1">  1        4 0.10113240E-01 0.12500602E+03</pdfrwt>
<pdfrwt beam="2">  1       -4 0.91429183E-02 0.12500602E+03</pdfrwt>
<totfact> 0.10447858E+04</totfact>
</mgrwt>
</event>
<event>
 5    1  0.3331626E-002  0.1249945E+03  0.7818608E-02  0.1235078E+00
          4   -1    0    0  501    0  0.00000000000E+00  0.00000000000E+00  0.61101788979E+01  0.62407680749E+01  0.12700000000E+01 0.  1.
         -4   -1    0    0    0  501 -0.00000000000E+00 -0.00000000000E+00 -0.63235521045E+03  0.63235648576E+03  0.12700000000E+01 0.  1.
         25    2    1    2    0    0  0.00000000000E+00  0.00000000000E+00 -0.62624503155E+03  0.63859725383E+03  0.12499445213E+03 0.  0.
    9000005    1    3    3    0    0  0.30340990742E+02 -0.33988345338E+01 -0.59168162417E+03  0.59246963819E+03  0.10000000000E+01 0.  0.
    9000005    1    3    3    0    0 -0.30340990742E+02  0.33988345338E+01 -0.34563407383E+02  0.46127615647E+02  0.10000000000E+01 0.  0.
<mgrwt>
<rscale>  0 0.12499445E+03</rscale>
<asrwt>0</asrwt>
<pdfrwt beam="1">  1        4 0.95017145E-03 0.12499445E+03</pdfrwt>
<pdfrwt beam="2">  1       -4 0.97295509E-01 0.12499445E+03</pdfrwt>
<totfact> 0.46524124E+03</totfact>
</mgrwt>
</event>
<event>
 5    1  0.3331626E-002  0.1250050E+03  0.7818608E-02  0.1235061E+00
          4   -1    0    0  501    0  0.00000000000E+00  0.00000000000E+00  0.29325122502E+03  0.29325397504E+03  0.12700000000E+01 0.  1.
         -4   -1    0    0    0  501 -0.00000000000E+00 -0.00000000000E+00 -0.13288467920E+02  0.13349017929E+02  0.12700000000E+01 0.  1.
         25    2    1    2    0    0  0.00000000000E+00  0.00000000000E+00  0.27996275710E+03  0.30660299296E+03  0.12500499963E+03 0.  0.
    9000005    1    3    3    0    0  0.12426059372E+02  0.37150643945E+02  0.25941137712E+03  0.26235441653E+03  0.10000000000E+01 0.  0.
    9000005    1    3    3    0    0 -0.12426059372E+02 -0.37150643945E+02  0.20551379980E+02  0.44248576430E+02  0.10000000000E+01 0.  0.
<mgrwt>
<rscale>  0 0.12500500E+03</rscale>
<asrwt>0</asrwt>
<pdfrwt beam="1">  1        4 0.45120445E-01 0.12500500E+03</pdfrwt>
<pdfrwt beam="2">  1       -4 0.20492488E-02 0.12500500E+03</pdfrwt>
<totfact> 0.74769668E+03</totfact>
</mgrwt>
</event>
<event>
 5    1  0.3331626E-002  0.1249975E+03  0.7818608E-02  0.1235073E+00
         -4   -1    0    0    0  501 -0.00000000000E+00  0.00000000000E+00  0.16083184466E+03  0.16083685883E+03  0.12700000000E+01 0. -1.
          4   -1    0    0  501    0  0.00000000000E+00 -0.00000000000E+00 -0.24264821206E+02  0.24298033834E+02  0.12700000000E+01 0. -1.
         25    2    1    2    0    0  0.00000000000E+00  0.00000000000E+00  0.13656702346E+03  0.18513489266E+03  0.12499750632E+03 0.  0.
    9000005    1    3    3    0    0 -0.55244754068E+02  0.27193027180E+02  0.84073170084E+02  0.10421488141E+03  0.10000000000E+01 0.  0.
    9000005    1    3    3    0    0  0.55244754068E+02 -0.27193027180E+02  0.52493853373E+02  0.80920011253E+02  0.10000000000E+01 0.  0.
<mgrwt>
<rscale>  0 0.12499751E+03</rscale>
<asrwt>0</asrwt>
<pdfrwt beam="2">  1        4 0.37359901E-02 0.12499751E+03</pdfrwt>
<pdfrwt beam="1">  1       -4 0.24746300E-01 0.12499751E+03</pdfrwt>
<totfact> 0.92705968E+03</totfact>
</mgrwt>
</event>
<event>
 4    1  0.3331626E-002  0.1249298E+03  0.7818608E-02  0.1235179E+00
         -4   -1    0    0    0  501 -0.00000000000E+00  0.00000000000E+00  0.31300188084E+02  0.31325942509E+02  0.12700000000E+01 0.  1.
          4   -1    0    0  501    0  0.00000000000E+00 -0.00000000000E+00 -0.12457909708E+03  0.12458557030E+03  0.12700000000E+01 0.  1.
    9000005    1    1    2    0    0 -0.38161105802E+02 -0.32756821741E+02 -0.42017744270E+00  0.50303637201E+02  0.10000000000E+01 0.  0.
    9000005    1    1    2    0    0  0.38161105802E+02  0.32756821741E+02 -0.92858731549E+02  0.10560787561E+03  0.10000000000E+01 0.  0.
<mgrwt>
<rscale>  0 0.12492976E+03</rscale>
<asrwt>0</asrwt>
<pdfrwt beam="2">  1        4 0.19168494E-01 0.12492976E+03</pdfrwt>
<pdfrwt beam="1">  1       -4 0.48178927E-02 0.12492976E+03</pdfrwt>
<totfact> 0.98292024E+03</totfact>
</mgrwt>
</event>
<event>
 5    1  0.3331626E-002  0.1250034E+03  0.7818608E-02  0.1235064E+00
         -4   -1    0    0    0  501 -0.00000000000E+00  0.00000000000E+00  0.11580614956E+03  0.11581311315E+03  0.12700000000E+01 0. -1.
          4   -1    0    0  501    0  0.00000000000E+00 -0.00000000000E+00 -0.33712852846E+02  0.33736765509E+02  0.12700000000E+01 0. -1.
         25    2    1    2    0    0  0.00000000000E+00  0.00000000000E+00  0.82093296718E+02  0.14954987866E+03  0.12500342731E+03 0.  0.
    9000005    1    3    3    0    0 -0.20172323600E+02 -0.47438708541E+01  0.11158192207E+03  0.11349428304E+03  0.10000000000E+01 0.  0.
    9000005    1    3    3    0    0  0.20172323600E+02  0.47438708541E+01 -0.29488625351E+02  0.36055595616E+02  0.10000000000E+01 0.  0.
<mgrwt>
<rscale>  0 0.12500343E+03</rscale>
<asrwt>0</asrwt>
<pdfrwt beam="2">  1        4 0.51889677E-02 0.12500343E+03</pdfrwt>
<pdfrwt beam="1">  1       -4 0.17818706E-01 0.12500343E+03</pdfrwt>
<totfact> 0.99385831E+03</totfact>
</mgrwt>
</event>
<event>
 5    1  0.3331626E-002  0.1250017E+03  0.7818608E-02  0.1235067E+00
          4   -1    0    0  501    0  0.00000000000E+00  0.00000000000E+00  0.38858407255E+02  0.38879155268E+02  0.12700000000E+01 0. -1.
         -4   -1    0    0    0  501 -0.00000000000E+00 -0.00000000000E+00 -0.10047629097E+03  0.10048431692E+03  0.12700000000E+01 0. -1.
         25    2    1    2    0    0  0.00000000000E+00  0.00000000000E+00 -0.61617883716E+02  0.13936347219E+03  0.12500165514E+03 0.  0.
    9000005    1    3    3    0    0 -0.25635619779E+02 -0.55187948459E+02 -0.14945350527E+02  0.62667839909E+02  0.10000000000E+01 0.  0.
    9000005    1    3    3    0    0  0.25635619779E+02  0.55187948459E+02 -0.46672533189E+02  0.76695632280E+02  0.10000000000E+01 0.  0.
<mgrwt>
<rscale>  0 0.12500166E+03</rscale>
<asrwt>0</asrwt>
<pdfrwt beam="1">  1        4 0.59804299E-02 0.12500166E+03</pdfrwt>
<pdfrwt beam="2">  1       -4 0.15460104E-01 0.12500166E+03</pdfrwt>
<totfact> 0.10146417E+04</totfact>
</mgrwt>
</event>
<event>
 5    1  0.3331626E-002  0.1249988E+03  0.7818608E-02  0.1235071E+00
         -4   -1    0    0    0  501 -0.00000000000E+00  0.00000000000E+00  0.36877425993E+03  0.36877644676E+03  0.12700000000E+01 0. -1.
          4   -1    0    0  501    0  0.00000000000E+00 -0.00000000000E+00 -0.10552032961E+02  0.10628184210E+02  0.12700000000E+01 0. -1.
         25    2    1    2    0    0  0.00000000000E+00  0.00000000000E+00  0.35822222697E+03  0.37940463097E+03  0.12499884043E+03 0.  0.
    9000005    1    3    3    0    0 -0.41515237228E+02  0.46691693457E+02  0.17533422969E+03  0.18613629753E+03  0.10000000000E+01 0.  0.
    9000005    1    3    3    0    0  0.41515237228E+02 -0.46691693457E+02  0.18288799728E+03  0.19326833344E+03  0.10000000000E+01 0.  0.
<mgrwt>
<rscale>  0 0.12499884E+03</rscale>
<asrwt>0</asrwt>
<pdfrwt beam="2">  1        4 0.16294159E-02 0.12499884E+03</pdfrwt>
<pdfrwt beam="1">  1       -4 0.56740520E-01 0.12499884E+03</pdfrwt>
<totfact> 0.66608090E+03</totfact>
</mgrwt>
</event>
<event>
 5    1  0.3331626E-002  0.1249984E+03  0.7818608E-02  0.1235072E+00
         -4   -1    0    0    0  501 -0.00000000000E+00  0.00000000000E+00  0.35493652585E+03  0.35493879793E+03  0.12700000000E+01 0. -1.
          4   -1    0    0  501    0  0.00000000000E+00 -0.00000000000E+00 -0.10966247043E+02  0.11039541394E+02  0.12700000000E+01 0. -1.
         25    2    1    2    0    0  0.00000000000E+00  0.00000000000E+00  0.34397027880E+03  0.36597833933E+03  0.12499836862E+03 0.  0.
    9000005    1    3    3    0    0  0.12252406261E+02  0.39990881143E+02  0.36044020710E+02  0.55222852721E+02  0.10000000000E+01 0.  0.
    9000005    1    3    3    0    0 -0.12252406261E+02 -0.39990881143E+02  0.30792625809E+03  0.31075548661E+03  0.10000000000E+01 0.  0.
<mgrwt>
<rscale>  0 0.12499837E+03</rscale>
<asrwt>0</asrwt>
<pdfrwt beam="2">  1        4 0.16929280E-02 0.12499837E+03</pdfrwt>
<pdfrwt beam="1">  1       -4 0.54611424E-01 0.12499837E+03</pdfrwt>
<totfact> 0.68004244E+03</totfact>
</mgrwt>
</event>
<event>
 5    1  0.3331626E-002  0.1250019E+03  0.7818608E-02  0.1235066E+00
          4   -1    0    0  501    0  0.00000000000E+00  0.00000000000E+00  0.14334765145E+03  0.14335327717E+03  0.12700000000E+01 0. -1.
         -4   -1    0    0    0  501 -0.00000000000E+00 -0.00000000000E+00 -0.27230056129E+02  0.27259656212E+02  0.12700000000E+01 0. -1.
         25    2    1    2    0    0  0.00000000000E+00  0.00000000000E+00  0.11611759532E+03  0.17061293338E+03  0.12500190836E+03 0.  0.
    9000005    1    3    3    0    0 -0.44333387918E+01  0.27433500570E+02  0.13445709338E+03  0.13730244501E+03  0.10000000000E+01 0.  0.
    9000005    1    3    3    0    0  0.44333387918E+01 -0.27433500570E+02 -0.18339498061E+02  0.33310488370E+02  0.10000000000E+01 0.  0.
<mgrwt>
<rscale>  0 0.12500191E+03</rscale>
<asrwt>0</asrwt>
<pdfrwt beam="1">  1        4 0.22056194E-01 0.12500191E+03</pdfrwt>
<pdfrwt beam="2">  1       -4 0.41919492E-02 0.12500191E+03</pdfrwt>
<totfact> 0.95330434E+03</totfact>
</mgrwt>
</event>
<event>
 5    1  0.3331626E-002  0.1250043E+03  0.7818608E-02  0.1235062E+00
         -4   -1    0    0    0  501 -0.00000000000E+00  0.00000000000E+00  0.52291364863E+01  0.53811493561E+01  0.12700000000E+01 0.  1.
          4   -1    0    0  501    0  0.00000000000E+00 -0.00000000000E+00 -0.73621247365E+03  0.73621356905E+03  0.12700000000E+01 0.  1.
         25    2    1    2    0    0  0.00000000000E+00  0.00000000000E+00 -0.73098333716E+03  0.74159471841E+03  0.12500434857E+03 0.  0.
    9000005    1    3    3    0    0 -0.77428657065E+01 -0.61927933911E+02 -0.38471608500E+03  0.38974669597E+03  0.10000000000E+01 0.  0.
    9000005    1    3    3    0    0  0.77428657065E+01  0.61927933911E+02 -0.34626725217E+03  0.35184802243E+03  0.10000000000E+01 0.  0.
<mgrwt>
<rscale>  0 0.12500435E+03</rscale>
<asrwt>0</asrwt>
<pdfrwt beam="2">  1        4 0.11327515E+00 0.12500435E+03</pdfrwt>
<pdfrwt beam="1">  1       -4 0.81626068E-03 0.12500435E+03</pdfrwt>
<totfact> 0.40975552E+03</totfact>
</mgrwt>
</event>
<event>
 5    1  0.3331626E-002  0.1249975E+03  0.7818608E-02  0.1235073E+00
          4   -1    0    0  501    0  0.00000000000E+00  0.00000000000E+00  0.47247874301E+02  0.47264939712E+02  0.12700000000E+01 0. -1.
         -4   -1    0    0    0  501 -0.00000000000E+00 -0.00000000000E+00 -0.82635454111E+02  0.82645212663E+02  0.12700000000E+01 0. -1.
         25    2    1    2    0    0  0.00000000000E+00  0.00000000000E+00 -0.35387579809E+02  0.12991015238E+03  0.12499746752E+03 0.  0.
    9000005    1    3    3    0    0 -0.49223068339E+02  0.28583225420E+02  0.91109519512E+01  0.57653453302E+02  0.10000000000E+01 0.  0.
    9000005    1    3    3    0    0  0.49223068339E+02 -0.28583225420E+02 -0.44498531761E+02  0.72256699074E+02  0.10000000000E+01 0.  0.
<mgrwt>
<rscale>  0 0.12499747E+03</rscale>
<asrwt>0</asrwt>
<pdfrwt beam="1">  1        4 0.72709671E-02 0.12499747E+03</pdfrwt>
<pdfrwt beam="2">  1       -4 0.12715210E-01 0.12499747E+03</pdfrwt>
<totfact> 0.10347021E+04</totfact>
</mgrwt>
</event>
<event>
 5    1  0.3331626E-002  0.1250014E+03  0.7818608E-02  0.1235067E+00
          4   -1    0    0  501    0  0.00000000000E+00  0.00000000000E+00  0.26096988461E+02  0.26127872220E+02  0.12700000000E+01 0. -1.
         -4   -1    0    0    0  501 -0.00000000000E+00 -0.00000000000E+00 -0.14956336222E+03  0.14956875415E+03  0.12700000000E+01 0. -1.
         25    2    1    2    0    0  0.00000000000E+00  0.00000000000E+00 -0.12346637375E+03  0.17569662637E+03  0.12500143627E+03 0.  0.
    9000005    1    3    3    0    0 -0.29414041647E+02  0.28071973357E+01 -0.13913169850E+03  0.14223816552E+03  0.10000000000E+01 0.  0.
    9000005    1    3    3    0    0  0.29414041647E+02 -0.28071973357E+01  0.15665324746E+02  0.33458460847E+02  0.10000000000E+01 0.  0.
<mgrwt>
<rscale>  0 0.12500144E+03</rscale>
<asrwt>0</asrwt>
<pdfrwt beam="1">  1        4 0.40177118E-02 0.12500144E+03</pdfrwt>
<pdfrwt beam="2">  1       -4 0.23012538E-01 0.12500144E+03</pdfrwt>
<totfact> 0.94394369E+03</totfact>
</mgrwt>
</event>
<event>
 5    1  0.3331626E-002  0.1250044E+03  0.7818608E-02  0.1235062E+00
         -4   -1    0    0    0  501 -0.00000000000E+00  0.00000000000E+00  0.49190617436E+03  0.49190781379E+03  0.12700000000E+01 0.  1.
          4   -1    0    0  501    0  0.00000000000E+00 -0.00000000000E+00 -0.78891678182E+01  0.79907364407E+01  0.12700000000E+01 0.  1.
         25    2    1    2    0    0  0.00000000000E+00  0.00000000000E+00  0.48401700654E+03  0.49989855023E+03  0.12500439155E+03 0.  0.
    9000005    1    3    3    0    0 -0.36836110866E+02 -0.31110292154E+02  0.40100650080E+03  0.40389598045E+03  0.10000000000E+01 0.  0.
    9000005    1    3    3    0    0  0.36836110866E+02  0.31110292154E+02  0.83010505741E+02  0.96002569783E+02  0.10000000000E+01 0.  0.
<mgrwt>
<rscale>  0 0.12500439E+03</rscale>
<asrwt>0</asrwt>
<pdfrwt beam="2">  1        4 0.12216573E-02 0.12500439E+03</pdfrwt>
<pdfrwt beam="1">  1       -4 0.75685807E-01 0.12500439E+03</pdfrwt>
<totfact> 0.55866845E+03</totfact>
</mgrwt>
</event>
<event>
 5    1  0.3331626E-002  0.1249985E+03  0.7818608E-02  0.1235072E+00
         -4   -1    0    0    0  501 -0.00000000000E+00  0.00000000000E+00  0.43283761076E+03  0.43283947393E+03  0.12700000000E+01 0.  1.
          4   -1    0    0  501    0  0.00000000000E+00 -0.00000000000E+00 -0.89779526836E+01  0.90673333670E+01  0.12700000000E+01 0.  1.
         25    2    1    2    0    0  0.00000000000E+00  0.00000000000E+00  0.42385965808E+03  0.44190680730E+03  0.12499846634E+03 0.  0.
    9000005    1    3    3    0    0  0.48361600763E+02 -0.96527719794E+01  0.34761959432E+03  0.35110169865E+03  0.10000000000E+01 0.  0.
    9000005    1    3    3    0    0 -0.48361600763E+02  0.96527719794E+01  0.76240063756E+02  0.90805108649E+02  0.10000000000E+01 0.  0.
<mgrwt>
<rscale>  0 0.12499847E+03</rscale>
<asrwt>0</asrwt>
<pdfrwt beam="2">  1        4 0.13882422E-02 0.12499847E+03</pdfrwt>
<pdfrwt beam="1">  1       -4 0.66597421E-01 0.12499847E+03</pdfrwt>
<totfact> 0.60673392E+03</totfact>
</mgrwt>
</event>
<event>
 5    1  0.3331626E-002  0.1250006E+03  0.7818608E-02  0.1235068E+00
         -4   -1    0    0    0  501 -0.00000000000E+00  0.00000000000E+00  0.15571895871E+02  0.15623598850E+02  0.12700000000E+01 0. -1.
          4   -1    0    0  501    0  0.00000000000E+00 -0.00000000000E+00 -0.25038583417E+03  0.25038905498E+03  0.12700000000E+01 0. -1.
         25    2    1    2    0    0  0.00000000000E+00  0.00000000000E+00 -0.23481393830E+03  0.26601265383E+03  0.12500058551E+03 0.  0.
    9000005    1    3    3    0    0 -0.45679820635E+02  0.40535548249E+02 -0.89213983554E+02  0.10811989431E+03  0.10000000000E+01 0.  0.
    9000005    1    3    3    0    0  0.45679820635E+02 -0.40535548249E+02 -0.14559995474E+03  0.15789275951E+03  0.10000000000E+01 0.  0.
<mgrwt>
<rscale>  0 0.12500059E+03</rscale>
<asrwt>0</asrwt>
<pdfrwt beam="2">  1        4 0.38525120E-01 0.12500059E+03</pdfrwt>
<pdfrwt beam="1">  1       -4 0.23999014E-02 0.12500059E+03</pdfrwt>
<totfact> 0.80068564E+03</totfact>
</mgrwt>
</event>
<event>
 5    1  0.3331626E-002  0.1250019E+03  0.7818608E-02  0.1235066E+00
          4   -1    0    0  501    0  0.00000000000E+00  0.00000000000E+00  0.60982811298E+02  0.60996034083E+02  0.12700000000E+01 0.  1.
         -4   -1    0    0    0  501 -0.00000000000E+00 -0.00000000000E+00 -0.64030434917E+02  0.64043028470E+02  0.12700000000E+01 0.  1.
         25    2    1    2    0    0  0.00000000000E+00  0.00000000000E+00 -0.30476236185E+01  0.12503906255E+03  0.12500191660E+03 0.  0.
    9000005    1    3    3    0    0 -0.39412358418E+02 -0.45176468259E+02 -0.19167718514E+02  0.62949572783E+02  0.10000000000E+01 0.  0.
    9000005    1    3    3    0    0  0.39412358418E+02  0.45176468259E+02  0.16120094896E+02  0.62089489770E+02  0.10000000000E+01 0.  0.
<mgrwt>
<rscale>  0 0.12500192E+03</rscale>
<asrwt>0</asrwt>
<pdfrwt beam="1">  1        4 0.93839567E-02 0.12500192E+03</pdfrwt>
<pdfrwt beam="2">  1       -4 0.98528221E-02 0.12500192E+03</pdfrwt>
<totfact> 0.10451561E+04</totfact>
</mgrwt>
</event>
<event>
 5    1  0.3331626E-002  0.1249927E+03  0.7818608E-02  0.1235081E+00
         -4   -1    0    0    0  501 -0.00000000000E+00  0.00000000000E+00  0.68814076881E+01  0.69976190072E+01  0.12700000000E+01 0.  1.
          4   -1    0    0  501    0  0.00000000000E+00 -0.00000000000E+00 -0.56271731163E+03  0.56271874477E+03  0.12700000000E+01 0.  1.
         25    2    1    2    0    0  0.00000000000E+00  0.00000000000E+00 -0.55583590394E+03  0.56971636377E+03  0.12499273194E+03 0.  0.
    9000005    1    3    3    0    0 -0.48979984690E+00 -0.56161821949E+02 -0.40277756068E+03  0.40667573512E+03  0.10000000000E+01 0.  0.
    9000005    1    3    3    0    0  0.48979984690E+00  0.56161821949E+02 -0.15305834326E+03  0.16304062865E+03  0.10000000000E+01 0.  0.
<mgrwt>
<rscale>  0 0.12499273E+03</rscale>
<asrwt>0</asrwt>
<pdfrwt beam="2">  1        4 0.86580908E-01 0.12499273E+03</pdfrwt>
<pdfrwt beam="1">  1       -4 0.10677281E-02 0.12499273E+03</pdfrwt>
<totfact> 0.50844876E+03</totfact>
</mgrwt>
</event>
<event>
 5    1  0.3331626E-002  0.1249563E+03  0.7818608E-02  0.1235138E+00
          4   -1    0    0  501    0  0.00000000000E+00  0.00000000000E+00  0.78111284284E+03  0.78111387527E+03  0.12700000000E+01 0. -1.
         -4   -1    0    0    0  501 -0.00000000000E+00 -0.00000000000E+00 -0.49156425080E+01  0.50770504495E+01  0.12700000000E+01 0. -1.
         25    2    1    2    0    0  0.00000000000E+00  0.00000000000E+00  0.77619720033E+03  0.78619092572E+03  0.12495630393E+03 0.  0.
    9000005    1    3    3    0    0  0.38364690878E+02  0.33258505921E+02  0.15911589479E+03  0.16702348846E+03  0.10000000000E+01 0.  0.
    9000005    1    3    3    0    0 -0.38364690878E+02 -0.33258505921E+02  0.61708130554E+03  0.61916743726E+03  0.10000000000E+01 0.  0.
<mgrwt>
<rscale>  0 0.12495630E+03</rscale>
<asrwt>0</asrwt>
<pdfrwt beam="1">  1        4 0.12018366E+00 0.12495630E+03</pdfrwt>
<pdfrwt beam="2">  1       -4 0.76874835E-03 0.12495630E+03</pdfrwt>
<totfact> 0.38925849E+03</totfact>
</mgrwt>
</event>
<event>
 5    1  0.3331626E-002  0.1250037E+03  0.7818608E-02  0.1235064E+00
          4   -1    0    0  501    0  0.00000000000E+00  0.00000000000E+00  0.62421931692E+02  0.62434849693E+02  0.12700000000E+01 0. -1.
         -4   -1    0    0    0  501 -0.00000000000E+00 -0.00000000000E+00 -0.62556004232E+02  0.62568894552E+02  0.12700000000E+01 0. -1.
         25    2    1    2    0    0  0.00000000000E+00  0.00000000000E+00 -0.13407253986E+00  0.12500374425E+03  0.12500367235E+03 0.  0.
    9000005    1    3    3    0    0 -0.68213743106E+00 -0.20225565628E+01 -0.62524445485E+02  0.62568860704E+02  0.10000000000E+01 0.  0.
    9000005    1    3    3    0    0  0.68213743106E+00  0.20225565628E+01  0.62390372946E+02  0.62434883541E+02  0.10000000000E+01 0.  0.
<mgrwt>
<rscale>  0 0.12500367E+03</rscale>
<asrwt>0</asrwt>
<pdfrwt beam="1">  1        4 0.96053594E-02 0.12500367E+03</pdfrwt>
<pdfrwt beam="2">  1       -4 0.96259859E-02 0.12500367E+03</pdfrwt>
<totfact> 0.10451914E+04</totfact>
</mgrwt>
</event>
<event>
 5    1  0.3331626E-002  0.1249787E+03  0.7818608E-02  0.1235103E+00
         -4   -1    0    0    0  501 -0.00000000000E+00  0.00000000000E+00  0.57938318955E+03  0.57938458146E+03  0.12700000000E+01 0.  1.
          4   -1    0    0  501    0  0.00000000000E+00 -0.00000000000E+00 -0.66785434140E+01  0.67982234542E+01  0.12700000000E+01 0.  1.
         25    2    1    2    0    0  0.00000000000E+00  0.00000000000E+00  0.57270464614E+03  0.58618280492E+03  0.12497867446E+03 0.  0.
    9000005    1    3    3    0    0  0.54190653881E+02 -0.30617266863E+02  0.26071701512E+03  0.26804552966E+03  0.10000000000E+01 0.  0.
    9000005    1    3    3    0    0 -0.54190653881E+02  0.30617266863E+02  0.31198763102E+03  0.31813727526E+03  0.10000000000E+01 0.  0.
<mgrwt>
<rscale>  0 0.12497867E+03</rscale>
<asrwt>0</asrwt>
<pdfrwt beam="2">  1        4 0.10367816E-02 0.12497867E+03</pdfrwt>
<pdfrwt beam="1">  1       -4 0.89145172E-01 0.12497867E+03</pdfrwt>
<totfact> 0.49774857E+03</totfact>
</mgrwt>
</event>
<event>
 5    1  0.3331626E-002  0.1250043E+03  0.7818608E-02  0.1235063E+00
         -4   -1    0    0    0  501 -0.00000000000E+00  0.00000000000E+00  0.10343391771E+04  0.10343399568E+04  0.12700000000E+01 0. -1.
          4   -1    0    0  501    0  0.00000000000E+00 -0.00000000000E+00 -0.36692581686E+01  0.38828282872E+01  0.12700000000E+01 0. -1.
         25    2    1    2    0    0  0.00000000000E+00  0.00000000000E+00  0.10306699190E+04  0.10382227851E+04  0.12500427847E+03 0.  0.
    9000005    1    3    3    0    0  0.47727832793E+02 -0.39623067889E+02  0.45230948437E+03  0.45654441535E+03  0.10000000000E+01 0.  0.
    9000005    1    3    3    0    0 -0.47727832793E+02  0.39623067889E+02  0.57836043460E+03  0.58167836976E+03  0.10000000000E+01 0.  0.
<mgrwt>
<rscale>  0 0.12500428E+03</rscale>
<asrwt>0</asrwt>
<pdfrwt beam="2">  1        4 0.58098999E-03 0.12500428E+03</pdfrwt>
<pdfrwt beam="1">  1       -4 0.15914551E+00 0.12500428E+03</pdfrwt>
<totfact> 0.29362641E+03</totfact>
</mgrwt>
</event>
<event>
 5    1  0.3331626E-002  0.1249989E+03  0.7818608E-02  0.1235071E+00
         -4   -1    0    0    0  501 -0.00000000000E+00  0.00000000000E+00  0.15528016810E+03  0.15528536153E+03  0.12700000000E+01 0.  1.
          4   -1    0    0  501    0  0.00000000000E+00 -0.00000000000E+00 -0.25134056583E+02  0.25166122075E+02  0.12700000000E+01 0.  1.
         25    2    1    2    0    0  0.00000000000E+00  0.00000000000E+00  0.13014611152E+03  0.18045148361E+03  0.12499891036E+03 0.  0.
    9000005    1    3    3    0    0 -0.12335499462E+01  0.44629583417E+01  0.15503926671E+03  0.15511161743E+03  0.10000000000E+01 0.  0.
    9000005    1    3    3    0    0  0.12335499462E+01 -0.44629583417E+01 -0.24893155185E+02  0.25339866173E+02  0.10000000000E+01 0.  0.
<mgrwt>
<rscale>  0 0.12499891E+03</rscale>
<asrwt>0</asrwt>
<pdfrwt beam="2">  1        4 0.38696440E-02 0.12499891E+03</pdfrwt>
<pdfrwt beam="1">  1       -4 0.23892123E-01 0.12499891E+03</pdfrwt>
<totfact> 0.93538083E+03</totfact>
</mgrwt>
</event>
<event>
 5    1  0.3331626E-002  0.1250057E+03  0.7818608E-02  0.1235060E+00
         -4   -1    0    0    0  501 -0.00000000000E+00  0.00000000000E+00  0.14550614270E+04  0.14550619812E+04  0.12700000000E+01 0.  1.
          4   -1    0    0  501    0  0.00000000000E+00 -0.00000000000E+00 -0.25340664257E+01  0.28345004233E+01  0.12700000000E+01 0.  1.
         25    2    1    2    0    0  0.00000000000E+00  0.00000000000E+00  0.14525273605E+04  0.14578964816E+04  0.12500567196E+03 0.  0.
    9000005    1    3    3    0    0 -0.95297263733E+01  0.54375439573E+02  0.38462579960E+03  0.38856853942E+03  0.10000000000E+01 0.  0.
    9000005    1    3    3    0    0  0.95297263733E+01 -0.54375439573E+02  0.10679015610E+04  0.10693279422E+04  0.10000000000E+01 0.  0.
<mgrwt>
<rscale>  0 0.12500567E+03</rscale>
<asrwt>0</asrwt>
<pdfrwt beam="2">  1        4 0.41300821E-03 0.12500567E+03</pdfrwt>
<pdfrwt beam="1">  1       -4 0.22387935E+00 0.12500567E+03</pdfrwt>
<totfact> 0.18769172E+03</totfact>
</mgrwt>
</event>
<event>
 4    1  0.3331626E-002  0.1151542E+03  0.7818608E-02  0.1251312E+00
          4   -1    0    0  501    0  0.00000000000E+00  0.00000000000E+00  0.82772653797E+02  0.82782396176E+02  0.12700000000E+01 0. -1.
         -4   -1    0    0    0  501 -0.00000000000E+00 -0.00000000000E+00 -0.40028786436E+02  0.40048928120E+02  0.12700000000E+01 0. -1.
    9000005    1    1    2    0    0 -0.16750263082E+02  0.55062685127E+02  0.22743504868E+02  0.61892952914E+02  0.10000000000E+01 0.  0.
    9000005    1    1    2    0    0  0.16750263082E+02 -0.55062685127E+02  0.20000362493E+02  0.60938371381E+02  0.10000000000E+01 0.  0.
<mgrwt>
<rscale>  0 0.11515423E+03</rscale>
<asrwt>0</asrwt>
<pdfrwt beam="1">  1        4 0.12736553E-01 0.11515423E+03</pdfrwt>
<pdfrwt beam="2">  1       -4 0.61605736E-02 0.11515423E+03</pdfrwt>
<totfact> 0.13223066E+04</totfact>
</mgrwt>
</event>
<event>
 5    1  0.3331626E-002  0.1250025E+03  0.7818608E-02  0.1235065E+00
          4   -1    0    0  501    0  0.00000000000E+00  0.00000000000E+00  0.11556274749E+02  0.11625849907E+02  0.12700000000E+01 0. -1.
         -4   -1    0    0    0  501 -0.00000000000E+00 -0.00000000000E+00 -0.33694818972E+03  0.33695058310E+03  0.12700000000E+01 0. -1.
         25    2    1    2    0    0  0.00000000000E+00  0.00000000000E+00 -0.32539191497E+03  0.34857643301E+03  0.12500252527E+03 0.  0.
    9000005    1    3    3    0    0  0.39936250863E+02  0.47987573232E+02 -0.17043213176E+03  0.18150984231E+03  0.10000000000E+01 0.  0.
    9000005    1    3    3    0    0 -0.39936250863E+02 -0.47987573232E+02 -0.15495978321E+03  0.16706659070E+03  0.10000000000E+01 0.  0.
<mgrwt>
<rscale>  0 0.12500253E+03</rscale>
<asrwt>0</asrwt>
<pdfrwt beam="1">  1        4 0.17834247E-02 0.12500253E+03</pdfrwt>
<pdfrwt beam="2">  1       -4 0.51843712E-01 0.12500253E+03</pdfrwt>
<totfact> 0.69877548E+03</totfact>
</mgrwt>
</event>
<event>
 5    1  0.3331626E-002  0.1249888E+03  0.7818608E-02  0.1235087E+00
          4   -1    0    0  501    0  0.00000000000E+00  0.00000000000E+00  0.33104549777E+03  0.33104793383E+03  0.12700000000E+01 0. -1.
         -4   -1    0    0    0  501 -0.00000000000E+00 -0.00000000000E+00 -0.11760949077E+02  0.11829320487E+02  0.12700000000E+01 0. -1.
         25    2    1    2    0    0  0.00000000000E+00  0.00000000000E+00  0.31928454870E+03  0.34287725432E+03  0.12498875347E+03 0.  0.
    9000005    1    3    3    0    0 -0.51976560735E+02  0.23391725051E+02  0.22989403919E+03  0.23685650703E+03  0.10000000000E+01 0.  0.
    9000005    1    3    3    0    0  0.51976560735E+02 -0.23391725051E+02  0.89390509511E+02  0.10602074730E+03  0.10000000000E+01 0.  0.
<mgrwt>
<rscale>  0 0.12498875E+03</rscale>
<asrwt>0</asrwt>
<pdfrwt beam="1">  1        4 0.50935524E-01 0.12498875E+03</pdfrwt>
<pdfrwt beam="2">  1       -4 0.18148235E-02 0.12498875E+03</pdfrwt>
<totfact> 0.70532877E+03</totfact>
</mgrwt>
</event>
<event>
 5    1  0.3331626E-002  0.1250000E+03  0.7818608E-02  0.1235069E+00
         -4   -1    0    0    0  501 -0.00000000000E+00  0.00000000000E+00  0.18544684381E+01  0.22476550420E+01  0.12700000000E+01 0. -1.
          4   -1    0    0  501    0  0.00000000000E+00 -0.00000000000E+00 -0.19041090216E+04  0.19041094452E+04  0.12700000000E+01 0. -1.
         25    2    1    2    0    0  0.00000000000E+00  0.00000000000E+00 -0.19022545532E+04  0.19063571002E+04  0.12500003343E+03 0.  0.
    9000005    1    3    3    0    0  0.76753700677E+01  0.61257577983E+02 -0.10988716967E+04  0.11006050190E+04  0.10000000000E+01 0.  0.
    9000005    1    3    3    0    0 -0.76753700677E+01 -0.61257577983E+02 -0.80338285652E+03  0.80575208117E+03  0.10000000000E+01 0.  0.
<mgrwt>
<rscale>  0 0.12500003E+03</rscale>
<asrwt>0</asrwt>
<pdfrwt beam="2">  1        4 0.29296871E+00 0.12500003E+03</pdfrwt>
<pdfrwt beam="1">  1       -4 0.31558206E-03 0.12500003E+03</pdfrwt>
<totfact> 0.11133539E+03</totfact>
</mgrwt>
</event>
<event>
 5    1  0.3331626E-002  0.1249993E+03  0.7818608E-02  0.1235070E+00
          4   -1    0    0  501    0  0.00000000000E+00  0.00000000000E+00  0.35509769047E+02  0.35532472441E+02  0.12700000000E+01 0.  1.
         -4   -1    0    0    0  501 -0.00000000000E+00 -0.00000000000E+00 -0.10994219049E+03  0.10994952546E+03  0.12700000000E+01 0.  1.
         25    2    1    2    0    0  0.00000000000E+00  0.00000000000E+00 -0.74432421441E+02  0.14548199790E+03  0.12499930541E+03 0.  0.
    9000005    1    3    3    0    0  0.34018102172E+02  0.32482982516E+02 -0.85102201662E+02  0.97240733009E+02  0.10000000000E+01 0.  0.
    9000005    1    3    3    0    0 -0.34018102172E+02 -0.32482982516E+02  0.10669780221E+02  0.48241264893E+02  0.10000000000E+01 0.  0.
<mgrwt>
<rscale>  0 0.12499931E+03</rscale>
<asrwt>0</asrwt>
<pdfrwt beam="1">  1        4 0.54653521E-02 0.12499931E+03</pdfrwt>
<pdfrwt beam="2">  1       -4 0.16916494E-01 0.12499931E+03</pdfrwt>
<totfact> 0.10021361E+04</totfact>
</mgrwt>
</event>
<event>
 5    1  0.3331626E-002  0.1250028E+03  0.7818608E-02  0.1235065E+00
          4   -1    0    0  501    0  0.00000000000E+00  0.00000000000E+00  0.90602306362E+01  0.91488075279E+01  0.12700000000E+01 0.  1.
         -4   -1    0    0    0  501 -0.00000000000E+00 -0.00000000000E+00 -0.42897481542E+03  0.42897669537E+03  0.12700000000E+01 0.  1.
         25    2    1    2    0    0  0.00000000000E+00  0.00000000000E+00 -0.41991458479E+03  0.43812550289E+03  0.12500279105E+03 0.  0.
    9000005    1    3    3    0    0 -0.58768787877E+02  0.19682375712E+02 -0.23805318048E+03  0.24599081910E+03  0.10000000000E+01 0.  0.
    9000005    1    3    3    0    0  0.58768787877E+02 -0.19682375712E+02 -0.18186140430E+03  0.19213468380E+03  0.10000000000E+01 0.  0.
<mgrwt>
<rscale>  0 0.12500279E+03</rscale>
<asrwt>0</asrwt>
<pdfrwt beam="1">  1        4 0.14008402E-02 0.12500279E+03</pdfrwt>
<pdfrwt beam="2">  1       -4 0.66003068E-01 0.12500279E+03</pdfrwt>
<totfact> 0.61002562E+03</totfact>
</mgrwt>
</event>
<event>
 5    1  0.3331626E-002  0.1250000E+03  0.7818608E-02  0.1235069E+00
          4   -1    0    0  501    0  0.00000000000E+00  0.00000000000E+00  0.48629643791E+03  0.48629809625E+03  0.12700000000E+01 0. -1.
         -4   -1    0    0    0  501 -0.00000000000E+00 -0.00000000000E+00 -0.79807764887E+01  0.80811938080E+01  0.12700000000E+01 0. -1.
         25    2    1    2    0    0  0.00000000000E+00  0.00000000000E+00  0.47831566142E+03  0.49437929006E+03  0.12500004194E+03 0.  0.
    9000005    1    3    3    0    0 -0.59562879389E+02  0.82824300501E+01  0.17193188210E+03  0.18214803686E+03  0.10000000000E+01 0.  0.
    9000005    1    3    3    0    0  0.59562879389E+02 -0.82824300501E+01  0.30638377932E+03  0.31223125321E+03  0.10000000000E+01 0.  0.
<mgrwt>
<rscale>  0 0.12500004E+03</rscale>
<asrwt>0</asrwt>
<pdfrwt beam="1">  1        4 0.74822691E-01 0.12500004E+03</pdfrwt>
<pdfrwt beam="2">  1       -4 0.12356637E-02 0.12500004E+03</pdfrwt>
<totfact> 0.56303062E+03</totfact>
</mgrwt>
</event>
<event>
 5    1  0.3331626E-002  0.1250006E+03  0.7818608E-02  0.1235068E+00
          4   -1    0    0  501    0  0.00000000000E+00  0.00000000000E+00  0.98573238548E+02  0.98581419435E+02  0.12700000000E+01 0. -1.
         -4   -1    0    0    0  501 -0.00000000000E+00 -0.00000000000E+00 -0.39608248181E+02  0.39628603609E+02  0.12700000000E+01 0. -1.
         25    2    1    2    0    0  0.00000000000E+00  0.00000000000E+00  0.58964990366E+02  0.13821002304E+03  0.12500056152E+03 0.  0.
    9000005    1    3    3    0    0 -0.58039170630E+02 -0.11679401224E+02  0.73598334576E+01  0.59666748603E+02  0.10000000000E+01 0.  0.
    9000005    1    3    3    0    0  0.58039170630E+02  0.11679401224E+02  0.51605156909E+02  0.78543274441E+02  0.10000000000E+01 0.  0.
<mgrwt>
<rscale>  0 0.12500056E+03</rscale>
<asrwt>0</asrwt>
<pdfrwt beam="1">  1        4 0.15167309E-01 0.12500056E+03</pdfrwt>
<pdfrwt beam="2">  1       -4 0.60957718E-02 0.12500056E+03</pdfrwt>
<totfact> 0.10170691E+04</totfact>
</mgrwt>
</event>
<event>
 5    1  0.3331626E-002  0.1250033E+03  0.7818608E-02  0.1235064E+00
         -4   -1    0    0    0  501 -0.00000000000E+00  0.00000000000E+00  0.64297570654E+02  0.64310111896E+02  0.12700000000E+01 0. -1.
          4   -1    0    0  501    0  0.00000000000E+00 -0.00000000000E+00 -0.60730756991E+02  0.60744034643E+02  0.12700000000E+01 0. -1.
         25    2    1    2    0    0  0.00000000000E+00  0.00000000000E+00  0.35668136631E+01  0.12505414654E+03  0.12500326959E+03 0.  0.
    9000005    1    3    3    0    0  0.19406418271E+02  0.81330299150E+01  0.60652060216E+02  0.64206134085E+02  0.10000000000E+01 0.  0.
    9000005    1    3    3    0    0 -0.19406418271E+02 -0.81330299150E+01 -0.57085246553E+02  0.60848012455E+02  0.10000000000E+01 0.  0.
<mgrwt>
<rscale>  0 0.12500327E+03</rscale>
<asrwt>0</asrwt>
<pdfrwt beam="2">  1        4 0.93451794E-02 0.12500327E+03</pdfrwt>
<pdfrwt beam="1">  1       -4 0.98939200E-02 0.12500327E+03</pdfrwt>
<totfact> 0.10450914E+04</totfact>
</mgrwt>
</event>
<event>
 5    1  0.3331626E-002  0.1250025E+03  0.7818608E-02  0.1235065E+00
         -4   -1    0    0    0  501 -0.00000000000E+00  0.00000000000E+00  0.30242376868E+02  0.30269031346E+02  0.12700000000E+01 0. -1.
          4   -1    0    0  501    0  0.00000000000E+00 -0.00000000000E+00 -0.12908331386E+03  0.12908956123E+03  0.12700000000E+01 0. -1.
         25    2    1    2    0    0  0.00000000000E+00  0.00000000000E+00 -0.98840936993E+02  0.15935859257E+03  0.12500252078E+03 0.  0.
    9000005    1    3    3    0    0  0.48966720883E+02 -0.12790741399E+02 -0.26828254952E+01  0.50690633970E+02  0.10000000000E+01 0.  0.
    9000005    1    3    3    0    0 -0.48966720883E+02  0.12790741399E+02 -0.96158111498E+02  0.10866795860E+03  0.10000000000E+01 0.  0.
<mgrwt>
<rscale>  0 0.12500252E+03</rscale>
<asrwt>0</asrwt>
<pdfrwt beam="2">  1        4 0.19861502E-01 0.12500252E+03</pdfrwt>
<pdfrwt beam="1">  1       -4 0.46552044E-02 0.12500252E+03</pdfrwt>
<totfact> 0.97461063E+03</totfact>
</mgrwt>
</event>
<event>
 5    1  0.3331626E-002  0.1250013E+03  0.7818608E-02  0.1235067E+00
          4   -1    0    0  501    0  0.00000000000E+00  0.00000000000E+00  0.16218097119E+03  0.16218594365E+03  0.12700000000E+01 0. -1.
         -4   -1    0    0    0  501 -0.00000000000E+00 -0.00000000000E+00 -0.24064155107E+02  0.24097644304E+02  0.12700000000E+01 0. -1.
         25    2    1    2    0    0  0.00000000000E+00  0.00000000000E+00  0.13811681609E+03  0.18628358795E+03  0.12500128101E+03 0.  0.
    9000005    1    3    3    0    0 -0.48603642975E+02  0.23642749670E+02  0.11580669479E+03  0.12780252063E+03  0.10000000000E+01 0.  0.
    9000005    1    3    3    0    0  0.48603642975E+02 -0.23642749670E+02  0.22310121296E+02  0.58481067318E+02  0.10000000000E+01 0.  0.
<mgrwt>
<rscale>  0 0.12500128E+03</rscale>
<asrwt>0</asrwt>
<pdfrwt beam="1">  1        4 0.24953878E-01 0.12500128E+03</pdfrwt>
<pdfrwt beam="2">  1       -4 0.37051361E-02 0.12500128E+03</pdfrwt>
<totfact> 0.92495353E+03</totfact>
</mgrwt>
</event>
<event>
 5    1  0.3331626E-002  0.1250005E+03  0.7818608E-02  0.1235068E+00
          4   -1    0    0  501    0  0.00000000000E+00  0.00000000000E+00  0.59465802061E+02  0.59479362091E+02  0.12700000000E+01 0.  1.
         -4   -1    0    0    0  501 -0.00000000000E+00 -0.00000000000E+00 -0.65662354093E+02  0.65674634716E+02  0.12700000000E+01 0.  1.
         25    2    1    2    0    0  0.00000000000E+00  0.00000000000E+00 -0.61965520319E+01  0.12515399681E+03  0.12500050264E+03 0.  0.
    9000005    1    3    3    0    0  0.46011683771E+02  0.33885322899E+02 -0.28427389326E+02  0.63831078757E+02  0.10000000000E+01 0.  0.
    9000005    1    3    3    0    0 -0.46011683771E+02 -0.33885322899E+02  0.22230837295E+02  0.61322918050E+02  0.10000000000E+01 0.  0.
<mgrwt>
<rscale>  0 0.12500050E+03</rscale>
<asrwt>0</asrwt>
<pdfrwt beam="1">  1        4 0.91505727E-02 0.12500050E+03</pdfrwt>
<pdfrwt beam="2">  1       -4 0.10103888E-01 0.12500050E+03</pdfrwt>
<totfact> 0.10449400E+04</totfact>
</mgrwt>
</event>
<event>
 5    1  0.3331626E-002  0.1250011E+03  0.7818608E-02  0.1235068E+00
          4   -1    0    0  501    0  0.00000000000E+00  0.00000000000E+00  0.12886423150E+03  0.12887048949E+03  0.12700000000E+01 0.  1.
         -4   -1    0    0    0  501 -0.00000000000E+00 -0.00000000000E+00 -0.30293131080E+02  0.30319740940E+02  0.12700000000E+01 0.  1.
         25    2    1    2    0    0  0.00000000000E+00  0.00000000000E+00  0.98571100422E+02  0.15919023043E+03  0.12500107050E+03 0.  0.
    9000005    1    3    3    0    0 -0.24221343762E+02 -0.18014270483E+02 -0.20399235224E+02  0.36446072935E+02  0.10000000000E+01 0.  0.
    9000005    1    3    3    0    0  0.24221343762E+02  0.18014270483E+02  0.11897033565E+03  0.12274415749E+03  0.10000000000E+01 0.  0.
<mgrwt>
<rscale>  0 0.12500107E+03</rscale>
<asrwt>0</asrwt>
<pdfrwt beam="1">  1        4 0.19827795E-01 0.12500107E+03</pdfrwt>
<pdfrwt beam="2">  1       -4 0.46630100E-02 0.12500107E+03</pdfrwt>
<totfact> 0.97496783E+03</totfact>
</mgrwt>
</event>
<event>
 5    1  0.3331626E-002  0.1249979E+03  0.7818608E-02  0.1235073E+00
         -4   -1    0    0    0  501 -0.00000000000E+00  0.00000000000E+00  0.19153679076E+03  0.19154100113E+03  0.12700000000E+01 0.  1.
          4   -1    0    0  501    0  0.00000000000E+00 -0.00000000000E+00 -0.20369368328E+02  0.20408921237E+02  0.12700000000E+01 0.  1.
         25    2    1    2    0    0  0.00000000000E+00  0.00000000000E+00  0.17116742243E+03  0.21194992237E+03  0.12499793234E+03 0.  0.
    9000005    1    3    3    0    0 -0.30618172608E+02 -0.40832872157E+02  0.24439357287E+02  0.56595743012E+02  0.10000000000E+01 0.  0.
    9000005    1    3    3    0    0  0.30618172608E+02  0.40832872157E+02  0.14672806514E+03  0.15535417935E+03  0.10000000000E+01 0.  0.
<mgrwt>
<rscale>  0 0.12499793E+03</rscale>
<asrwt>0</asrwt>
<pdfrwt beam="2">  1        4 0.31371155E-02 0.12499793E+03</pdfrwt>
<pdfrwt beam="1">  1       -4 0.29470564E-01 0.12499793E+03</pdfrwt>
<totfact> 0.88162495E+03</totfact>
</mgrwt>
</event>
<event>
 5    1  0.3331626E-002  0.1249989E+03  0.7818608E-02  0.1235071E+00
         -4   -1    0    0    0  501 -0.00000000000E+00  0.00000000000E+00  0.21455108795E+03  0.21455484670E+03  0.12700000000E+01 0.  1.
          4   -1    0    0  501    0  0.00000000000E+00 -0.00000000000E+00 -0.18180230627E+02  0.18224535266E+02  0.12700000000E+01 0.  1.
         25    2    1    2    0    0  0.00000000000E+00  0.00000000000E+00  0.19637085733E+03  0.23277938197E+03  0.12499890824E+03 0.  0.
    9000005    1    3    3    0    0 -0.25929790112E+02  0.54274070492E+02  0.12974237612E+03  0.14301088386E+03  0.10000000000E+01 0.  0.
    9000005    1    3    3    0    0  0.25929790112E+02 -0.54274070492E+02  0.66628481212E+02  0.89768498103E+02  0.10000000000E+01 0.  0.
<mgrwt>
<rscale>  0 0.12499891E+03</rscale>
<asrwt>0</asrwt>
<pdfrwt beam="2">  1        4 0.28006557E-02 0.12499891E+03</pdfrwt>
<pdfrwt beam="1">  1       -4 0.33011558E-01 0.12499891E+03</pdfrwt>
<totfact> 0.84886705E+03</totfact>
</mgrwt>
</event>
<event>
 5    1  0.3331626E-002  0.1250009E+03  0.7818608E-02  0.1235068E+00
         -4   -1    0    0    0  501 -0.00000000000E+00  0.00000000000E+00  0.24025731710E+01  0.27175830884E+01  0.12700000000E+01 0. -1.
          4   -1    0    0  501    0  0.00000000000E+00 -0.00000000000E+00 -0.15255386418E+04  0.15255391705E+04  0.12700000000E+01 0. -1.
         25    2    1    2    0    0  0.00000000000E+00  0.00000000000E+00 -0.15231360687E+04  0.15282567536E+04  0.12500088450E+03 0.  0.
    9000005    1    3    3    0    0  0.26385460194E+02  0.34827662996E+01 -0.14528471055E+04  0.14530911995E+04  0.10000000000E+01 0.  0.
    9000005    1    3    3    0    0 -0.26385460194E+02 -0.34827662996E+01 -0.70288963192E+02  0.75165554061E+02  0.10000000000E+01 0.  0.
<mgrwt>
<rscale>  0 0.12500088E+03</rscale>
<asrwt>0</asrwt>
<pdfrwt beam="2">  1        4 0.23472180E+00 0.12500088E+03</pdfrwt>
<pdfrwt beam="1">  1       -4 0.39390006E-03 0.12500088E+03</pdfrwt>
<totfact> 0.17381339E+03</totfact>
</mgrwt>
</event>
<event>
 5    1  0.3331626E-002  0.1250041E+03  0.7818608E-02  0.1235063E+00
          4   -1    0    0  501    0  0.00000000000E+00  0.00000000000E+00  0.16501106576E+02  0.16549906895E+02  0.12700000000E+01 0. -1.
         -4   -1    0    0    0  501 -0.00000000000E+00 -0.00000000000E+00 -0.23634184989E+03  0.23634526208E+03  0.12700000000E+01 0. -1.
         25    2    1    2    0    0  0.00000000000E+00  0.00000000000E+00 -0.21984074331E+03  0.25289516898E+03  0.12500405622E+03 0.  0.
    9000005    1    3    3    0    0 -0.39404029731E+02 -0.10527882426E+02 -0.20571325141E+03  0.20971994582E+03  0.10000000000E+01 0.  0.
    9000005    1    3    3    0    0  0.39404029731E+02  0.10527882426E+02 -0.14127491900E+02  0.43175223159E+02  0.10000000000E+01 0.  0.
<mgrwt>
<rscale>  0 0.12500406E+03</rscale>
<asrwt>0</asrwt>
<pdfrwt beam="1">  1        4 0.25426483E-02 0.12500406E+03</pdfrwt>
<pdfrwt beam="2">  1       -4 0.36364298E-01 0.12500406E+03</pdfrwt>
<totfact> 0.81906180E+03</totfact>
</mgrwt>
</event>
<event>
 5    1  0.3331626E-002  0.1250001E+03  0.7818608E-02  0.1235069E+00
         -4   -1    0    0    0  501 -0.00000000000E+00  0.00000000000E+00  0.66428139586E+02  0.66440278663E+02  0.12700000000E+01 0. -1.
          4   -1    0    0  501    0  0.00000000000E+00 -0.00000000000E+00 -0.58779903745E+02  0.58793621969E+02  0.12700000000E+01 0. -1.
         25    2    1    2    0    0  0.00000000000E+00  0.00000000000E+00  0.76482358410E+01  0.12523390063E+03  0.12500013742E+03 0.  0.
    9000005    1    3    3    0    0 -0.20412678945E+02 -0.49195196175E+02  0.36571844959E+02  0.64616906705E+02  0.10000000000E+01 0.  0.
    9000005    1    3    3    0    0  0.20412678945E+02  0.49195196175E+02 -0.28923609118E+02  0.60616993928E+02  0.10000000000E+01 0.  0.
<mgrwt>
<rscale>  0 0.12500014E+03</rscale>
<asrwt>0</asrwt>
<pdfrwt beam="2">  1        4 0.90450512E-02 0.12500014E+03</pdfrwt>
<pdfrwt beam="1">  1       -4 0.10221703E-01 0.12500014E+03</pdfrwt>
<totfact> 0.10447752E+04</totfact>
</mgrwt>
</event>
<event>
 5    1  0.3331626E-002  0.1250013E+03  0.7818608E-02  0.1235067E+00
          4   -1    0    0  501    0  0.00000000000E+00  0.00000000000E+00  0.34645581014E+03  0.34645813784E+03  0.12700000000E+01 0.  1.
         -4   -1    0    0    0  501 -0.00000000000E+00 -0.00000000000E+00 -0.11236980699E+02  0.11308520471E+02  0.12700000000E+01 0.  1.
         25    2    1    2    0    0  0.00000000000E+00  0.00000000000E+00  0.33521882944E+03  0.35776665831E+03  0.12500127276E+03 0.  0.
    9000005    1    3    3    0    0  0.33672175138E+02  0.51974327235E+02  0.19158685798E+03  0.20134962185E+03  0.10000000000E+01 0.  0.
    9000005    1    3    3    0    0 -0.33672175138E+02 -0.51974327235E+02  0.14363197146E+03  0.15641703646E+03  0.10000000000E+01 0.  0.
<mgrwt>
<rscale>  0 0.12500127E+03</rscale>
<asrwt>0</asrwt>
<pdfrwt beam="1">  1        4 0.53306577E-01 0.12500127E+03</pdfrwt>
<pdfrwt beam="2">  1       -4 0.17344484E-02 0.12500127E+03</pdfrwt>
<totfact> 0.68876554E+03</totfact>
</mgrwt>
</event>
<event>
 5    1  0.3331626E-002  0.1249994E+03  0.7818608E-02  0.1235070E+00
          4   -1    0    0  501    0  0.00000000000E+00  0.00000000000E+00  0.27907529348E+02  0.27936411622E+02  0.12700000000E+01 0. -1.
         -4   -1    0    0    0  501 -0.00000000000E+00 -0.00000000000E+00 -0.13986557276E+03  0.13987133853E+03  0.12700000000E+01 0. -1.
         25    2    1    2    0    0  0.00000000000E+00  0.00000000000E+00 -0.11195804341E+03  0.16780775015E+03  0.12499935011E+03 0.  0.
    9000005    1    3    3    0    0 -0.39455674308E+02 -0.25194125296E+02 -0.11155326829E+03  0.12098192365E+03  0.10000000000E+01 0.  0.
    9000005    1    3    3    0    0  0.39455674308E+02  0.25194125296E+02 -0.40477511867E+00  0.46825826500E+02  0.10000000000E+01 0.  0.
<mgrwt>
<rscale>  0 0.12499935E+03</rscale>
<asrwt>0</asrwt>
<pdfrwt beam="1">  1        4 0.42961314E-02 0.12499935E+03</pdfrwt>
<pdfrwt beam="2">  1       -4 0.21520445E-01 0.12499935E+03</pdfrwt>
<totfact> 0.95859675E+03</totfact>
</mgrwt>
</event>
<event>
 5    1  0.3331626E-002  0.1250031E+03  0.7818608E-02  0.1235064E+00
          4   -1    0    0  501    0  0.00000000000E+00  0.00000000000E+00  0.94659051988E+02  0.94667571128E+02  0.12700000000E+01 0.  1.
         -4   -1    0    0    0  501 -0.00000000000E+00 -0.00000000000E+00 -0.41248408028E+02  0.41267954454E+02  0.12700000000E+01 0.  1.
         25    2    1    2    0    0  0.00000000000E+00  0.00000000000E+00  0.53410643960E+02  0.13593552558E+03  0.12500308087E+03 0.  0.
    9000005    1    3    3    0    0 -0.43785265596E+02  0.12137051717E+00 -0.21784528479E+02  0.48915538382E+02  0.10000000000E+01 0.  0.
    9000005    1    3    3    0    0  0.43785265596E+02 -0.12137051717E+00  0.75195172440E+02  0.87019987201E+02  0.10000000000E+01 0.  0.
<mgrwt>
<rscale>  0 0.12500308E+03</rscale>
<asrwt>0</asrwt>
<pdfrwt beam="1">  1        4 0.14565090E-01 0.12500308E+03</pdfrwt>
<pdfrwt beam="2">  1       -4 0.63480679E-02 0.12500308E+03</pdfrwt>
<totfact> 0.10217680E+04</totfact>
</mgrwt>
</event>
<event>
 5    1  0.3331626E-002  0.1250026E+03  0.7818608E-02  0.1235065E+00
          4   -1    0    0  501    0  0.00000000000E+00  0.00000000000E+00  0.86518216465E+02  0.86527537122E+02  0.12700000000E+01 0. -1.
         -4   -1    0    0    0  501 -0.00000000000E+00 -0.00000000000E+00 -0.45130646757E+02  0.45148512452E+02  0.12700000000E+01 0. -1.
         25    2    1    2    0    0  0.00000000000E+00  0.00000000000E+00  0.41387569709E+02  0.13167604957E+03  0.12500260439E+03 0.  0.
    9000005    1    3    3    0    0  0.57189367288E+02  0.33560933908E+01 -0.56097975164E+01  0.57570451812E+02  0.10000000000E+01 0.  0.
    9000005    1    3    3    0    0 -0.57189367288E+02 -0.33560933908E+01  0.46997367225E+02  0.74105597762E+02  0.10000000000E+01 0.  0.
<mgrwt>
<rscale>  0 0.12500260E+03</rscale>
<asrwt>0</asrwt>
<pdfrwt beam="1">  1        4 0.13312586E-01 0.12500260E+03</pdfrwt>
<pdfrwt beam="2">  1       -4 0.69452677E-02 0.12500260E+03</pdfrwt>
<totfact> 0.10308012E+04</totfact>
</mgrwt>
</event>
<event>
 5    1  0.3331626E-002  0.1250024E+03  0.7818608E-02  0.1235066E+00
         -4   -1    0    0    0  501 -0.00000000000E+00  0.00000000000E+00  0.75575919920E+01  0.76635564014E+01  0.12700000000E+01 0.  1.
          4   -1    0    0  501    0  0.00000000000E+00 -0.00000000000E+00 -0.51317868901E+03  0.51318026049E+03  0.12700000000E+01 0.  1.
         25    2    1    2    0    0  0.00000000000E+00  0.00000000000E+00 -0.50562109702E+03  0.52084381689E+03  0.12500235135E+03 0.  0.
    9000005    1    3    3    0    0 -0.14327011324E+02 -0.58906533825E+02 -0.31602240929E+03  0.32178627403E+03  0.10000000000E+01 0.  0.
    9000005    1    3    3    0    0  0.14327011324E+02  0.58906533825E+02 -0.18959868773E+03  0.19905754286E+03  0.10000000000E+01 0.  0.
<mgrwt>
<rscale>  0 0.12500235E+03</rscale>
<asrwt>0</asrwt>
<pdfrwt beam="2">  1        4 0.78958812E-01 0.12500235E+03</pdfrwt>
<pdfrwt beam="1">  1       -4 0.11709789E-02 0.12500235E+03</pdfrwt>
<totfact> 0.54279856E+03</totfact>
</mgrwt>
</event>
<event>
 5    1  0.3331626E-002  0.1250003E+03  0.7818608E-02  0.1235069E+00
          4   -1    0    0  501    0  0.00000000000E+00  0.00000000000E+00  0.38539954962E+02  0.38560874322E+02  0.12700000000E+01 0. -1.
         -4   -1    0    0    0  501 -0.00000000000E+00 -0.00000000000E+00 -0.10130393533E+03  0.10131189572E+03  0.12700000000E+01 0. -1.
         25    2    1    2    0    0  0.00000000000E+00  0.00000000000E+00 -0.62763980371E+02  0.13987277004E+03  0.12500029827E+03 0.  0.
    9000005    1    3    3    0    0 -0.37190843917E+02  0.21615724515E+02 -0.82106087373E+02  0.92697400186E+02  0.10000000000E+01 0.  0.
    9000005    1    3    3    0    0  0.37190843917E+02 -0.21615724515E+02  0.19342107002E+02  0.47175369854E+02  0.10000000000E+01 0.  0.
<mgrwt>
<rscale>  0 0.12500030E+03</rscale>
<asrwt>0</asrwt>
<pdfrwt beam="1">  1        4 0.59314454E-02 0.12500030E+03</pdfrwt>
<pdfrwt beam="2">  1       -4 0.15587442E-01 0.12500030E+03</pdfrwt>
<totfact> 0.10136155E+04</totfact>
</mgrwt>
</event>
<event>
 5    1  0.3331626E-002  0.1250005E+03  0.7818608E-02  0.1235068E+00
         -4   -1    0    0    0  501 -0.00000000000E+00  0.00000000000E+00  0.51405371721E+03  0.51405528601E+03  0.12700000000E+01 0. -1.
          4   -1    0    0  501    0  0.00000000000E+00 -0.00000000000E+00 -0.75443243195E+01  0.76504724977E+01  0.12700000000E+01 0. -1.
         25    2    1    2    0    0  0.00000000000E+00  0.00000000000E+00  0.50650939289E+03  0.52170575851E+03  0.12500053350E+03 0.  0.
    9000005    1    3    3    0    0  0.62341986790E+02  0.20510999190E+01  0.23733296586E+03  0.24539492051E+03  0.10000000000E+01 0.  0.
    9000005    1    3    3    0    0 -0.62341986790E+02 -0.20510999190E+01  0.26917642703E+03  0.27631083800E+03  0.10000000000E+01 0.  0.
<mgrwt>
<rscale>  0 0.12500053E+03</rscale>
<asrwt>0</asrwt>
<pdfrwt beam="2">  1        4 0.11689514E-02 0.12500053E+03</pdfrwt>
<pdfrwt beam="1">  1       -4 0.79093463E-01 0.12500053E+03</pdfrwt>
<totfact> 0.54218105E+03</totfact>
</mgrwt>
</event>
<event>
 5    1  0.3331626E-002  0.1249993E+03  0.7818608E-02  0.1235070E+00
         -4   -1    0    0    0  501 -0.00000000000E+00  0.00000000000E+00  0.30030053532E+02  0.30056896299E+02  0.12700000000E+01 0.  1.
          4   -1    0    0  501    0  0.00000000000E+00 -0.00000000000E+00 -0.12998852395E+03  0.12999472781E+03  0.12700000000E+01 0.  1.
         25    2    1    2    0    0  0.00000000000E+00  0.00000000000E+00 -0.99958470414E+02  0.16005162411E+03  0.12499930628E+03 0.  0.
    9000005    1    3    3    0    0 -0.14124676819E+01  0.17937078817E+02  0.26648027193E+02  0.32169103418E+02  0.10000000000E+01 0.  0.
    9000005    1    3    3    0    0  0.14124676819E+01 -0.17937078817E+02 -0.12660649761E+03  0.12788252069E+03  0.10000000000E+01 0.  0.
<mgrwt>
<rscale>  0 0.12499931E+03</rscale>
<asrwt>0</asrwt>
<pdfrwt beam="2">  1        4 0.20000776E-01 0.12499931E+03</pdfrwt>
<pdfrwt beam="1">  1       -4 0.46225504E-02 0.12499931E+03</pdfrwt>
<totfact> 0.97334351E+03</totfact>
</mgrwt>
</event>
<event>
 5    1  0.3331626E-002  0.1250045E+03  0.7818608E-02  0.1235062E+00
         -4   -1    0    0    0  501 -0.00000000000E+00  0.00000000000E+00  0.40849651047E+01  0.42778312153E+01  0.12700000000E+01 0.  1.
          4   -1    0    0  501    0  0.00000000000E+00 -0.00000000000E+00 -0.93407093238E+03  0.93407179575E+03  0.12700000000E+01 0.  1.
         25    2    1    2    0    0  0.00000000000E+00  0.00000000000E+00 -0.92998596728E+03  0.93834962697E+03  0.12500449231E+03 0.  0.
    9000005    1    3    3    0    0  0.20665759461E+02  0.42771726454E+02 -0.76982052933E+03  0.77128538271E+03  0.10000000000E+01 0.  0.
    9000005    1    3    3    0    0 -0.20665759461E+02 -0.42771726454E+02 -0.16016543794E+03  0.16706424426E+03  0.10000000000E+01 0.  0.
<mgrwt>
<rscale>  0 0.12500449E+03</rscale>
<asrwt>0</asrwt>
<pdfrwt beam="2">  1        4 0.14371796E+00 0.12500449E+03</pdfrwt>
<pdfrwt beam="1">  1       -4 0.64335918E-03 0.12500449E+03</pdfrwt>
<totfact> 0.32730082E+03</totfact>
</mgrwt>
</event>
<event>
 5    1  0.3331626E-002  0.1249913E+03  0.7818608E-02  0.1235083E+00
          4   -1    0    0  501    0  0.00000000000E+00  0.00000000000E+00  0.26667736553E+02  0.26697960088E+02  0.12700000000E+01 0.  1.
         -4   -1    0    0    0  501 -0.00000000000E+00 -0.00000000000E+00 -0.14634224926E+03  0.14634775987E+03  0.12700000000E+01 0.  1.
         25    2    1    2    0    0  0.00000000000E+00  0.00000000000E+00 -0.11967451271E+03  0.17304571996E+03  0.12499132851E+03 0.  0.
    9000005    1    3    3    0    0  0.33696666393E+02  0.45514486930E+02 -0.96405770204E+02  0.11181281847E+03  0.10000000000E+01 0.  0.
    9000005    1    3    3    0    0 -0.33696666393E+02 -0.45514486930E+02 -0.23268742507E+02  0.61232901486E+02  0.10000000000E+01 0.  0.
<mgrwt>
<rscale>  0 0.12499133E+03</rscale>
<asrwt>0</asrwt>
<pdfrwt beam="1">  1        4 0.41054776E-02 0.12499133E+03</pdfrwt>
<pdfrwt beam="2">  1       -4 0.22516940E-01 0.12499133E+03</pdfrwt>
<totfact> 0.94902450E+03</totfact>
</mgrwt>
</event>
<event>
 5    1  0.3331626E-002  0.1249972E+03  0.7818608E-02  0.1235074E+00
          4   -1    0    0  501    0  0.00000000000E+00  0.00000000000E+00  0.17887960572E+01  0.21937847055E+01  0.12700000000E+01 0.  1.
         -4   -1    0    0    0  501 -0.00000000000E+00 -0.00000000000E+00 -0.19611740276E+04  0.19611744388E+04  0.12700000000E+01 0.  1.
         25    2    1    2    0    0  0.00000000000E+00  0.00000000000E+00 -0.19593852315E+04  0.19633682235E+04  0.12499718202E+03 0.  0.
    9000005    1    3    3    0    0  0.24351202914E+02 -0.13696655771E+02 -0.10169889090E+03  0.10547153111E+03  0.10000000000E+01 0.  0.
    9000005    1    3    3    0    0 -0.24351202914E+02  0.13696655771E+02 -0.18576863406E+04  0.18578966924E+04  0.10000000000E+01 0.  0.
<mgrwt>
<rscale>  0 0.12499718E+03</rscale>
<asrwt>0</asrwt>
<pdfrwt beam="1">  1        4 0.30638557E-03 0.12499718E+03</pdfrwt>
<pdfrwt beam="2">  1       -4 0.30174872E+00 0.12499718E+03</pdfrwt>
<totfact> 0.10347830E+03</totfact>
</mgrwt>
</event>
<event>
 5    1  0.3331626E-002  0.1249960E+03  0.7818608E-02  0.1235076E+00
         -4   -1    0    0    0  501 -0.00000000000E+00  0.00000000000E+00  0.69340921050E+03  0.69341037352E+03  0.12700000000E+01 0. -1.
          4   -1    0    0  501    0  0.00000000000E+00 -0.00000000000E+00 -0.55602736126E+01  0.57034675985E+01  0.12700000000E+01 0. -1.
         25    2    1    2    0    0  0.00000000000E+00  0.00000000000E+00  0.68784893688E+03  0.69911384111E+03  0.12499601141E+03 0.  0.
    9000005    1    3    3    0    0  0.16852967361E+02  0.56898742835E+02  0.45345641650E+03  0.45732396735E+03  0.10000000000E+01 0.  0.
    9000005    1    3    3    0    0 -0.16852967361E+02 -0.56898742835E+02  0.23439252038E+03  0.24178987376E+03  0.10000000000E+01 0.  0.
<mgrwt>
<rscale>  0 0.12499601E+03</rscale>
<asrwt>0</asrwt>
<pdfrwt beam="2">  1        4 0.86653140E-03 0.12499601E+03</pdfrwt>
<pdfrwt beam="1">  1       -4 0.10668941E+00 0.12499601E+03</pdfrwt>
<totfact> 0.43137286E+03</totfact>
</mgrwt>
</event>
<event>
 5    1  0.3331626E-002  0.1250027E+03  0.7818608E-02  0.1235065E+00
          4   -1    0    0  501    0  0.00000000000E+00  0.00000000000E+00  0.25751208555E+02  0.25782506512E+02  0.12700000000E+01 0.  1.
         -4   -1    0    0    0  501 -0.00000000000E+00 -0.00000000000E+00 -0.15157231686E+03  0.15157763733E+03  0.12700000000E+01 0.  1.
         25    2    1    2    0    0  0.00000000000E+00  0.00000000000E+00 -0.12582110830E+03  0.17736014384E+03  0.12500267728E+03 0.  0.
    9000005    1    3    3    0    0 -0.54534669864E+02  0.30504883439E+02 -0.64210333986E+02  0.89602149089E+02  0.10000000000E+01 0.  0.
    9000005    1    3    3    0    0  0.54534669864E+02 -0.30504883439E+02 -0.61610774317E+02  0.87757994751E+02  0.10000000000E+01 0.  0.
<mgrwt>
<rscale>  0 0.12500268E+03</rscale>
<asrwt>0</asrwt>
<pdfrwt beam="1">  1        4 0.39645413E-02 0.12500268E+03</pdfrwt>
<pdfrwt beam="2">  1       -4 0.23321634E-01 0.12500268E+03</pdfrwt>
<totfact> 0.94088706E+03</totfact>
</mgrwt>
</event>
<event>
 5    1  0.3331626E-002  0.1250003E+03  0.7818608E-02  0.1235069E+00
          4   -1    0    0  501    0  0.00000000000E+00  0.00000000000E+00  0.35970137970E+01  0.38146308151E+01  0.12700000000E+01 0.  1.
         -4   -1    0    0    0  501 -0.00000000000E+00 -0.00000000000E+00 -0.10538708010E+04  0.10538715662E+04  0.12700000000E+01 0.  1.
         25    2    1    2    0    0  0.00000000000E+00  0.00000000000E+00 -0.10502737872E+04  0.10576861970E+04  0.12500025330E+03 0.  0.
    9000005    1    3    3    0    0  0.19967664896E+02 -0.42638094281E+02 -0.87283557889E+03  0.87410506377E+03  0.10000000000E+01 0.  0.
    9000005    1    3    3    0    0 -0.19967664896E+02  0.42638094281E+02 -0.17743820831E+03  0.18358113327E+03  0.10000000000E+01 0.  0.
<mgrwt>
<rscale>  0 0.12500025E+03</rscale>
<asrwt>0</asrwt>
<pdfrwt beam="1">  1        4 0.57018621E-03 0.12500025E+03</pdfrwt>
<pdfrwt beam="2">  1       -4 0.16215053E+00 0.12500025E+03</pdfrwt>
<totfact> 0.28755873E+03</totfact>
</mgrwt>
</event>
<event>
 5    1  0.3331626E-002  0.1250053E+03  0.7818608E-02  0.1235061E+00
          4   -1    0    0  501    0  0.00000000000E+00  0.00000000000E+00  0.29969493510E+02  0.29996390470E+02  0.12700000000E+01 0. -1.
         -4   -1    0    0    0  501 -0.00000000000E+00 -0.00000000000E+00 -0.13026348515E+03  0.13026967591E+03  0.12700000000E+01 0. -1.
         25    2    1    2    0    0  0.00000000000E+00  0.00000000000E+00 -0.10029399164E+03  0.16026606638E+03  0.12500530899E+03 0.  0.
    9000005    1    3    3    0    0  0.12275934020E+02 -0.59643002049E+02 -0.32125048289E+02  0.68854956082E+02  0.10000000000E+01 0.  0.
    9000005    1    3    3    0    0 -0.12275934020E+02  0.59643002049E+02 -0.68168943348E+02  0.91411110302E+02  0.10000000000E+01 0.  0.
<mgrwt>
<rscale>  0 0.12500531E+03</rscale>
<asrwt>0</asrwt>
<pdfrwt beam="1">  1        4 0.46132366E-02 0.12500531E+03</pdfrwt>
<pdfrwt beam="2">  1       -4 0.20043081E-01 0.12500531E+03</pdfrwt>
<totfact> 0.97279905E+03</totfact>
</mgrwt>
</event>
<event>
 5    1  0.3331626E-002  0.1249987E+03  0.7818608E-02  0.1235071E+00
         -4   -1    0    0    0  501 -0.00000000000E+00  0.00000000000E+00  0.66331195742E+02  0.66343352558E+02  0.12700000000E+01 0. -1.
          4   -1    0    0  501    0  0.00000000000E+00 -0.00000000000E+00 -0.58864499488E+02  0.58878198002E+02  0.12700000000E+01 0. -1.
         25    2    1    2    0    0  0.00000000000E+00  0.00000000000E+00  0.74666962545E+01  0.12522155056E+03  0.12499874068E+03 0.  0.
    9000005    1    3    3    0    0 -0.38616864621E+02 -0.39620098588E+02 -0.25372818640E+02  0.60875236106E+02  0.10000000000E+01 0.  0.
    9000005    1    3    3    0    0  0.38616864621E+02  0.39620098588E+02  0.32839514894E+02  0.64346314453E+02  0.10000000000E+01 0.  0.
<mgrwt>
<rscale>  0 0.12499874E+03</rscale>
<asrwt>0</asrwt>
<pdfrwt beam="2">  1        4 0.90580658E-02 0.12499874E+03</pdfrwt>
<pdfrwt beam="1">  1       -4 0.10206788E-01 0.12499874E+03</pdfrwt>
<totfact> 0.10448350E+04</totfact>
</mgrwt>
</event>
<event>
 5    1  0.3331626E-002  0.1249998E+03  0.7818608E-02  0.1235070E+00
          4   -1    0    0  501    0  0.00000000000E+00  0.00000000000E+00  0.20642366565E+02  0.20681397375E+02  0.12700000000E+01 0. -1.
         -4   -1    0    0    0  501 -0.00000000000E+00 -0.00000000000E+00 -0.18901402807E+03  0.18901829464E+03  0.12700000000E+01 0. -1.
         25    2    1    2    0    0  0.00000000000E+00  0.00000000000E+00 -0.16837166151E+03  0.20969969202E+03  0.12499977773E+03 0.  0.
    9000005    1    3    3    0    0  0.43426909689E+02 -0.31061843842E+02 -0.29708960542E+02  0.61109385241E+02  0.10000000000E+01 0.  0.
    9000005    1    3    3    0    0 -0.43426909689E+02  0.31061843842E+02 -0.13866270097E+03  0.14859030678E+03  0.10000000000E+01 0.  0.
<mgrwt>
<rscale>  0 0.12499978E+03</rscale>
<asrwt>0</asrwt>
<pdfrwt beam="1">  1        4 0.31790794E-02 0.12499978E+03</pdfrwt>
<pdfrwt beam="2">  1       -4 0.29082411E-01 0.12499978E+03</pdfrwt>
<totfact> 0.88525389E+03</totfact>
</mgrwt>
</event>
<event>
 5    1  0.3331626E-002  0.1250019E+03  0.7818608E-02  0.1235066E+00
          4   -1    0    0  501    0  0.00000000000E+00  0.00000000000E+00  0.65043238137E+03  0.65043362124E+03  0.12700000000E+01 0.  1.
         -4   -1    0    0    0  501 -0.00000000000E+00 -0.00000000000E+00 -0.59374086871E+01  0.60717149075E+01  0.12700000000E+01 0.  1.
         25    2    1    2    0    0  0.00000000000E+00  0.00000000000E+00  0.64449497268E+03  0.65650533614E+03  0.12500194627E+03 0.  0.
    9000005    1    3    3    0    0  0.16966225682E+02  0.59376840777E+02  0.27189720017E+03  0.27882350958E+03  0.10000000000E+01 0.  0.
    9000005    1    3    3    0    0 -0.16966225682E+02 -0.59376840777E+02  0.37259777251E+03  0.37768182656E+03  0.10000000000E+01 0.  0.
<mgrwt>
<rscale>  0 0.12500195E+03</rscale>
<asrwt>0</asrwt>
<pdfrwt beam="1">  1        4 0.10007690E+00 0.12500195E+03</pdfrwt>
<pdfrwt beam="2">  1       -4 0.92387458E-03 0.12500195E+03</pdfrwt>
<totfact> 0.45482124E+03</totfact>
</mgrwt>
</event>
<event>
 5    1  0.3331626E-002  0.1250212E+03  0.7818608E-02  0.1235036E+00
          4   -1    0    0  501    0  0.00000000000E+00  0.00000000000E+00  0.12144899893E+02  0.12211121709E+02  0.12700000000E+01 0.  1.
         -4   -1    0    0    0  501 -0.00000000000E+00 -0.00000000000E+00 -0.32080367195E+03  0.32080618579E+03  0.12700000000E+01 0.  1.
         25    2    1    2    0    0  0.00000000000E+00  0.00000000000E+00 -0.30865877206E+03  0.33301730750E+03  0.12502115630E+03 0.  0.
    9000005    1    3    3    0    0 -0.30758772535E+02 -0.53618227860E+02 -0.17896755114E+03  0.18934466142E+03  0.10000000000E+01 0.  0.
    9000005    1    3    3    0    0  0.30758772535E+02  0.53618227860E+02 -0.12969122092E+03  0.14367264607E+03  0.10000000000E+01 0.  0.
<mgrwt>
<rscale>  0 0.12502116E+03</rscale>
<asrwt>0</asrwt>
<pdfrwt beam="1">  1        4 0.18737337E-02 0.12502116E+03</pdfrwt>
<pdfrwt beam="2">  1       -4 0.49359692E-01 0.12502116E+03</pdfrwt>
<totfact> 0.71600620E+03</totfact>
</mgrwt>
</event>
<event>
 5    1  0.3331626E-002  0.1250055E+03  0.7818608E-02  0.1235061E+00
         -4   -1    0    0    0  501 -0.00000000000E+00  0.00000000000E+00  0.13857152159E+04  0.13857157979E+04  0.12700000000E+01 0. -1.
          4   -1    0    0  501    0  0.00000000000E+00 -0.00000000000E+00 -0.26755502522E+01  0.29616666173E+01  0.12700000000E+01 0. -1.
         25    2    1    2    0    0  0.00000000000E+00  0.00000000000E+00  0.13830396657E+04  0.13886774645E+04  0.12500553440E+03 0.  0.
    9000005    1    3    3    0    0  0.20477214729E+02 -0.21573559526E+02  0.13020927353E+04  0.13024328106E+04  0.10000000000E+01 0.  0.
    9000005    1    3    3    0    0 -0.20477214729E+02  0.21573559526E+02  0.80946930421E+02  0.86244653969E+02  0.10000000000E+01 0.  0.
<mgrwt>
<rscale>  0 0.12500553E+03</rscale>
<asrwt>0</asrwt>
<pdfrwt beam="2">  1        4 0.43367679E-03 0.12500553E+03</pdfrwt>
<pdfrwt beam="1">  1       -4 0.21320903E+00 0.12500553E+03</pdfrwt>
<totfact> 0.20222763E+03</totfact>
</mgrwt>
</event>
<event>
 5    1  0.3331626E-002  0.1249975E+03  0.7818608E-02  0.1235073E+00
         -4   -1    0    0    0  501 -0.00000000000E+00  0.00000000000E+00  0.13129267683E+03  0.13129881907E+03  0.12700000000E+01 0. -1.
          4   -1    0    0  501    0  0.00000000000E+00 -0.00000000000E+00 -0.29730668699E+02  0.29757781525E+02  0.12700000000E+01 0. -1.
         25    2    1    2    0    0  0.00000000000E+00  0.00000000000E+00  0.10156200813E+03  0.16105660060E+03  0.12499754837E+03 0.  0.
    9000005    1    3    3    0    0  0.19783793985E+01 -0.51597034210E+02  0.54286101309E+01  0.51929160712E+02  0.10000000000E+01 0.  0.
    9000005    1    3    3    0    0 -0.19783793985E+01  0.51597034210E+02  0.96133398002E+02  0.10912743988E+03  0.10000000000E+01 0.  0.
<mgrwt>
<rscale>  0 0.12499755E+03</rscale>
<asrwt>0</asrwt>
<pdfrwt beam="2">  1        4 0.45765071E-02 0.12499755E+03</pdfrwt>
<pdfrwt beam="1">  1       -4 0.20201432E-01 0.12499755E+03</pdfrwt>
<totfact> 0.97144819E+03</totfact>
</mgrwt>
</event>
<event>
 5    1  0.3331626E-002  0.1249975E+03  0.7818608E-02  0.1235073E+00
         -4   -1    0    0    0  501 -0.00000000000E+00  0.00000000000E+00  0.16038137557E+03  0.16038640382E+03  0.12700000000E+01 0. -1.
          4   -1    0    0  501    0  0.00000000000E+00 -0.00000000000E+00 -0.24333071665E+02  0.24366191263E+02  0.12700000000E+01 0. -1.
         25    2    1    2    0    0  0.00000000000E+00  0.00000000000E+00  0.13604830390E+03  0.18475259508E+03  0.12499752155E+03 0.  0.
    9000005    1    3    3    0    0 -0.13253640590E+02  0.16138594641E+02  0.15507843850E+03  0.15648142162E+03  0.10000000000E+01 0.  0.
    9000005    1    3    3    0    0  0.13253640590E+02 -0.16138594641E+02 -0.19030134595E+02  0.28271173456E+02  0.10000000000E+01 0.  0.
<mgrwt>
<rscale>  0 0.12499752E+03</rscale>
<asrwt>0</asrwt>
<pdfrwt beam="2">  1        4 0.37464840E-02 0.12499752E+03</pdfrwt>
<pdfrwt beam="1">  1       -4 0.24676992E-01 0.12499752E+03</pdfrwt>
<totfact> 0.92773602E+03</totfact>
</mgrwt>
</event>
<event>
 5    1  0.3331626E-002  0.1250002E+03  0.7818608E-02  0.1235069E+00
         -4   -1    0    0    0  501 -0.00000000000E+00  0.00000000000E+00  0.81598374652E+03  0.81598473483E+03  0.12700000000E+01 0. -1.
          4   -1    0    0  501    0  0.00000000000E+00 -0.00000000000E+00 -0.47019445527E+01  0.48704396697E+01  0.12700000000E+01 0. -1.
         25    2    1    2    0    0  0.00000000000E+00  0.00000000000E+00  0.81128180197E+03  0.82085517450E+03  0.12500022124E+03 0.  0.
    9000005    1    3    3    0    0  0.38686989405E+02  0.34893275274E+02  0.63227170292E+03  0.63441526631E+03  0.10000000000E+01 0.  0.
    9000005    1    3    3    0    0 -0.38686989405E+02 -0.34893275274E+02  0.17901009905E+03  0.18643990820E+03  0.10000000000E+01 0.  0.
<mgrwt>
<rscale>  0 0.12500022E+03</rscale>
<asrwt>0</asrwt>
<pdfrwt beam="2">  1        4 0.73641323E-03 0.12500022E+03</pdfrwt>
<pdfrwt beam="1">  1       -4 0.12554901E+00 0.12500022E+03</pdfrwt>
<totfact> 0.37350301E+03</totfact>
</mgrwt>
</event>
<event>
 5    1  0.3331626E-002  0.1250002E+03  0.7818608E-02  0.1235069E+00
         -4   -1    0    0    0  501 -0.00000000000E+00  0.00000000000E+00  0.60175137071E+02  0.60188537293E+02  0.12700000000E+01 0. -1.
          4   -1    0    0  501    0  0.00000000000E+00 -0.00000000000E+00 -0.64888036832E+02  0.64900463973E+02  0.12700000000E+01 0. -1.
         25    2    1    2    0    0  0.00000000000E+00  0.00000000000E+00 -0.47128997608E+01  0.12508900127E+03  0.12500018725E+03 0.  0.
    9000005    1    3    3    0    0  0.20638110163E+01  0.29263345439E+02 -0.57574083530E+02  0.64624900746E+02  0.10000000000E+01 0.  0.
    9000005    1    3    3    0    0 -0.20638110163E+01 -0.29263345439E+02  0.52861183769E+02  0.60464100520E+02  0.10000000000E+01 0.  0.
<mgrwt>
<rscale>  0 0.12500019E+03</rscale>
<asrwt>0</asrwt>
<pdfrwt beam="2">  1        4 0.99847617E-02 0.12500019E+03</pdfrwt>
<pdfrwt beam="1">  1       -4 0.92597001E-02 0.12500019E+03</pdfrwt>
<totfact> 0.10450886E+04</totfact>
</mgrwt>
</event>
<event>
 5    1  0.3331626E-002  0.1249975E+03  0.7818608E-02  0.1235073E+00
         -4   -1    0    0    0  501 -0.00000000000E+00  0.00000000000E+00  0.97857914724E+02  0.97866155407E+02  0.12700000000E+01 0.  1.
          4   -1    0    0  501    0  0.00000000000E+00 -0.00000000000E+00 -0.39895949251E+02  0.39916157965E+02  0.12700000000E+01 0.  1.
         25    2    1    2    0    0  0.00000000000E+00  0.00000000000E+00  0.57961965472E+02  0.13778231337E+03  0.12499750572E+03 0.  0.
    9000005    1    3    3    0    0 -0.53921336829E+02 -0.45252681814E+01  0.63436823562E+02  0.83385965253E+02  0.10000000000E+01 0.  0.
    9000005    1    3    3    0    0  0.53921336829E+02  0.45252681814E+01 -0.54748580896E+01  0.54396348118E+02  0.10000000000E+01 0.  0.
<mgrwt>
<rscale>  0 0.12499751E+03</rscale>
<asrwt>0</asrwt>
<pdfrwt beam="2">  1        4 0.61400268E-02 0.12499751E+03</pdfrwt>
<pdfrwt beam="1">  1       -4 0.15057252E-01 0.12499751E+03</pdfrwt>
<totfact> 0.10180326E+04</totfact>
</mgrwt>
</event>
<event>
 5    1  0.3331626E-002  0.1249979E+03  0.7818608E-02  0.1235073E+00
          4   -1    0    0  501    0  0.00000000000E+00  0.00000000000E+00  0.52072789577E+01  0.53599117664E+01  0.12700000000E+01 0. -1.
         -4   -1    0    0    0  501 -0.00000000000E+00 -0.00000000000E+00 -0.73913826357E+03  0.73913935464E+03  0.12700000000E+01 0. -1.
         25    2    1    2    0    0  0.00000000000E+00  0.00000000000E+00 -0.73393098461E+03  0.74449926640E+03  0.12499786999E+03 0.  0.
    9000005    1    3    3    0    0 -0.85350977317E+01  0.43411132732E+02 -0.10410371735E+03  0.11311922164E+03  0.10000000000E+01 0.  0.
    9000005    1    3    3    0    0  0.85350977317E+01 -0.43411132732E+02 -0.62982726726E+03  0.63138004476E+03  0.10000000000E+01 0.  0.
<mgrwt>
<rscale>  0 0.12499787E+03</rscale>
<asrwt>0</asrwt>
<pdfrwt beam="1">  1        4 0.81294534E-03 0.12499787E+03</pdfrwt>
<pdfrwt beam="2">  1       -4 0.11372532E+00 0.12499787E+03</pdfrwt>
<totfact> 0.40840554E+03</totfact>
</mgrwt>
</event>
<event>
 5    1  0.3331626E-002  0.1250014E+03  0.7818608E-02  0.1235067E+00
         -4   -1    0    0    0  501 -0.00000000000E+00  0.00000000000E+00  0.76497241082E+02  0.76507782566E+02  0.12700000000E+01 0. -1.
          4   -1    0    0  501    0  0.00000000000E+00 -0.00000000000E+00 -0.51043117979E+02  0.51058914922E+02  0.12700000000E+01 0. -1.
         25    2    1    2    0    0  0.00000000000E+00  0.00000000000E+00  0.25454123103E+02  0.12756669749E+03  0.12500139969E+03 0.  0.
    9000005    1    3    3    0    0 -0.25221503769E+02 -0.34754495113E+02 -0.33606648067E+02  0.54538114904E+02  0.10000000000E+01 0.  0.
    9000005    1    3    3    0    0  0.25221503769E+02  0.34754495113E+02  0.59060771171E+02  0.73028582584E+02  0.10000000000E+01 0.  0.
<mgrwt>
<rscale>  0 0.12500140E+03</rscale>
<asrwt>0</asrwt>
<pdfrwt beam="2">  1        4 0.78548134E-02 0.12500140E+03</pdfrwt>
<pdfrwt beam="1">  1       -4 0.11770832E-01 0.12500140E+03</pdfrwt>
<totfact> 0.10396528E+04</totfact>
</mgrwt>
</event>
<event>
 5    1  0.3331626E-002  0.1250006E+03  0.7818608E-02  0.1235068E+00
          4   -1    0    0  501    0  0.00000000000E+00  0.00000000000E+00  0.15972562761E+02  0.16022972918E+02  0.12700000000E+01 0. -1.
         -4   -1    0    0    0  501 -0.00000000000E+00 -0.00000000000E+00 -0.24412478663E+03  0.24412809004E+03  0.12700000000E+01 0. -1.
         25    2    1    2    0    0  0.00000000000E+00  0.00000000000E+00 -0.22815222386E+03  0.26015106295E+03  0.12500055321E+03 0.  0.
    9000005    1    3    3    0    0  0.23765933838E+02  0.57796400839E+02 -0.11449759678E+03  0.13044517327E+03  0.10000000000E+01 0.  0.
    9000005    1    3    3    0    0 -0.23765933838E+02 -0.57796400839E+02 -0.11365462708E+03  0.12970588968E+03  0.10000000000E+01 0.  0.
<mgrwt>
<rscale>  0 0.12500055E+03</rscale>
<asrwt>0</asrwt>
<pdfrwt beam="1">  1        4 0.24614493E-02 0.12500055E+03</pdfrwt>
<pdfrwt beam="2">  1       -4 0.37561789E-01 0.12500055E+03</pdfrwt>
<totfact> 0.80883871E+03</totfact>
</mgrwt>
</event>
<event>
 5    1  0.3331626E-002  0.1249992E+03  0.7818608E-02  0.1235071E+00
         -4   -1    0    0    0  501 -0.00000000000E+00  0.00000000000E+00  0.21685688236E+03  0.21686060114E+03  0.12700000000E+01 0.  1.
          4   -1    0    0  501    0  0.00000000000E+00 -0.00000000000E+00 -0.17986530209E+02  0.18031310794E+02  0.12700000000E+01 0.  1.
         25    2    1    2    0    0  0.00000000000E+00  0.00000000000E+00  0.19887035215E+03  0.23489191193E+03  0.12499917331E+03 0.  0.
    9000005    1    3    3    0    0  0.22477614415E+02 -0.37711316477E+02  0.18300575353E+03  0.18820067047E+03  0.10000000000E+01 0.  0.
    9000005    1    3    3    0    0 -0.22477614415E+02  0.37711316477E+02  0.15864598625E+02  0.46691241467E+02  0.10000000000E+01 0.  0.
<mgrwt>
<rscale>  0 0.12499917E+03</rscale>
<asrwt>0</asrwt>
<pdfrwt beam="2">  1        4 0.27708892E-02 0.12499917E+03</pdfrwt>
<pdfrwt beam="1">  1       -4 0.33366328E-01 0.12499917E+03</pdfrwt>
<totfact> 0.84565614E+03</totfact>
</mgrwt>
</event>
<event>
 5    1  0.3331626E-002  0.1250012E+03  0.7818608E-02  0.1235067E+00
         -4   -1    0    0    0  501 -0.00000000000E+00  0.00000000000E+00  0.10569830029E+03  0.10570592975E+03  0.12700000000E+01 0. -1.
          4   -1    0    0  501    0  0.00000000000E+00 -0.00000000000E+00 -0.36937415915E+02  0.36959242342E+02  0.12700000000E+01 0. -1.
         25    2    1    2    0    0  0.00000000000E+00  0.00000000000E+00  0.68760884375E+02  0.14266517209E+03  0.12500116843E+03 0.  0.
    9000005    1    3    3    0    0 -0.38478867268E+02  0.84008468365E+01 -0.20995190936E+02  0.44642978129E+02  0.10000000000E+01 0.  0.
    9000005    1    3    3    0    0  0.38478867268E+02 -0.84008468365E+01  0.89756075311E+02  0.98022193962E+02  0.10000000000E+01 0.  0.
<mgrwt>
<rscale>  0 0.12500117E+03</rscale>
<asrwt>0</asrwt>
<pdfrwt beam="2">  1        4 0.56849451E-02 0.12500117E+03</pdfrwt>
<pdfrwt beam="1">  1       -4 0.16263543E-01 0.12500117E+03</pdfrwt>
<totfact> 0.10078379E+04</totfact>
</mgrwt>
</event>
<event>
 5    1  0.3331626E-002  0.1250019E+03  0.7818608E-02  0.1235066E+00
         -4   -1    0    0    0  501 -0.00000000000E+00  0.00000000000E+00  0.45220212497E+02  0.45238042821E+02  0.12700000000E+01 0.  1.
          4   -1    0    0  501    0  0.00000000000E+00 -0.00000000000E+00 -0.86345888034E+02  0.86355227291E+02  0.12700000000E+01 0.  1.
         25    2    1    2    0    0  0.00000000000E+00  0.00000000000E+00 -0.41125675537E+02  0.13159327011E+03  0.12500187019E+03 0.  0.
    9000005    1    3    3    0    0  0.48961298475E+02 -0.32742841792E+02  0.14204431767E+01  0.58926395578E+02  0.10000000000E+01 0.  0.
    9000005    1    3    3    0    0 -0.48961298475E+02  0.32742841792E+02 -0.42546118714E+02  0.72666874534E+02  0.10000000000E+01 0.  0.
<mgrwt>
<rscale>  0 0.12500187E+03</rscale>
<asrwt>0</asrwt>
<pdfrwt beam="2">  1        4 0.13286073E-01 0.12500187E+03</pdfrwt>
<pdfrwt beam="1">  1       -4 0.69590458E-02 0.12500187E+03</pdfrwt>
<totfact> 0.10309952E+04</totfact>
</mgrwt>
</event>
<event>
 5    1  0.3331626E-002  0.1249972E+03  0.7818608E-02  0.1235074E+00
         -4   -1    0    0    0  501 -0.00000000000E+00  0.00000000000E+00  0.56481160811E+03  0.56481303593E+03  0.12700000000E+01 0. -1.
          4   -1    0    0  501    0  0.00000000000E+00 -0.00000000000E+00 -0.68559566565E+01  0.69725921776E+01  0.12700000000E+01 0. -1.
         25    2    1    2    0    0  0.00000000000E+00  0.00000000000E+00  0.55795565145E+03  0.57178562811E+03  0.12499718205E+03 0.  0.
    9000005    1    3    3    0    0  0.25715324510E+02 -0.56953223069E+02  0.28060381077E+03  0.28747947083E+03  0.10000000000E+01 0.  0.
    9000005    1    3    3    0    0 -0.25715324510E+02  0.56953223069E+02  0.27735184068E+03  0.28430615727E+03  0.10000000000E+01 0.  0.
<mgrwt>
<rscale>  0 0.12499718E+03</rscale>
<asrwt>0</asrwt>
<pdfrwt beam="2">  1        4 0.10638443E-02 0.12499718E+03</pdfrwt>
<pdfrwt beam="1">  1       -4 0.86903179E-01 0.12499718E+03</pdfrwt>
<totfact> 0.50701564E+03</totfact>
</mgrwt>
</event>
<event>
 5    1  0.3331626E-002  0.1249994E+03  0.7818608E-02  0.1235070E+00
         -4   -1    0    0    0  501 -0.00000000000E+00  0.00000000000E+00  0.13983088433E+02  0.14040643224E+02  0.12700000000E+01 0.  1.
          4   -1    0    0  501    0  0.00000000000E+00 -0.00000000000E+00 -0.27871976932E+03  0.27872266272E+03  0.12700000000E+01 0.  1.
         25    2    1    2    0    0  0.00000000000E+00  0.00000000000E+00 -0.26473668089E+03  0.29276330594E+03  0.12499937238E+03 0.  0.
    9000005    1    3    3    0    0  0.58390456176E+02  0.28143924987E+01 -0.80637496966E+02  0.99603072717E+02  0.10000000000E+01 0.  0.
    9000005    1    3    3    0    0 -0.58390456176E+02 -0.28143924987E+01 -0.18409918392E+03  0.19316023322E+03  0.10000000000E+01 0.  0.
<mgrwt>
<rscale>  0 0.12499937E+03</rscale>
<asrwt>0</asrwt>
<pdfrwt beam="2">  1        4 0.42884610E-01 0.12499937E+03</pdfrwt>
<pdfrwt beam="1">  1       -4 0.21558944E-02 0.12499937E+03</pdfrwt>
<totfact> 0.76516725E+03</totfact>
</mgrwt>
</event>
<event>
 5    1  0.3331626E-002  0.1249995E+03  0.7818608E-02  0.1235070E+00
          4   -1    0    0  501    0  0.00000000000E+00  0.00000000000E+00  0.10215147867E+03  0.10215937301E+03  0.12700000000E+01 0. -1.
         -4   -1    0    0    0  501 -0.00000000000E+00 -0.00000000000E+00 -0.38219564292E+02  0.38240658920E+02  0.12700000000E+01 0. -1.
         25    2    1    2    0    0  0.00000000000E+00  0.00000000000E+00  0.63931914376E+02  0.14040003193E+03  0.12499951716E+03 0.  0.
    9000005    1    3    3    0    0  0.92062864118E+00 -0.36471278642E+02 -0.25021796812E+02  0.44250333768E+02  0.10000000000E+01 0.  0.
    9000005    1    3    3    0    0 -0.92062864118E+00  0.36471278642E+02  0.88953711188E+02  0.96149698164E+02  0.10000000000E+01 0.  0.
<mgrwt>
<rscale>  0 0.12499952E+03</rscale>
<asrwt>0</asrwt>
<pdfrwt beam="1">  1        4 0.15717842E-01 0.12499952E+03</pdfrwt>
<pdfrwt beam="2">  1       -4 0.58821630E-02 0.12499952E+03</pdfrwt>
<totfact> 0.10125412E+04</totfact>
</mgrwt>
</event>
<event>
 5    1  0.3331626E-002  0.1250005E+03  0.7818608E-02  0.1235068E+00
         -4   -1    0    0    0  501 -0.00000000000E+00  0.00000000000E+00  0.20589704596E+02  0.20628835046E+02  0.12700000000E+01 0.  1.
          4   -1    0    0  501    0  0.00000000000E+00 -0.00000000000E+00 -0.18949877372E+03  0.18950302937E+03  0.12700000000E+01 0.  1.
         25    2    1    2    0    0  0.00000000000E+00  0.00000000000E+00 -0.16890906912E+03  0.21013186441E+03  0.12500050724E+03 0.  0.
    9000005    1    3    3    0    0  0.14086408640E+02  0.60233753163E+02 -0.69536733966E+02  0.93074643696E+02  0.10000000000E+01 0.  0.
    9000005    1    3    3    0    0 -0.14086408640E+02 -0.60233753163E+02 -0.99372335153E+02  0.11705722072E+03  0.10000000000E+01 0.  0.
<mgrwt>
<rscale>  0 0.12500051E+03</rscale>
<asrwt>0</asrwt>
<pdfrwt beam="2">  1        4 0.29156994E-01 0.12500051E+03</pdfrwt>
<pdfrwt beam="1">  1       -4 0.31709844E-02 0.12500051E+03</pdfrwt>
<totfact> 0.88453348E+03</totfact>
</mgrwt>
</event>
<event>
 5    1  0.3331626E-002  0.1250015E+03  0.7818608E-02  0.1235067E+00
          4   -1    0    0  501    0  0.00000000000E+00  0.00000000000E+00  0.32379126287E+03  0.32379375351E+03  0.12700000000E+01 0. -1.
         -4   -1    0    0    0  501 -0.00000000000E+00 -0.00000000000E+00 -0.12028429651E+02  0.12095289160E+02  0.12700000000E+01 0. -1.
         25    2    1    2    0    0  0.00000000000E+00  0.00000000000E+00  0.31176283322E+03  0.33588904266E+03  0.12500153922E+03 0.  0.
    9000005    1    3    3    0    0  0.20443069958E+02 -0.42659550810E+02  0.26561134431E+03  0.26979277717E+03  0.10000000000E+01 0.  0.
    9000005    1    3    3    0    0 -0.20443069958E+02  0.42659550810E+02  0.46151488905E+02  0.66096265498E+02  0.10000000000E+01 0.  0.
<mgrwt>
<rscale>  0 0.12500154E+03</rscale>
<asrwt>0</asrwt>
<pdfrwt beam="1">  1        4 0.49819375E-01 0.12500154E+03</pdfrwt>
<pdfrwt beam="2">  1       -4 0.18558623E-02 0.12500154E+03</pdfrwt>
<totfact> 0.71302918E+03</totfact>
</mgrwt>
</event>
<event>
 5    1  0.3331626E-002  0.1249996E+03  0.7818608E-02  0.1235070E+00
         -4   -1    0    0    0  501 -0.00000000000E+00  0.00000000000E+00  0.10786597517E+02  0.10861104272E+02  0.12700000000E+01 0. -1.
          4   -1    0    0  501    0  0.00000000000E+00 -0.00000000000E+00 -0.36081474572E+03  0.36081698079E+03  0.12700000000E+01 0. -1.
         25    2    1    2    0    0  0.00000000000E+00  0.00000000000E+00 -0.35002814820E+03  0.37167808506E+03  0.12499957753E+03 0.  0.
    9000005    1    3    3    0    0 -0.57082049069E+02  0.25279071118E+02 -0.16669279421E+03  0.17800247021E+03  0.10000000000E+01 0.  0.
    9000005    1    3    3    0    0  0.57082049069E+02 -0.25279071118E+02 -0.18333535400E+03  0.19367561485E+03  0.10000000000E+01 0.  0.
<mgrwt>
<rscale>  0 0.12499958E+03</rscale>
<asrwt>0</asrwt>
<pdfrwt beam="2">  1        4 0.55515855E-01 0.12499958E+03</pdfrwt>
<pdfrwt beam="1">  1       -4 0.16653800E-02 0.12499958E+03</pdfrwt>
<totfact> 0.67404376E+03</totfact>
</mgrwt>
</event>
<event>
 5    1  0.3331626E-002  0.1250014E+03  0.7818608E-02  0.1235067E+00
         -4   -1    0    0    0  501 -0.00000000000E+00  0.00000000000E+00  0.54115375268E+02  0.54130275636E+02  0.12700000000E+01 0.  1.
          4   -1    0    0  501    0  0.00000000000E+00 -0.00000000000E+00 -0.72154921942E+02  0.72166097722E+02  0.12700000000E+01 0.  1.
         25    2    1    2    0    0  0.00000000000E+00  0.00000000000E+00 -0.18039546674E+02  0.12629637336E+03  0.12500139471E+03 0.  0.
    9000005    1    3    3    0    0 -0.42112940671E+01  0.44426816973E+02 -0.53220673705E+02  0.69461623748E+02  0.10000000000E+01 0.  0.
    9000005    1    3    3    0    0  0.42112940671E+01 -0.44426816973E+02  0.35181127031E+02  0.56834749610E+02  0.10000000000E+01 0.  0.
<mgrwt>
<rscale>  0 0.12500139E+03</rscale>
<asrwt>0</asrwt>
<pdfrwt beam="2">  1        4 0.11102763E-01 0.12500139E+03</pdfrwt>
<pdfrwt beam="1">  1       -4 0.83274482E-02 0.12500139E+03</pdfrwt>
<totfact> 0.10424144E+04</totfact>
</mgrwt>
</event>
<event>
 5    1  0.3331626E-002  0.1249957E+03  0.7818608E-02  0.1235076E+00
          4   -1    0    0  501    0  0.00000000000E+00  0.00000000000E+00  0.27753994494E+02  0.27783036378E+02  0.12700000000E+01 0. -1.
         -4   -1    0    0    0  501 -0.00000000000E+00 -0.00000000000E+00 -0.14063034615E+03  0.14063608057E+03  0.12700000000E+01 0. -1.
         25    2    1    2    0    0  0.00000000000E+00  0.00000000000E+00 -0.11287635165E+03  0.16841911694E+03  0.12499571269E+03 0.  0.
    9000005    1    3    3    0    0 -0.87501923583E+01  0.59019261004E+02 -0.81470190867E+02  0.10098629133E+03  0.10000000000E+01 0.  0.
    9000005    1    3    3    0    0  0.87501923583E+01 -0.59019261004E+02 -0.31406160784E+02  0.67432825619E+02  0.10000000000E+01 0.  0.
<mgrwt>
<rscale>  0 0.12499571E+03</rscale>
<asrwt>0</asrwt>
<pdfrwt beam="1">  1        4 0.42725205E-02 0.12499571E+03</pdfrwt>
<pdfrwt beam="2">  1       -4 0.21638113E-01 0.12499571E+03</pdfrwt>
<totfact> 0.95752974E+03</totfact>
</mgrwt>
</event>
<event>
 5    1  0.3331626E-002  0.1249884E+03  0.7818608E-02  0.1235087E+00
         -4   -1    0    0    0  501 -0.00000000000E+00  0.00000000000E+00  0.18600806737E+03  0.18601240289E+03  0.12700000000E+01 0. -1.
          4   -1    0    0  501    0  0.00000000000E+00 -0.00000000000E+00 -0.20972730068E+02  0.21011147196E+02  0.12700000000E+01 0. -1.
         25    2    1    2    0    0  0.00000000000E+00  0.00000000000E+00  0.16503533730E+03  0.20702355008E+03  0.12498835038E+03 0.  0.
    9000005    1    3    3    0    0 -0.46332560386E+02 -0.26883851485E+02  0.13580647353E+03  0.14599262268E+03  0.10000000000E+01 0.  0.
    9000005    1    3    3    0    0  0.46332560386E+02  0.26883851485E+02  0.29228863771E+02  0.61030927406E+02  0.10000000000E+01 0.  0.
<mgrwt>
<rscale>  0 0.12498835E+03</rscale>
<asrwt>0</asrwt>
<pdfrwt beam="2">  1        4 0.32298626E-02 0.12498835E+03</pdfrwt>
<pdfrwt beam="1">  1       -4 0.28619914E-01 0.12498835E+03</pdfrwt>
<totfact> 0.88987473E+03</totfact>
</mgrwt>
</event>
<event>
 5    1  0.3331626E-002  0.1250025E+03  0.7818608E-02  0.1235065E+00
          4   -1    0    0  501    0  0.00000000000E+00  0.00000000000E+00  0.60536170063E+02  0.60549490385E+02  0.12700000000E+01 0.  1.
         -4   -1    0    0    0  501 -0.00000000000E+00 -0.00000000000E+00 -0.64503495067E+02  0.64515996279E+02  0.12700000000E+01 0.  1.
         25    2    1    2    0    0  0.00000000000E+00  0.00000000000E+00 -0.39673250037E+01  0.12506548666E+03  0.12500254512E+03 0.  0.
    9000005    1    3    3    0    0 -0.17881074518E+02 -0.19257403813E+02 -0.58711670873E+02  0.64332268141E+02  0.10000000000E+01 0.  0.
    9000005    1    3    3    0    0  0.17881074518E+02  0.19257403813E+02  0.54744345869E+02  0.60733218523E+02  0.10000000000E+01 0.  0.
<mgrwt>
<rscale>  0 0.12500255E+03</rscale>
<asrwt>0</asrwt>
<pdfrwt beam="1">  1        4 0.93152433E-02 0.12500255E+03</pdfrwt>
<pdfrwt beam="2">  1       -4 0.99256008E-02 0.12500255E+03</pdfrwt>
<totfact> 0.10450839E+04</totfact>
</mgrwt>
</event>
<event>
 5    1  0.3331626E-002  0.1249993E+03  0.7818608E-02  0.1235070E+00
          4   -1    0    0  501    0  0.00000000000E+00  0.00000000000E+00  0.22353084097E+03  0.22353444872E+03  0.12700000000E+01 0. -1.
         -4   -1    0    0    0  501 -0.00000000000E+00 -0.00000000000E+00 -0.17448196858E+02  0.17494355478E+02  0.12700000000E+01 0. -1.
         25    2    1    2    0    0  0.00000000000E+00  0.00000000000E+00  0.20608264411E+03  0.24102880420E+03  0.12499931299E+03 0.  0.
    9000005    1    3    3    0    0  0.12244079011E+02  0.12194021419E+02  0.21884171531E+03  0.21952518759E+03  0.10000000000E+01 0.  0.
    9000005    1    3    3    0    0 -0.12244079011E+02 -0.12194021419E+02 -0.12759071198E+02  0.21503616603E+02  0.10000000000E+01 0.  0.
<mgrwt>
<rscale>  0 0.12499931E+03</rscale>
<asrwt>0</asrwt>
<pdfrwt beam="1">  1        4 0.34393185E-01 0.12499931E+03</pdfrwt>
<pdfrwt beam="2">  1       -4 0.26881664E-02 0.12499931E+03</pdfrwt>
<totfact> 0.83645667E+03</totfact>
</mgrwt>
</event>
<event>
 4    1  0.3331626E-002  0.1243642E+03  0.7818608E-02  0.1236066E+00
         -4   -1    0    0    0  501 -0.00000000000E+00  0.00000000000E+00  0.14857698732E+04  0.14857704159E+04  0.12700000000E+01 0. -1.
          4   -1    0    0  501    0  0.00000000000E+00 -0.00000000000E+00 -0.24469147233E+01  0.27568626485E+01  0.12700000000E+01 0. -1.
    9000005    1    1    2    0    0 -0.44104800526E+02 -0.36874760301E+02  0.45826078242E+03  0.46185379297E+03  0.10000000000E+01 0.  0.
    9000005    1    1    2    0    0  0.44104800526E+02  0.36874760301E+02  0.10250621760E+04  0.10266734856E+04  0.10000000000E+01 0.  0.
<mgrwt>
<rscale>  0 0.12436422E+03</rscale>
<asrwt>0</asrwt>
<pdfrwt beam="2">  1        4 0.40033199E-03 0.12436422E+03</pdfrwt>
<pdfrwt beam="1">  1       -4 0.22860405E+00 0.12436422E+03</pdfrwt>
<totfact> 0.18411765E+03</totfact>
</mgrwt>
</event>
<event>
 5    1  0.3331626E-002  0.1249951E+03  0.7818608E-02  0.1235077E+00
          4   -1    0    0  501    0  0.00000000000E+00  0.00000000000E+00  0.20647101215E+02  0.20686123092E+02  0.12700000000E+01 0. -1.
         -4   -1    0    0    0  501 -0.00000000000E+00 -0.00000000000E+00 -0.18895669764E+03  0.18896096550E+03  0.12700000000E+01 0. -1.
         25    2    1    2    0    0  0.00000000000E+00  0.00000000000E+00 -0.16830959643E+03  0.20964708859E+03  0.12499512593E+03 0.  0.
    9000005    1    3    3    0    0  0.40512835062E+02  0.46218610661E+02 -0.10309320133E+03  0.12002773820E+03  0.10000000000E+01 0.  0.
    9000005    1    3    3    0    0 -0.40512835062E+02 -0.46218610661E+02 -0.65216395094E+02  0.89619350394E+02  0.10000000000E+01 0.  0.
<mgrwt>
<rscale>  0 0.12499513E+03</rscale>
<asrwt>0</asrwt>
<pdfrwt beam="1">  1        4 0.31798072E-02 0.12499513E+03</pdfrwt>
<pdfrwt beam="2">  1       -4 0.29073590E-01 0.12499513E+03</pdfrwt>
<totfact> 0.88543197E+03</totfact>
</mgrwt>
</event>
<event>
 5    1  0.3331626E-002  0.1249975E+03  0.7818608E-02  0.1235073E+00
          4   -1    0    0  501    0  0.00000000000E+00  0.00000000000E+00  0.22101621816E+03  0.22101986695E+03  0.12700000000E+01 0.  1.
         -4   -1    0    0    0  501 -0.00000000000E+00 -0.00000000000E+00 -0.17646717148E+02  0.17692357844E+02  0.12700000000E+01 0.  1.
         25    2    1    2    0    0  0.00000000000E+00  0.00000000000E+00  0.20336950101E+03  0.23871222480E+03  0.12499748928E+03 0.  0.
    9000005    1    3    3    0    0  0.51104052142E+02  0.15380388191E+02  0.16377063998E+03  0.17224982730E+03  0.10000000000E+01 0.  0.
    9000005    1    3    3    0    0 -0.51104052142E+02 -0.15380388191E+02  0.39598861032E+02  0.66462397499E+02  0.10000000000E+01 0.  0.
<mgrwt>
<rscale>  0 0.12499749E+03</rscale>
<asrwt>0</asrwt>
<pdfrwt beam="1">  1        4 0.34006286E-01 0.12499749E+03</pdfrwt>
<pdfrwt beam="2">  1       -4 0.27186711E-02 0.12499749E+03</pdfrwt>
<totfact> 0.83994234E+03</totfact>
</mgrwt>
</event>
<event>
 5    1  0.3331626E-002  0.1250012E+03  0.7818608E-02  0.1235067E+00
         -4   -1    0    0    0  501 -0.00000000000E+00  0.00000000000E+00  0.17240836721E+02  0.17287549012E+02  0.12700000000E+01 0. -1.
          4   -1    0    0  501    0  0.00000000000E+00 -0.00000000000E+00 -0.22621899178E+03  0.22622255667E+03  0.12700000000E+01 0. -1.
         25    2    1    2    0    0  0.00000000000E+00  0.00000000000E+00 -0.20897815506E+03  0.24351010568E+03  0.12500120909E+03 0.  0.
    9000005    1    3    3    0    0 -0.24710978582E+02  0.33643020724E+02 -0.13891831095E+02  0.44005321009E+02  0.10000000000E+01 0.  0.
    9000005    1    3    3    0    0  0.24710978582E+02 -0.33643020724E+02 -0.19508632397E+03  0.19950478467E+03  0.10000000000E+01 0.  0.
<mgrwt>
<rscale>  0 0.12500121E+03</rscale>
<asrwt>0</asrwt>
<pdfrwt beam="2">  1        4 0.34806787E-01 0.12500121E+03</pdfrwt>
<pdfrwt beam="1">  1       -4 0.26563041E-02 0.12500121E+03</pdfrwt>
<totfact> 0.83275118E+03</totfact>
</mgrwt>
</event>
<event>
 5    1  0.3331626E-002  0.1249993E+03  0.7818608E-02  0.1235070E+00
          4   -1    0    0  501    0  0.00000000000E+00  0.00000000000E+00  0.11524605172E+02  0.11594370374E+02  0.12700000000E+01 0.  1.
         -4   -1    0    0    0  501 -0.00000000000E+00 -0.00000000000E+00 -0.33785102081E+03  0.33785340780E+03  0.12700000000E+01 0.  1.
         25    2    1    2    0    0  0.00000000000E+00  0.00000000000E+00 -0.32632641564E+03  0.34944777817E+03  0.12499928051E+03 0.  0.
    9000005    1    3    3    0    0  0.34466625208E+02  0.27777425492E+02 -0.28647639397E+03  0.28987800524E+03  0.10000000000E+01 0.  0.
    9000005    1    3    3    0    0 -0.34466625208E+02 -0.27777425492E+02 -0.39850021664E+02  0.59569772929E+02  0.10000000000E+01 0.  0.
<mgrwt>
<rscale>  0 0.12499928E+03</rscale>
<asrwt>0</asrwt>
<pdfrwt beam="1">  1        4 0.17785666E-02 0.12499928E+03</pdfrwt>
<pdfrwt beam="2">  1       -4 0.51982623E-01 0.12499928E+03</pdfrwt>
<totfact> 0.69786464E+03</totfact>
</mgrwt>
</event>
<event>
 5    1  0.3331626E-002  0.1249981E+03  0.7818608E-02  0.1235072E+00
         -4   -1    0    0    0  501 -0.00000000000E+00  0.00000000000E+00  0.34678368355E+02  0.34701615693E+02  0.12700000000E+01 0.  1.
          4   -1    0    0  501    0  0.00000000000E+00 -0.00000000000E+00 -0.11257429749E+03  0.11258146098E+03  0.12700000000E+01 0.  1.
         25    2    1    2    0    0  0.00000000000E+00  0.00000000000E+00 -0.77895929138E+02  0.14728307667E+03  0.12499811558E+03 0.  0.
    9000005    1    3    3    0    0 -0.51878577896E+02 -0.26296164344E+02 -0.12020741568E+02  0.59400112218E+02  0.10000000000E+01 0.  0.
    9000005    1    3    3    0    0  0.51878577896E+02  0.26296164344E+02 -0.65875187570E+02  0.87882964453E+02  0.10000000000E+01 0.  0.
<mgrwt>
<rscale>  0 0.12499812E+03</rscale>
<asrwt>0</asrwt>
<pdfrwt beam="2">  1        4 0.17321462E-01 0.12499812E+03</pdfrwt>
<pdfrwt beam="1">  1       -4 0.53374729E-02 0.12499812E+03</pdfrwt>
<totfact> 0.99852295E+03</totfact>
</mgrwt>
</event>
<event>
 5    1  0.3331626E-002  0.1250035E+03  0.7818608E-02  0.1235064E+00
          4   -1    0    0  501    0  0.00000000000E+00  0.00000000000E+00  0.34937786304E+03  0.34938017128E+03  0.12700000000E+01 0.  1.
         -4   -1    0    0    0  501 -0.00000000000E+00 -0.00000000000E+00 -0.11142791427E+02  0.11214932046E+02  0.12700000000E+01 0.  1.
         25    2    1    2    0    0  0.00000000000E+00  0.00000000000E+00  0.33823507161E+03  0.36059510332E+03  0.12500345944E+03 0.  0.
    9000005    1    3    3    0    0 -0.29094261393E+02 -0.46679215285E+02  0.25469299805E+03  0.26056659119E+03  0.10000000000E+01 0.  0.
    9000005    1    3    3    0    0  0.29094261393E+02  0.46679215285E+02  0.83542073558E+02  0.10002851214E+03  0.10000000000E+01 0.  0.
<mgrwt>
<rscale>  0 0.12500346E+03</rscale>
<asrwt>0</asrwt>
<pdfrwt beam="1">  1        4 0.53756159E-01 0.12500346E+03</pdfrwt>
<pdfrwt beam="2">  1       -4 0.17200027E-02 0.12500346E+03</pdfrwt>
<totfact> 0.68569236E+03</totfact>
</mgrwt>
</event>
<event>
 5    1  0.3331626E-002  0.1250083E+03  0.7818608E-02  0.1235056E+00
         -4   -1    0    0    0  501 -0.00000000000E+00  0.00000000000E+00  0.10750785997E+03  0.10751536102E+03  0.12700000000E+01 0. -1.
          4   -1    0    0  501    0  0.00000000000E+00 -0.00000000000E+00 -0.36319485539E+02  0.36341683090E+02  0.12700000000E+01 0. -1.
         25    2    1    2    0    0  0.00000000000E+00  0.00000000000E+00  0.71188374429E+02  0.14385704411E+03  0.12500825767E+03 0.  0.
    9000005    1    3    3    0    0  0.54043576347E+02  0.11868196612E+02  0.21580496139E+01  0.55382482910E+02  0.10000000000E+01 0.  0.
    9000005    1    3    3    0    0 -0.54043576347E+02 -0.11868196612E+02  0.69030324815E+02  0.88474561198E+02  0.10000000000E+01 0.  0.
<mgrwt>
<rscale>  0 0.12500826E+03</rscale>
<asrwt>0</asrwt>
<pdfrwt beam="2">  1        4 0.55898977E-02 0.12500826E+03</pdfrwt>
<pdfrwt beam="1">  1       -4 0.16541955E-01 0.12500826E+03</pdfrwt>
<totfact> 0.10052393E+04</totfact>
</mgrwt>
</event>
<event>
 5    1  0.3331626E-002  0.1249976E+03  0.7818608E-02  0.1235073E+00
         -4   -1    0    0    0  501 -0.00000000000E+00  0.00000000000E+00  0.19046500349E+01  0.22892338796E+01  0.12700000000E+01 0. -1.
          4   -1    0    0  501    0  0.00000000000E+00 -0.00000000000E+00 -0.18623761841E+04  0.18623766171E+04  0.12700000000E+01 0. -1.
         25    2    1    2    0    0  0.00000000000E+00  0.00000000000E+00 -0.18604715340E+04  0.18646658510E+04  0.12499762728E+03 0.  0.
    9000005    1    3    3    0    0  0.16148580469E+02  0.58742848076E+02 -0.11378012463E+04  0.11394315140E+04  0.10000000000E+01 0.  0.
    9000005    1    3    3    0    0 -0.16148580469E+02 -0.58742848076E+02 -0.72267028770E+03  0.72523433701E+03  0.10000000000E+01 0.  0.
<mgrwt>
<rscale>  0 0.12499763E+03</rscale>
<asrwt>0</asrwt>
<pdfrwt beam="2">  1        4 0.28654771E+00 0.12499763E+03</pdfrwt>
<pdfrwt beam="1">  1       -4 0.32264125E-03 0.12499763E+03</pdfrwt>
<totfact> 0.11733590E+03</totfact>
</mgrwt>
</event>
<event>
 5    1  0.3331626E-002  0.1249948E+03  0.7818608E-02  0.1235077E+00
         -4   -1    0    0    0  501 -0.00000000000E+00  0.00000000000E+00  0.12147509265E+03  0.12148173128E+03  0.12700000000E+01 0.  1.
          4   -1    0    0  501    0  0.00000000000E+00 -0.00000000000E+00 -0.32134061774E+02  0.32159148404E+02  0.12700000000E+01 0.  1.
         25    2    1    2    0    0  0.00000000000E+00  0.00000000000E+00  0.89341030880E+02  0.15364087969E+03  0.12499480034E+03 0.  0.
    9000005    1    3    3    0    0 -0.32128901554E+01  0.13007582178E+01  0.12136286473E+03  0.12141647158E+03  0.10000000000E+01 0.  0.
    9000005    1    3    3    0    0  0.32128901554E+01 -0.13007582178E+01 -0.32021833848E+02  0.32224408110E+02  0.10000000000E+01 0.  0.
<mgrwt>
<rscale>  0 0.12499480E+03</rscale>
<asrwt>0</asrwt>
<pdfrwt beam="2">  1        4 0.49461423E-02 0.12499480E+03</pdfrwt>
<pdfrwt beam="1">  1       -4 0.18690916E-01 0.12499480E+03</pdfrwt>
<totfact> 0.98594364E+03</totfact>
</mgrwt>
</event>
<event>
 5    1  0.3331626E-002  0.1250002E+03  0.7818608E-02  0.1235069E+00
         -4   -1    0    0    0  501 -0.00000000000E+00  0.00000000000E+00  0.36333947787E+02  0.36356136508E+02  0.12700000000E+01 0.  1.
          4   -1    0    0  501    0  0.00000000000E+00 -0.00000000000E+00 -0.10745131693E+03  0.10745882193E+03  0.12700000000E+01 0.  1.
         25    2    1    2    0    0  0.00000000000E+00  0.00000000000E+00 -0.71117369145E+02  0.14381495844E+03  0.12500024831E+03 0.  0.
    9000005    1    3    3    0    0 -0.37573187431E+02 -0.19146362206E+02  0.17501724199E+02  0.45668785285E+02  0.10000000000E+01 0.  0.
    9000005    1    3    3    0    0  0.37573187431E+02  0.19146362206E+02 -0.88619093344E+02  0.98146173153E+02  0.10000000000E+01 0.  0.
<mgrwt>
<rscale>  0 0.12500025E+03</rscale>
<asrwt>0</asrwt>
<pdfrwt beam="2">  1        4 0.16533256E-01 0.12500025E+03</pdfrwt>
<pdfrwt beam="1">  1       -4 0.55921223E-02 0.12500025E+03</pdfrwt>
<totfact> 0.10055065E+04</totfact>
</mgrwt>
</event>
<event>
 5    1  0.3331626E-002  0.1249919E+03  0.7818608E-02  0.1235082E+00
          4   -1    0    0  501    0  0.00000000000E+00  0.00000000000E+00  0.25410047255E+02  0.25441764905E+02  0.12700000000E+01 0. -1.
         -4   -1    0    0    0  501 -0.00000000000E+00 -0.00000000000E+00 -0.15357847587E+03  0.15358372685E+03  0.12700000000E+01 0. -1.
         25    2    1    2    0    0  0.00000000000E+00  0.00000000000E+00 -0.12816842862E+03  0.17902549175E+03  0.12499192215E+03 0.  0.
    9000005    1    3    3    0    0  0.65821489484E+00 -0.32835383684E+02  0.12058874975E+02  0.35000173345E+02  0.10000000000E+01 0.  0.
    9000005    1    3    3    0    0 -0.65821489484E+00  0.32835383684E+02 -0.14022730359E+03  0.14402531841E+03  0.10000000000E+01 0.  0.
<mgrwt>
<rscale>  0 0.12499192E+03</rscale>
<asrwt>0</asrwt>
<pdfrwt beam="1">  1        4 0.39120819E-02 0.12499192E+03</pdfrwt>
<pdfrwt beam="2">  1       -4 0.23630301E-01 0.12499192E+03</pdfrwt>
<totfact> 0.93809704E+03</totfact>
</mgrwt>
</event>
<event>
 5    1  0.3331626E-002  0.1250006E+03  0.7818608E-02  0.1235068E+00
          4   -1    0    0  501    0  0.00000000000E+00  0.00000000000E+00  0.10234736290E+03  0.10235524213E+03  0.12700000000E+01 0.  1.
         -4   -1    0    0    0  501 -0.00000000000E+00 -0.00000000000E+00 -0.38147054283E+02  0.38168188986E+02  0.12700000000E+01 0.  1.
         25    2    1    2    0    0  0.00000000000E+00  0.00000000000E+00  0.64200308613E+02  0.14052343112E+03  0.12500062027E+03 0.  0.
    9000005    1    3    3    0    0  0.11823003028E+02  0.52313684320E+02 -0.39575967065E+01  0.53788172858E+02  0.10000000000E+01 0.  0.
    9000005    1    3    3    0    0 -0.11823003028E+02 -0.52313684320E+02  0.68157905319E+02  0.86735258259E+02  0.10000000000E+01 0.  0.
<mgrwt>
<rscale>  0 0.12500062E+03</rscale>
<asrwt>0</asrwt>
<pdfrwt beam="1">  1        4 0.15747980E-01 0.12500062E+03</pdfrwt>
<pdfrwt beam="2">  1       -4 0.58710095E-02 0.12500062E+03</pdfrwt>
<totfact> 0.10122608E+04</totfact>
</mgrwt>
</event>
<event>
 5    1  0.3331626E-002  0.1249982E+03  0.7818608E-02  0.1235072E+00
         -4   -1    0    0    0  501 -0.00000000000E+00  0.00000000000E+00  0.29944894764E+02  0.29971813800E+02  0.12700000000E+01 0. -1.
          4   -1    0    0  501    0  0.00000000000E+00 -0.00000000000E+00 -0.13035559553E+03  0.13036178192E+03  0.12700000000E+01 0. -1.
         25    2    1    2    0    0  0.00000000000E+00  0.00000000000E+00 -0.10041070077E+03  0.16033359572E+03  0.12499821234E+03 0.  0.
    9000005    1    3    3    0    0  0.11924818864E+02  0.27706476665E+02  0.19995121629E+02  0.36202970087E+02  0.10000000000E+01 0.  0.
    9000005    1    3    3    0    0 -0.11924818864E+02 -0.27706476665E+02 -0.12040582240E+03  0.12413062564E+03  0.10000000000E+01 0.  0.
<mgrwt>
<rscale>  0 0.12499821E+03</rscale>
<asrwt>0</asrwt>
<pdfrwt beam="2">  1        4 0.20057253E-01 0.12499821E+03</pdfrwt>
<pdfrwt beam="1">  1       -4 0.46094536E-02 0.12499821E+03</pdfrwt>
<totfact> 0.97282418E+03</totfact>
</mgrwt>
</event>
<event>
 5    1  0.3331626E-002  0.1250161E+03  0.7818608E-02  0.1235044E+00
         -4   -1    0    0    0  501 -0.00000000000E+00  0.00000000000E+00  0.36898886693E+02  0.36920735897E+02  0.12700000000E+01 0.  1.
          4   -1    0    0  501    0  0.00000000000E+00 -0.00000000000E+00 -0.10583384435E+03  0.10584146404E+03  0.12700000000E+01 0.  1.
         25    2    1    2    0    0  0.00000000000E+00  0.00000000000E+00 -0.68934957659E+02  0.14276219994E+03  0.12501606834E+03 0.  0.
    9000005    1    3    3    0    0  0.57006751779E+00  0.34750533452E+02  0.24851669726E+02  0.42737922742E+02  0.10000000000E+01 0.  0.
    9000005    1    3    3    0    0 -0.57006751779E+00 -0.34750533452E+02 -0.93786627385E+02  0.10002427719E+03  0.10000000000E+01 0.  0.
<mgrwt>
<rscale>  0 0.12501607E+03</rscale>
<asrwt>0</asrwt>
<pdfrwt beam="2">  1        4 0.16284397E-01 0.12501607E+03</pdfrwt>
<pdfrwt beam="1">  1       -4 0.56790187E-02 0.12501607E+03</pdfrwt>
<totfact> 0.10073009E+04</totfact>
</mgrwt>
</event>
<event>
 5    1  0.3331626E-002  0.1249981E+03  0.7818608E-02  0.1235072E+00
         -4   -1    0    0    0  501 -0.00000000000E+00  0.00000000000E+00  0.80764991314E+01  0.81757408361E+01  0.12700000000E+01 0. -1.
          4   -1    0    0  501    0  0.00000000000E+00 -0.00000000000E+00 -0.48058837272E+03  0.48059005076E+03  0.12700000000E+01 0. -1.
         25    2    1    2    0    0  0.00000000000E+00  0.00000000000E+00 -0.47251187358E+03  0.48876579160E+03  0.12499811341E+03 0.  0.
    9000005    1    3    3    0    0  0.29156440761E+02  0.40666179097E+02 -0.38262937499E+03  0.38588868183E+03  0.10000000000E+01 0.  0.
    9000005    1    3    3    0    0 -0.29156440761E+02 -0.40666179097E+02 -0.89882498599E+02  0.10287710977E+03  0.10000000000E+01 0.  0.
<mgrwt>
<rscale>  0 0.12499811E+03</rscale>
<asrwt>0</asrwt>
<pdfrwt beam="2">  1        4 0.73944414E-01 0.12499811E+03</pdfrwt>
<pdfrwt beam="1">  1       -4 0.12503018E-02 0.12499811E+03</pdfrwt>
<totfact> 0.56749025E+03</totfact>
</mgrwt>
</event>
<event>
 5    1  0.3331626E-002  0.1249982E+03  0.7818608E-02  0.1235072E+00
          4   -1    0    0  501    0  0.00000000000E+00  0.00000000000E+00  0.10412761246E+04  0.10412768991E+04  0.12700000000E+01 0. -1.
         -4   -1    0    0    0  501 -0.00000000000E+00 -0.00000000000E+00 -0.36430124798E+01  0.38580357603E+01  0.12700000000E+01 0. -1.
         25    2    1    2    0    0  0.00000000000E+00  0.00000000000E+00  0.10376331121E+04  0.10451349348E+04  0.12499822663E+03 0.  0.
    9000005    1    3    3    0    0  0.83198747244E+01 -0.80178128584E+00  0.10366222531E+04  0.10366564323E+04  0.10000000000E+01 0.  0.
    9000005    1    3    3    0    0 -0.83198747244E+01  0.80178128584E+00  0.10108590591E+01  0.84785025033E+01  0.10000000000E+01 0.  0.
<mgrwt>
<rscale>  0 0.12499823E+03</rscale>
<asrwt>0</asrwt>
<pdfrwt beam="1">  1        4 0.16021296E+00 0.12499823E+03</pdfrwt>
<pdfrwt beam="2">  1       -4 0.57706316E-03 0.12499823E+03</pdfrwt>
<totfact> 0.29148280E+03</totfact>
</mgrwt>
</event>
<event>
 5    1  0.3331626E-002  0.1249995E+03  0.7818608E-02  0.1235070E+00
         -4   -1    0    0    0  501 -0.00000000000E+00  0.00000000000E+00  0.56028876473E+01  0.57450195812E+01  0.12700000000E+01 0. -1.
          4   -1    0    0  501    0  0.00000000000E+00 -0.00000000000E+00 -0.68830473871E+03  0.68830591036E+03  0.12700000000E+01 0. -1.
         25    2    1    2    0    0  0.00000000000E+00  0.00000000000E+00 -0.68270185106E+03  0.69405092994E+03  0.12499950361E+03 0.  0.
    9000005    1    3    3    0    0 -0.45834839474E+02  0.40825515064E+02 -0.27620415282E+03  0.28294396834E+03  0.10000000000E+01 0.  0.
    9000005    1    3    3    0    0  0.45834839474E+02 -0.40825515064E+02 -0.40649769825E+03  0.41110696159E+03  0.10000000000E+01 0.  0.
<mgrwt>
<rscale>  0 0.12499950E+03</rscale>
<asrwt>0</asrwt>
<pdfrwt beam="2">  1        4 0.10590399E+00 0.12499950E+03</pdfrwt>
<pdfrwt beam="1">  1       -4 0.87300661E-03 0.12499950E+03</pdfrwt>
<totfact> 0.43403091E+03</totfact>
</mgrwt>
</event>
<event>
 5    1  0.3331626E-002  0.1249997E+03  0.7818608E-02  0.1235070E+00
          4   -1    0    0  501    0  0.00000000000E+00  0.00000000000E+00  0.29051193187E+02  0.29078939554E+02  0.12700000000E+01 0.  1.
         -4   -1    0    0    0  501 -0.00000000000E+00 -0.00000000000E+00 -0.13436523599E+03  0.13437123778E+03  0.12700000000E+01 0.  1.
         25    2    1    2    0    0  0.00000000000E+00  0.00000000000E+00 -0.10531404280E+03  0.16345017733E+03  0.12499965144E+03 0.  0.
    9000005    1    3    3    0    0 -0.51459608733E+02 -0.61766270047E+00 -0.99012596144E+02  0.11159286282E+03  0.10000000000E+01 0.  0.
    9000005    1    3    3    0    0  0.51459608733E+02  0.61766270047E+00 -0.63014466578E+01  0.51857314509E+02  0.10000000000E+01 0.  0.
<mgrwt>
<rscale>  0 0.12499965E+03</rscale>
<asrwt>0</asrwt>
<pdfrwt beam="1">  1        4 0.44720104E-02 0.12499965E+03</pdfrwt>
<pdfrwt beam="2">  1       -4 0.20674170E-01 0.12499965E+03</pdfrwt>
<totfact> 0.96682469E+03</totfact>
</mgrwt>
</event>
<event>
 4    1  0.3331626E-002  0.1249130E+03  0.7818608E-02  0.1235205E+00
         -4   -1    0    0    0  501 -0.00000000000E+00  0.00000000000E+00  0.32226906728E+03  0.32227156968E+03  0.12700000000E+01 0. -1.
          4   -1    0    0  501    0  0.00000000000E+00 -0.00000000000E+00 -0.12068353572E+02  0.12134993116E+02  0.12700000000E+01 0. -1.
    9000005    1    1    2    0    0 -0.48833344964E+02  0.18553979440E+02  0.63494860511E+02  0.82228602352E+02  0.10000000000E+01 0.  0.
    9000005    1    1    2    0    0  0.48833344964E+02 -0.18553979440E+02  0.24670585320E+03  0.25217796045E+03  0.10000000000E+01 0.  0.
<mgrwt>
<rscale>  0 0.12491304E+03</rscale>
<asrwt>0</asrwt>
<pdfrwt beam="2">  1        4 0.18619883E-02 0.12491304E+03</pdfrwt>
<pdfrwt beam="1">  1       -4 0.49585178E-01 0.12491304E+03</pdfrwt>
<totfact> 0.71612638E+03</totfact>
</mgrwt>
</event>
<event>
 5    1  0.3331626E-002  0.1250026E+03  0.7818608E-02  0.1235065E+00
         -4   -1    0    0    0  501 -0.00000000000E+00  0.00000000000E+00  0.22528712184E+02  0.22564480332E+02  0.12700000000E+01 0. -1.
          4   -1    0    0  501    0  0.00000000000E+00 -0.00000000000E+00 -0.17322144088E+03  0.17322609642E+03  0.12700000000E+01 0. -1.
         25    2    1    2    0    0  0.00000000000E+00  0.00000000000E+00 -0.15069272870E+03  0.19579057675E+03  0.12500260582E+03 0.  0.
    9000005    1    3    3    0    0 -0.45800287688E+02  0.38706658693E+02 -0.47789368530E+02  0.76685693086E+02  0.10000000000E+01 0.  0.
    9000005    1    3    3    0    0  0.45800287688E+02 -0.38706658693E+02 -0.10290336017E+03  0.11910488367E+03  0.10000000000E+01 0.  0.
<mgrwt>
<rscale>  0 0.12500261E+03</rscale>
<asrwt>0</asrwt>
<pdfrwt beam="2">  1        4 0.26652561E-01 0.12500261E+03</pdfrwt>
<pdfrwt beam="1">  1       -4 0.34690654E-02 0.12500261E+03</pdfrwt>
<totfact> 0.90844122E+03</totfact>
</mgrwt>
</event>
<event>
 5    1  0.3331626E-002  0.1249995E+03  0.7818608E-02  0.1235070E+00
          4   -1    0    0  501    0  0.00000000000E+00  0.00000000000E+00  0.17698484286E+02  0.17743991828E+02  0.12700000000E+01 0. -1.
         -4   -1    0    0    0  501 -0.00000000000E+00 -0.00000000000E+00 -0.22037838889E+03  0.22038204825E+03  0.12700000000E+01 0. -1.
         25    2    1    2    0    0  0.00000000000E+00  0.00000000000E+00 -0.20267990460E+03  0.23812604007E+03  0.12499946893E+03 0.  0.
    9000005    1    3    3    0    0  0.58608209254E+02 -0.21459971663E+02 -0.10729270405E+03  0.12412967783E+03  0.10000000000E+01 0.  0.
    9000005    1    3    3    0    0 -0.58608209254E+02  0.21459971663E+02 -0.95387200551E+02  0.11399636224E+03  0.10000000000E+01 0.  0.
<mgrwt>
<rscale>  0 0.12499947E+03</rscale>
<asrwt>0</asrwt>
<pdfrwt beam="1">  1        4 0.27266260E-02 0.12499947E+03</pdfrwt>
<pdfrwt beam="2">  1       -4 0.33908148E-01 0.12499947E+03</pdfrwt>
<totfact> 0.84078251E+03</totfact>
</mgrwt>
</event>
<event>
 5    1  0.3331626E-002  0.1249641E+03  0.7818608E-02  0.1235125E+00
          4   -1    0    0  501    0  0.00000000000E+00  0.00000000000E+00  0.43210364475E+03  0.43210551108E+03  0.12700000000E+01 0.  1.
         -4   -1    0    0    0  501 -0.00000000000E+00 -0.00000000000E+00 -0.89883659392E+01  0.90776440918E+01  0.12700000000E+01 0.  1.
         25    2    1    2    0    0  0.00000000000E+00  0.00000000000E+00  0.42311527881E+03  0.44118315517E+03  0.12496414384E+03 0.  0.
    9000005    1    3    3    0    0  0.53025827770E+02  0.13819198394E+02  0.10562561118E+03  0.11899780835E+03  0.10000000000E+01 0.  0.
    9000005    1    3    3    0    0 -0.53025827770E+02 -0.13819198394E+02  0.31748966762E+03  0.32218534681E+03  0.10000000000E+01 0.  0.
<mgrwt>
<rscale>  0 0.12496414E+03</rscale>
<asrwt>0</asrwt>
<pdfrwt beam="1">  1        4 0.66484472E-01 0.12496414E+03</pdfrwt>
<pdfrwt beam="2">  1       -4 0.13898371E-02 0.12496414E+03</pdfrwt>
<totfact> 0.60783254E+03</totfact>
</mgrwt>
</event>
<event>
 5    1  0.3331626E-002  0.1250001E+03  0.7818608E-02  0.1235069E+00
         -4   -1    0    0    0  501 -0.00000000000E+00  0.00000000000E+00  0.20840836191E+03  0.20841223144E+03  0.12700000000E+01 0. -1.
          4   -1    0    0  501    0  0.00000000000E+00 -0.00000000000E+00 -0.18717726242E+02  0.18760761596E+02  0.12700000000E+01 0. -1.
         25    2    1    2    0    0  0.00000000000E+00  0.00000000000E+00  0.18969063567E+03  0.22717299304E+03  0.12500012602E+03 0.  0.
    9000005    1    3    3    0    0  0.89952215521E+01  0.51565613117E+01 -0.17152522760E+02  0.20067714678E+02  0.10000000000E+01 0.  0.
    9000005    1    3    3    0    0 -0.89952215521E+01 -0.51565613117E+01  0.20684315843E+03  0.20710527836E+03  0.10000000000E+01 0.  0.
<mgrwt>
<rscale>  0 0.12500013E+03</rscale>
<asrwt>0</asrwt>
<pdfrwt beam="2">  1        4 0.28832583E-02 0.12500013E+03</pdfrwt>
<pdfrwt beam="1">  1       -4 0.32066433E-01 0.12500013E+03</pdfrwt>
<totfact> 0.85745343E+03</totfact>
</mgrwt>
</event>
<event>
 5    1  0.3331626E-002  0.1250035E+03  0.7818608E-02  0.1235064E+00
         -4   -1    0    0    0  501 -0.00000000000E+00  0.00000000000E+00  0.69875213407E+03  0.69875328820E+03  0.12700000000E+01 0.  1.
          4   -1    0    0  501    0  0.00000000000E+00 -0.00000000000E+00 -0.55173399232E+01  0.56616198944E+01  0.12700000000E+01 0.  1.
         25    2    1    2    0    0  0.00000000000E+00  0.00000000000E+00  0.69323479414E+03  0.70441490809E+03  0.12500353166E+03 0.  0.
    9000005    1    3    3    0    0 -0.15797894492E+02 -0.57304607875E+02  0.45531599416E+03  0.45918084247E+03  0.10000000000E+01 0.  0.
    9000005    1    3    3    0    0  0.15797894492E+02  0.57304607875E+02  0.23791879998E+03  0.24523406562E+03  0.10000000000E+01 0.  0.
<mgrwt>
<rscale>  0 0.12500353E+03</rscale>
<asrwt>0</asrwt>
<pdfrwt beam="2">  1        4 0.86000863E-03 0.12500353E+03</pdfrwt>
<pdfrwt beam="1">  1       -4 0.10751153E+00 0.12500353E+03</pdfrwt>
<totfact> 0.42851342E+03</totfact>
</mgrwt>
</event>
<event>
 5    1  0.3331626E-002  0.1250021E+03  0.7818608E-02  0.1235066E+00
         -4   -1    0    0    0  501 -0.00000000000E+00  0.00000000000E+00  0.64932132015E+01  0.66162464949E+01  0.12700000000E+01 0.  1.
          4   -1    0    0  501    0  0.00000000000E+00 -0.00000000000E+00 -0.59583958524E+03  0.59584093871E+03  0.12700000000E+01 0.  1.
         25    2    1    2    0    0  0.00000000000E+00  0.00000000000E+00 -0.58934637204E+03  0.60245718520E+03  0.12500205505E+03 0.  0.
    9000005    1    3    3    0    0  0.43569379369E+02 -0.33795561096E+02 -0.15292942478E+03  0.16256949201E+03  0.10000000000E+01 0.  0.
    9000005    1    3    3    0    0 -0.43569379369E+02  0.33795561096E+02 -0.43641694726E+03  0.43988769319E+03  0.10000000000E+01 0.  0.
<mgrwt>
<rscale>  0 0.12500206E+03</rscale>
<asrwt>0</asrwt>
<pdfrwt beam="2">  1        4 0.91677154E-01 0.12500206E+03</pdfrwt>
<pdfrwt beam="1">  1       -4 0.10085246E-02 0.12500206E+03</pdfrwt>
<totfact> 0.48710694E+03</totfact>
</mgrwt>
</event>
<event>
 5    1  0.3331626E-002  0.1249867E+03  0.7818608E-02  0.1235090E+00
         -4   -1    0    0    0  501 -0.00000000000E+00  0.00000000000E+00  0.13798799401E+04  0.13798805245E+04  0.12700000000E+01 0.  1.
          4   -1    0    0  501    0  0.00000000000E+00 -0.00000000000E+00 -0.26871776780E+01  0.29721749398E+01  0.12700000000E+01 0.  1.
         25    2    1    2    0    0  0.00000000000E+00  0.00000000000E+00  0.13771927624E+04  0.13828526994E+04  0.12498673360E+03 0.  0.
    9000005    1    3    3    0    0 -0.11433587584E+02 -0.58324143007E+02  0.90198765228E+03  0.90394422254E+03  0.10000000000E+01 0.  0.
    9000005    1    3    3    0    0  0.11433587584E+02  0.58324143007E+02  0.47520511011E+03  0.47890847691E+03  0.10000000000E+01 0.  0.
<mgrwt>
<rscale>  0 0.12498673E+03</rscale>
<asrwt>0</asrwt>
<pdfrwt beam="2">  1        4 0.43537891E-03 0.12498673E+03</pdfrwt>
<pdfrwt beam="1">  1       -4 0.21231161E+00 0.12498673E+03</pdfrwt>
<totfact> 0.20357744E+03</totfact>
</mgrwt>
</event>
<event>
 5    1  0.3331626E-002  0.1250041E+03  0.7818608E-02  0.1235063E+00
         -4   -1    0    0    0  501 -0.00000000000E+00  0.00000000000E+00  0.21727991373E+02  0.21765075444E+02  0.12700000000E+01 0. -1.
          4   -1    0    0  501    0  0.00000000000E+00 -0.00000000000E+00 -0.17959872308E+03  0.17960321331E+03  0.12700000000E+01 0. -1.
         25    2    1    2    0    0  0.00000000000E+00  0.00000000000E+00 -0.15787073170E+03  0.20136828875E+03  0.12500407908E+03 0.  0.
    9000005    1    3    3    0    0 -0.21774041764E+02 -0.41057281350E+02 -0.11629771216E+02  0.47917228897E+02  0.10000000000E+01 0.  0.
    9000005    1    3    3    0    0  0.21774041764E+02  0.41057281350E+02 -0.14624096049E+03  0.15345105986E+03  0.10000000000E+01 0.  0.
<mgrwt>
<rscale>  0 0.12500408E+03</rscale>
<asrwt>0</asrwt>
<pdfrwt beam="2">  1        4 0.27633770E-01 0.12500408E+03</pdfrwt>
<pdfrwt beam="1">  1       -4 0.33459661E-02 0.12500408E+03</pdfrwt>
<totfact> 0.89897041E+03</totfact>
</mgrwt>
</event>
<event>
 5    1  0.3331626E-002  0.1250062E+03  0.7818608E-02  0.1235060E+00
         -4   -1    0    0    0  501 -0.00000000000E+00  0.00000000000E+00  0.58230101992E+01  0.59598949471E+01  0.12700000000E+01 0.  1.
          4   -1    0    0  501    0  0.00000000000E+00 -0.00000000000E+00 -0.66296555431E+03  0.66296677074E+03  0.12700000000E+01 0.  1.
         25    2    1    2    0    0  0.00000000000E+00  0.00000000000E+00 -0.65714254412E+03  0.66892666569E+03  0.12500624298E+03 0.  0.
    9000005    1    3    3    0    0 -0.53687158338E+02  0.74109754454E+01 -0.49509483389E+03  0.49805333858E+03  0.10000000000E+01 0.  0.
    9000005    1    3    3    0    0  0.53687158338E+02 -0.74109754454E+01 -0.16204771022E+03  0.17087332710E+03  0.10000000000E+01 0.  0.
<mgrwt>
<rscale>  0 0.12500624E+03</rscale>
<asrwt>0</asrwt>
<pdfrwt beam="2">  1        4 0.10200527E+00 0.12500624E+03</pdfrwt>
<pdfrwt beam="1">  1       -4 0.90647141E-03 0.12500624E+03</pdfrwt>
<totfact> 0.44772429E+03</totfact>
</mgrwt>
</event>
<event>
 5    1  0.3331626E-002  0.1250118E+03  0.7818608E-02  0.1235051E+00
         -4   -1    0    0    0  501 -0.00000000000E+00  0.00000000000E+00  0.22252628628E+02  0.22288839828E+02  0.12700000000E+01 0.  1.
          4   -1    0    0  501    0  0.00000000000E+00 -0.00000000000E+00 -0.17539294664E+03  0.17539754454E+03  0.12700000000E+01 0.  1.
         25    2    1    2    0    0  0.00000000000E+00  0.00000000000E+00 -0.15314031801E+03  0.19768638437E+03  0.12501179770E+03 0.  0.
    9000005    1    3    3    0    0  0.52880196109E+02  0.33210026705E+02 -0.80683586506E+02  0.10202971207E+03  0.10000000000E+01 0.  0.
    9000005    1    3    3    0    0 -0.52880196109E+02 -0.33210026705E+02 -0.72456731508E+02  0.95656672298E+02  0.10000000000E+01 0.  0.
<mgrwt>
<rscale>  0 0.12501180E+03</rscale>
<asrwt>0</asrwt>
<pdfrwt beam="2">  1        4 0.26986669E-01 0.12501180E+03</pdfrwt>
<pdfrwt beam="1">  1       -4 0.34266206E-02 0.12501180E+03</pdfrwt>
<totfact> 0.90502940E+03</totfact>
</mgrwt>
</event>
<event>
 5    1  0.3331626E-002  0.1250051E+03  0.7818608E-02  0.1235061E+00
          4   -1    0    0  501    0  0.00000000000E+00  0.00000000000E+00  0.34471511311E+03  0.34471745257E+03  0.12700000000E+01 0. -1.
         -4   -1    0    0    0  501 -0.00000000000E+00 -0.00000000000E+00 -0.11294775907E+02  0.11365951909E+02  0.12700000000E+01 0. -1.
         25    2    1    2    0    0  0.00000000000E+00  0.00000000000E+00  0.33342033720E+03  0.35608340448E+03  0.12500507864E+03 0.  0.
    9000005    1    3    3    0    0 -0.15295703041E+02  0.52853798089E+02  0.82300472909E+02  0.99004294578E+02  0.10000000000E+01 0.  0.
    9000005    1    3    3    0    0  0.15295703041E+02 -0.52853798089E+02  0.25111986429E+03  0.25707910990E+03  0.10000000000E+01 0.  0.
<mgrwt>
<rscale>  0 0.12500508E+03</rscale>
<asrwt>0</asrwt>
<pdfrwt beam="1">  1        4 0.53038741E-01 0.12500508E+03</pdfrwt>
<pdfrwt beam="2">  1       -4 0.17433131E-02 0.12500508E+03</pdfrwt>
<totfact> 0.69052697E+03</totfact>
</mgrwt>
</event>
<event>
 5    1  0.3331626E-002  0.1249991E+03  0.7818608E-02  0.1235071E+00
          4   -1    0    0  501    0  0.00000000000E+00  0.00000000000E+00  0.70070609837E+03  0.70070724927E+03  0.12700000000E+01 0. -1.
         -4   -1    0    0    0  501 -0.00000000000E+00 -0.00000000000E+00 -0.55011522905E+01  0.56458459529E+01  0.12700000000E+01 0. -1.
         25    2    1    2    0    0  0.00000000000E+00  0.00000000000E+00  0.69520494607E+03  0.70635309523E+03  0.12499911236E+03 0.  0.
    9000005    1    3    3    0    0  0.10591731438E+02 -0.40824341022E+02  0.87025723730E+02  0.96712399337E+02  0.10000000000E+01 0.  0.
    9000005    1    3    3    0    0 -0.10591731438E+02  0.40824341022E+02  0.60817922234E+03  0.60964069589E+03  0.10000000000E+01 0.  0.
<mgrwt>
<rscale>  0 0.12499911E+03</rscale>
<asrwt>0</asrwt>
<pdfrwt beam="1">  1        4 0.10781210E+00 0.12499911E+03</pdfrwt>
<pdfrwt beam="2">  1       -4 0.85755038E-03 0.12499911E+03</pdfrwt>
<totfact> 0.42754288E+03</totfact>
</mgrwt>
</event>
<event>
 5    1  0.3331626E-002  0.1249993E+03  0.7818608E-02  0.1235070E+00
          4   -1    0    0  501    0  0.00000000000E+00  0.00000000000E+00  0.92968502519E+01  0.93831937317E+01  0.12700000000E+01 0.  1.
         -4   -1    0    0    0  501 -0.00000000000E+00 -0.00000000000E+00 -0.41813509512E+03  0.41813702380E+03  0.12700000000E+01 0.  1.
         25    2    1    2    0    0  0.00000000000E+00  0.00000000000E+00 -0.40883824487E+03  0.42752021753E+03  0.12499930372E+03 0.  0.
    9000005    1    3    3    0    0 -0.37928450366E+02 -0.82973792261E+01 -0.36942237526E+02  0.53601704849E+02  0.10000000000E+01 0.  0.
    9000005    1    3    3    0    0  0.37928450366E+02  0.82973792261E+01 -0.37189600734E+03  0.37391851268E+03  0.10000000000E+01 0.  0.
<mgrwt>
<rscale>  0 0.12499930E+03</rscale>
<asrwt>0</asrwt>
<pdfrwt beam="1">  1        4 0.14370751E-02 0.12499930E+03</pdfrwt>
<pdfrwt beam="2">  1       -4 0.64335252E-01 0.12499930E+03</pdfrwt>
<totfact> 0.61962371E+03</totfact>
</mgrwt>
</event>
<event>
 5    1  0.3331626E-002  0.1249966E+03  0.7818608E-02  0.1235075E+00
          4   -1    0    0  501    0  0.00000000000E+00  0.00000000000E+00  0.23341873223E+03  0.23342218715E+03  0.12700000000E+01 0.  1.
         -4   -1    0    0    0  501 -0.00000000000E+00 -0.00000000000E+00 -0.16706360020E+02  0.16754562516E+02  0.12700000000E+01 0.  1.
         25    2    1    2    0    0  0.00000000000E+00  0.00000000000E+00  0.21671237221E+03  0.25017674967E+03  0.12499661518E+03 0.  0.
    9000005    1    3    3    0    0  0.45622834988E+02  0.29979502415E+02  0.16922270021E+03  0.17781320509E+03  0.10000000000E+01 0.  0.
    9000005    1    3    3    0    0 -0.45622834988E+02 -0.29979502415E+02  0.47489671992E+02  0.72363544574E+02  0.10000000000E+01 0.  0.
<mgrwt>
<rscale>  0 0.12499662E+03</rscale>
<asrwt>0</asrwt>
<pdfrwt beam="1">  1        4 0.35914547E-01 0.12499662E+03</pdfrwt>
<pdfrwt beam="2">  1       -4 0.25741829E-02 0.12499662E+03</pdfrwt>
<totfact> 0.82310894E+03</totfact>
</mgrwt>
</event>
<event>
 5    1  0.3331626E-002  0.1249978E+03  0.7818608E-02  0.1235073E+00
          4   -1    0    0  501    0  0.00000000000E+00  0.00000000000E+00  0.10075179340E+03  0.10075979740E+03  0.12700000000E+01 0.  1.
         -4   -1    0    0    0  501 -0.00000000000E+00 -0.00000000000E+00 -0.38749704819E+02  0.38770511005E+02  0.12700000000E+01 0.  1.
         25    2    1    2    0    0  0.00000000000E+00  0.00000000000E+00  0.62002088577E+02  0.13953030841E+03  0.12499779189E+03 0.  0.
    9000005    1    3    3    0    0 -0.11913059126E+00 -0.59083808864E+02  0.53719141766E+02  0.79860233246E+02  0.10000000000E+01 0.  0.
    9000005    1    3    3    0    0  0.11913059126E+00  0.59083808864E+02  0.82829468112E+01  0.59670075162E+02  0.10000000000E+01 0.  0.
<mgrwt>
<rscale>  0 0.12499779E+03</rscale>
<asrwt>0</asrwt>
<pdfrwt beam="1">  1        4 0.15502492E-01 0.12499779E+03</pdfrwt>
<pdfrwt beam="2">  1       -4 0.59637093E-02 0.12499779E+03</pdfrwt>
<totfact> 0.10143834E+04</totfact>
</mgrwt>
</event>
<event>
 5    1  0.3331626E-002  0.1249914E+03  0.7818608E-02  0.1235083E+00
         -4   -1    0    0    0  501 -0.00000000000E+00  0.00000000000E+00  0.36481022716E+02  0.36503122037E+02  0.12700000000E+01 0. -1.
          4   -1    0    0  501    0  0.00000000000E+00 -0.00000000000E+00 -0.10700324640E+03  0.10701078282E+03  0.12700000000E+01 0. -1.
         25    2    1    2    0    0  0.00000000000E+00  0.00000000000E+00 -0.70522223682E+02  0.14351390486E+03  0.12499142712E+03 0.  0.
    9000005    1    3    3    0    0  0.22732460033E+02  0.58196246146E+02 -0.36490484452E+02  0.72361061768E+02  0.10000000000E+01 0.  0.
    9000005    1    3    3    0    0 -0.22732460033E+02 -0.58196246146E+02 -0.34031739230E+02  0.71152843089E+02  0.10000000000E+01 0.  0.
<mgrwt>
<rscale>  0 0.12499143E+03</rscale>
<asrwt>0</asrwt>
<pdfrwt beam="2">  1        4 0.16464317E-01 0.12499143E+03</pdfrwt>
<pdfrwt beam="1">  1       -4 0.56147448E-02 0.12499143E+03</pdfrwt>
<totfact> 0.10063213E+04</totfact>
</mgrwt>
</event>
<event>
 5    1  0.3331626E-002  0.1250016E+03  0.7818608E-02  0.1235067E+00
         -4   -1    0    0    0  501 -0.00000000000E+00  0.00000000000E+00  0.19832755631E+02  0.19873376561E+02  0.12700000000E+01 0. -1.
          4   -1    0    0  501    0  0.00000000000E+00 -0.00000000000E+00 -0.19672052127E+03  0.19672462070E+03  0.12700000000E+01 0. -1.
         25    2    1    2    0    0  0.00000000000E+00  0.00000000000E+00 -0.17688776564E+03  0.21659799726E+03  0.12500164313E+03 0.  0.
    9000005    1    3    3    0    0 -0.20877194237E+02  0.37902704705E+02 -0.16656971074E+03  0.17210154212E+03  0.10000000000E+01 0.  0.
    9000005    1    3    3    0    0  0.20877194237E+02 -0.37902704705E+02 -0.10318054898E+02  0.44496455141E+02  0.10000000000E+01 0.  0.
<mgrwt>
<rscale>  0 0.12500164E+03</rscale>
<asrwt>0</asrwt>
<pdfrwt beam="2">  1        4 0.30268134E-01 0.12500164E+03</pdfrwt>
<pdfrwt beam="1">  1       -4 0.30546333E-02 0.12500164E+03</pdfrwt>
<totfact> 0.87406343E+03</totfact>
</mgrwt>
</event>
<event>
 5    1  0.3331626E-002  0.1249953E+03  0.7818608E-02  0.1235077E+00
         -4   -1    0    0    0  501 -0.00000000000E+00  0.00000000000E+00  0.42921613797E+02  0.42940398588E+02  0.12700000000E+01 0.  1.
          4   -1    0    0  501    0  0.00000000000E+00 -0.00000000000E+00 -0.90958911934E+02  0.90967777593E+02  0.12700000000E+01 0.  1.
         25    2    1    2    0    0  0.00000000000E+00  0.00000000000E+00 -0.48037298137E+02  0.13390817618E+03  0.12499527045E+03 0.  0.
    9000005    1    3    3    0    0 -0.21773706637E+02  0.50391936691E+02 -0.56005929072E+02  0.78428984919E+02  0.10000000000E+01 0.  0.
    9000005    1    3    3    0    0  0.21773706637E+02 -0.50391936691E+02  0.79686309353E+01  0.55479191262E+02  0.10000000000E+01 0.  0.
<mgrwt>
<rscale>  0 0.12499527E+03</rscale>
<asrwt>0</asrwt>
<pdfrwt beam="2">  1        4 0.13995806E-01 0.12499527E+03</pdfrwt>
<pdfrwt beam="1">  1       -4 0.66054522E-02 0.12499527E+03</pdfrwt>
<totfact> 0.10262230E+04</totfact>
</mgrwt>
</event>
<event>
 5    1  0.3331626E-002  0.1249962E+03  0.7818608E-02  0.1235075E+00
         -4   -1    0    0    0  501 -0.00000000000E+00  0.00000000000E+00  0.48563256372E+02  0.48579859710E+02  0.12700000000E+01 0. -1.
          4   -1    0    0  501    0  0.00000000000E+00 -0.00000000000E+00 -0.80396110510E+02  0.80406140843E+02  0.12700000000E+01 0. -1.
         25    2    1    2    0    0  0.00000000000E+00  0.00000000000E+00 -0.31832854138E+02  0.12898600055E+03  0.12499623089E+03 0.  0.
    9000005    1    3    3    0    0  0.36497284668E+01 -0.29503706082E+02  0.40803702162E+02  0.50494864101E+02  0.10000000000E+01 0.  0.
    9000005    1    3    3    0    0 -0.36497284668E+01  0.29503706082E+02 -0.72636556300E+02  0.78491136452E+02  0.10000000000E+01 0.  0.
<mgrwt>
<rscale>  0 0.12499623E+03</rscale>
<asrwt>0</asrwt>
<pdfrwt beam="2">  1        4 0.12370681E-01 0.12499623E+03</pdfrwt>
<pdfrwt beam="1">  1       -4 0.74733189E-02 0.12499623E+03</pdfrwt>
<totfact> 0.10367130E+04</totfact>
</mgrwt>
</event>
<event>
 5    1  0.3331626E-002  0.1250049E+03  0.7818608E-02  0.1235062E+00
          4   -1    0    0  501    0  0.00000000000E+00  0.00000000000E+00  0.79887572339E+01  0.80890754813E+01  0.12700000000E+01 0. -1.
         -4   -1    0    0    0  501 -0.00000000000E+00 -0.00000000000E+00 -0.48585468039E+03  0.48585634024E+03  0.12700000000E+01 0. -1.
         25    2    1    2    0    0  0.00000000000E+00  0.00000000000E+00 -0.47786592315E+03  0.49394541572E+03  0.12500493272E+03 0.  0.
    9000005    1    3    3    0    0  0.23405678718E+02  0.49466470937E+02 -0.35818436535E+03  0.36234209958E+03  0.10000000000E+01 0.  0.
    9000005    1    3    3    0    0 -0.23405678718E+02 -0.49466470937E+02 -0.11968155780E+03  0.13160331615E+03  0.10000000000E+01 0.  0.
<mgrwt>
<rscale>  0 0.12500493E+03</rscale>
<asrwt>0</asrwt>
<pdfrwt beam="1">  1        4 0.12368844E-02 0.12500493E+03</pdfrwt>
<pdfrwt beam="2">  1       -4 0.74754696E-01 0.12500493E+03</pdfrwt>
<totfact> 0.56331105E+03</totfact>
</mgrwt>
</event>
<event>
 5    1  0.3331626E-002  0.1250007E+03  0.7818608E-02  0.1235068E+00
          4   -1    0    0  501    0  0.00000000000E+00  0.00000000000E+00  0.11397174459E+03  0.11397882024E+03  0.12700000000E+01 0. -1.
         -4   -1    0    0    0  501 -0.00000000000E+00 -0.00000000000E+00 -0.34254318427E+02  0.34277853359E+02  0.12700000000E+01 0. -1.
         25    2    1    2    0    0  0.00000000000E+00  0.00000000000E+00  0.79717426159E+02  0.14825667360E+03  0.12500069293E+03 0.  0.
    9000005    1    3    3    0    0  0.20571487008E+02  0.45753511177E+02  0.84057435400E+02  0.97893933973E+02  0.10000000000E+01 0.  0.
    9000005    1    3    3    0    0 -0.20571487008E+02 -0.45753511177E+02 -0.43400092408E+01  0.50362739629E+02  0.10000000000E+01 0.  0.
<mgrwt>
<rscale>  0 0.12500069E+03</rscale>
<asrwt>0</asrwt>
<pdfrwt beam="1">  1        4 0.17536470E-01 0.12500069E+03</pdfrwt>
<pdfrwt beam="2">  1       -4 0.52722497E-02 0.12500069E+03</pdfrwt>
<totfact> 0.99650791E+03</totfact>
</mgrwt>
</event>
<event>
 5    1  0.3331626E-002  0.1250018E+03  0.7818608E-02  0.1235067E+00
          4   -1    0    0  501    0  0.00000000000E+00  0.00000000000E+00  0.57451639517E+02  0.57465674826E+02  0.12700000000E+01 0. -1.
         -4   -1    0    0    0  501 -0.00000000000E+00 -0.00000000000E+00 -0.67965622566E+02  0.67977487088E+02  0.12700000000E+01 0. -1.
         25    2    1    2    0    0  0.00000000000E+00  0.00000000000E+00 -0.10513983048E+02  0.12544316191E+03  0.12500177211E+03 0.  0.
    9000005    1    3    3    0    0  0.22703966512E+02 -0.36815378802E+02 -0.50521900245E+02  0.66515446447E+02  0.10000000000E+01 0.  0.
    9000005    1    3    3    0    0 -0.22703966512E+02  0.36815378802E+02  0.40007917196E+02  0.58927715467E+02  0.10000000000E+01 0.  0.
<mgrwt>
<rscale>  0 0.12500177E+03</rscale>
<asrwt>0</asrwt>
<pdfrwt beam="1">  1        4 0.88407060E-02 0.12500177E+03</pdfrwt>
<pdfrwt beam="2">  1       -4 0.10458242E-01 0.12500177E+03</pdfrwt>
<totfact> 0.10442794E+04</totfact>
</mgrwt>
</event>
<event>
 5    1  0.3331626E-002  0.1250031E+03  0.7818608E-02  0.1235064E+00
          4   -1    0    0  501    0  0.00000000000E+00  0.00000000000E+00  0.44584446552E+01  0.46357986090E+01  0.12700000000E+01 0. -1.
         -4   -1    0    0    0  501 -0.00000000000E+00 -0.00000000000E+00 -0.85892523643E+03  0.85892617533E+03  0.12700000000E+01 0. -1.
         25    2    1    2    0    0  0.00000000000E+00  0.00000000000E+00 -0.85446679177E+03  0.86356197394E+03  0.12500313835E+03 0.  0.
    9000005    1    3    3    0    0  0.39632352944E+02  0.22344124131E+02 -0.13126496158E+03  0.13892974276E+03  0.10000000000E+01 0.  0.
    9000005    1    3    3    0    0 -0.39632352944E+02 -0.22344124131E+02 -0.72320183019E+03  0.72463223119E+03  0.10000000000E+01 0.  0.
<mgrwt>
<rscale>  0 0.12500314E+03</rscale>
<asrwt>0</asrwt>
<pdfrwt beam="1">  1        4 0.69963008E-03 0.12500314E+03</pdfrwt>
<pdfrwt beam="2">  1       -4 0.13215593E+00 0.12500314E+03</pdfrwt>
<totfact> 0.35576288E+03</totfact>
</mgrwt>
</event>
<event>
 5    1  0.3331626E-002  0.1249527E+03  0.7818608E-02  0.1235143E+00
         -4   -1    0    0    0  501 -0.00000000000E+00  0.00000000000E+00  0.34263910818E+01  0.36541833350E+01  0.12700000000E+01 0.  1.
          4   -1    0    0  501    0  0.00000000000E+00 -0.00000000000E+00 -0.11023073655E+04  0.11023080971E+04  0.12700000000E+01 0.  1.
         25    2    1    2    0    0  0.00000000000E+00  0.00000000000E+00 -0.10988809744E+04  0.11059622805E+04  0.12495267028E+03 0.  0.
    9000005    1    3    3    0    0 -0.99162568116E+01 -0.54276393956E+02 -0.80870725956E+03  0.81058786739E+03  0.10000000000E+01 0.  0.
    9000005    1    3    3    0    0  0.99162568116E+01  0.54276393956E+02 -0.29017371488E+03  0.29537441308E+03  0.10000000000E+01 0.  0.
<mgrwt>
<rscale>  0 0.12495267E+03</rscale>
<asrwt>0</asrwt>
<pdfrwt beam="2">  1        4 0.16960305E+00 0.12495267E+03</pdfrwt>
<pdfrwt beam="1">  1       -4 0.54471672E-03 0.12495267E+03</pdfrwt>
<totfact> 0.27337808E+03</totfact>
</mgrwt>
</event>
<event>
 5    1  0.3331626E-002  0.1250294E+03  0.7818608E-02  0.1235023E+00
          4   -1    0    0  501    0  0.00000000000E+00  0.00000000000E+00  0.16566075689E+02  0.16614685183E+02  0.12700000000E+01 0. -1.
         -4   -1    0    0    0  501 -0.00000000000E+00 -0.00000000000E+00 -0.23551329683E+03  0.23551672102E+03  0.12700000000E+01 0. -1.
         25    2    1    2    0    0  0.00000000000E+00  0.00000000000E+00 -0.21894722114E+03  0.25213140621E+03  0.12502943794E+03 0.  0.
    9000005    1    3    3    0    0  0.46389989635E+02  0.18878354256E+02 -0.34056171131E+02  0.60574303049E+02  0.10000000000E+01 0.  0.
    9000005    1    3    3    0    0 -0.46389989635E+02 -0.18878354256E+02 -0.18489105001E+03  0.19155710316E+03  0.10000000000E+01 0.  0.
<mgrwt>
<rscale>  0 0.12502944E+03</rscale>
<asrwt>0</asrwt>
<pdfrwt beam="1">  1        4 0.25526298E-02 0.12502944E+03</pdfrwt>
<pdfrwt beam="2">  1       -4 0.36236815E-01 0.12502944E+03</pdfrwt>
<totfact> 0.81969391E+03</totfact>
</mgrwt>
</event>
<event>
 5    1  0.3331626E-002  0.1250020E+03  0.7818608E-02  0.1235066E+00
          4   -1    0    0  501    0  0.00000000000E+00  0.00000000000E+00  0.81509307703E+02  0.81519201065E+02  0.12700000000E+01 0. -1.
         -4   -1    0    0    0  501 -0.00000000000E+00 -0.00000000000E+00 -0.47904276950E+02  0.47921108607E+02  0.12700000000E+01 0. -1.
         25    2    1    2    0    0  0.00000000000E+00  0.00000000000E+00  0.33605030753E+02  0.12944030967E+03  0.12500198269E+03 0.  0.
    9000005    1    3    3    0    0  0.10269649270E+02  0.42963173424E+02 -0.28971935130E+02  0.52836284805E+02  0.10000000000E+01 0.  0.
    9000005    1    3    3    0    0 -0.10269649270E+02 -0.42963173424E+02  0.62576965883E+02  0.76604024867E+02  0.10000000000E+01 0.  0.
<mgrwt>
<rscale>  0 0.12500198E+03</rscale>
<asrwt>0</asrwt>
<pdfrwt beam="1">  1        4 0.12541949E-01 0.12500198E+03</pdfrwt>
<pdfrwt beam="2">  1       -4 0.73719446E-02 0.12500198E+03</pdfrwt>
<totfact> 0.10356031E+04</totfact>
</mgrwt>
</event>
<event>
 5    1  0.3331626E-002  0.1250000E+03  0.7818608E-02  0.1235069E+00
          4   -1    0    0  501    0  0.00000000000E+00  0.00000000000E+00  0.99600718441E+01  0.10040713677E+02  0.12700000000E+01 0. -1.
         -4   -1    0    0    0  501 -0.00000000000E+00 -0.00000000000E+00 -0.39052827641E+03  0.39053034143E+03  0.12700000000E+01 0. -1.
         25    2    1    2    0    0  0.00000000000E+00  0.00000000000E+00 -0.38056820456E+03  0.40057105510E+03  0.12500004744E+03 0.  0.
    9000005    1    3    3    0    0  0.15372682034E+02 -0.29620499885E+02 -0.20970114462E+02  0.39426375270E+02  0.10000000000E+01 0.  0.
    9000005    1    3    3    0    0 -0.15372682034E+02  0.29620499885E+02 -0.35959809010E+03  0.36114467983E+03  0.10000000000E+01 0.  0.
<mgrwt>
<rscale>  0 0.12500005E+03</rscale>
<asrwt>0</asrwt>
<pdfrwt beam="1">  1        4 0.15386811E-02 0.12500005E+03</pdfrwt>
<pdfrwt beam="2">  1       -4 0.60087624E-01 0.12500005E+03</pdfrwt>
<totfact> 0.64497225E+03</totfact>
</mgrwt>
</event>
<event>
 5    1  0.3331626E-002  0.1249996E+03  0.7818608E-02  0.1235070E+00
         -4   -1    0    0    0  501 -0.00000000000E+00  0.00000000000E+00  0.33057263995E+03  0.33057507950E+03  0.12700000000E+01 0.  1.
          4   -1    0    0  501    0  0.00000000000E+00 -0.00000000000E+00 -0.11779927168E+02  0.11848189063E+02  0.12700000000E+01 0.  1.
         25    2    1    2    0    0  0.00000000000E+00  0.00000000000E+00  0.31879271278E+03  0.34242326856E+03  0.12499960451E+03 0.  0.
    9000005    1    3    3    0    0  0.46091568376E+02 -0.29231458422E+01  0.44073111036E+02  0.63846821169E+02  0.10000000000E+01 0.  0.
    9000005    1    3    3    0    0 -0.46091568376E+02  0.29231458422E+01  0.27471960175E+03  0.27857644739E+03  0.10000000000E+01 0.  0.
<mgrwt>
<rscale>  0 0.12499960E+03</rscale>
<asrwt>0</asrwt>
<pdfrwt beam="2">  1        4 0.18177353E-02 0.12499960E+03</pdfrwt>
<pdfrwt beam="1">  1       -4 0.50862761E-01 0.12499960E+03</pdfrwt>
<totfact> 0.70566832E+03</totfact>
</mgrwt>
</event>
<event>
 5    1  0.3331626E-002  0.1250010E+03  0.7818608E-02  0.1235068E+00
          4   -1    0    0  501    0  0.00000000000E+00  0.00000000000E+00  0.16152690199E+03  0.16153189458E+03  0.12700000000E+01 0. -1.
         -4   -1    0    0    0  501 -0.00000000000E+00 -0.00000000000E+00 -0.24161616787E+02  0.24194971084E+02  0.12700000000E+01 0. -1.
         25    2    1    2    0    0  0.00000000000E+00  0.00000000000E+00  0.13736528520E+03  0.18572686566E+03  0.12500098820E+03 0.  0.
    9000005    1    3    3    0    0 -0.96572848934E+01  0.30004315419E+02 -0.11492784765E+02  0.33564954892E+02  0.10000000000E+01 0.  0.
    9000005    1    3    3    0    0  0.96572848934E+01 -0.30004315419E+02  0.14885806996E+03  0.15216191077E+03  0.10000000000E+01 0.  0.
<mgrwt>
<rscale>  0 0.12500099E+03</rscale>
<asrwt>0</asrwt>
<pdfrwt beam="1">  1        4 0.24853242E-01 0.12500099E+03</pdfrwt>
<pdfrwt beam="2">  1       -4 0.37201216E-02 0.12500099E+03</pdfrwt>
<totfact> 0.92594137E+03</totfact>
</mgrwt>
</event>
<event>
 5    1  0.3331626E-002  0.1249992E+03  0.7818608E-02  0.1235070E+00
         -4   -1    0    0    0  501 -0.00000000000E+00  0.00000000000E+00  0.25348823352E+04  0.25348826533E+04  0.12700000000E+01 0. -1.
          4   -1    0    0  501    0  0.00000000000E+00 -0.00000000000E+00 -0.12789390317E+01  0.18023831576E+01  0.12700000000E+01 0. -1.
         25    2    1    2    0    0  0.00000000000E+00  0.00000000000E+00  0.25336033962E+04  0.25366850365E+04  0.12499922128E+03 0.  0.
    9000005    1    3    3    0    0 -0.28752919265E+02  0.55483970131E+02  0.12668973738E+04  0.12684380777E+04  0.10000000000E+01 0.  0.
    9000005    1    3    3    0    0  0.28752919265E+02 -0.55483970131E+02  0.12667060224E+04  0.12682469587E+04  0.10000000000E+01 0.  0.
<mgrwt>
<rscale>  0 0.12499922E+03</rscale>
<asrwt>0</asrwt>
<pdfrwt beam="2">  1        4 0.23705135E-03 0.12499922E+03</pdfrwt>
<pdfrwt beam="1">  1       -4 0.39001874E+00 0.12499922E+03</pdfrwt>
<totfact> 0.43877397E+02</totfact>
</mgrwt>
</event>
<event>
 5    1  0.3331626E-002  0.1249937E+03  0.7818608E-02  0.1235079E+00
         -4   -1    0    0    0  501 -0.00000000000E+00  0.00000000000E+00  0.24492536262E+03  0.24492865523E+03  0.12700000000E+01 0. -1.
          4   -1    0    0  501    0  0.00000000000E+00 -0.00000000000E+00 -0.15918446947E+02  0.15969027935E+02  0.12700000000E+01 0. -1.
         25    2    1    2    0    0  0.00000000000E+00  0.00000000000E+00  0.22900691567E+03  0.26089768317E+03  0.12499373447E+03 0.  0.
    9000005    1    3    3    0    0  0.15671175136E+02  0.36753108298E+02  0.14216328946E+02  0.42420286520E+02  0.10000000000E+01 0.  0.
    9000005    1    3    3    0    0 -0.15671175136E+02 -0.36753108298E+02  0.21479058672E+03  0.21847739665E+03  0.10000000000E+01 0.  0.
<mgrwt>
<rscale>  0 0.12499373E+03</rscale>
<asrwt>0</asrwt>
<pdfrwt beam="2">  1        4 0.24531361E-02 0.12499373E+03</pdfrwt>
<pdfrwt beam="1">  1       -4 0.37684967E-01 0.12499373E+03</pdfrwt>
<totfact> 0.80791516E+03</totfact>
</mgrwt>
</event>
<event>
 5    1  0.3331626E-002  0.1250008E+03  0.7818608E-02  0.1235068E+00
         -4   -1    0    0    0  501 -0.00000000000E+00  0.00000000000E+00  0.39765987968E+01  0.41744745766E+01  0.12700000000E+01 0.  1.
          4   -1    0    0  501    0  0.00000000000E+00 -0.00000000000E+00 -0.95827613631E+03  0.95827697787E+03  0.12700000000E+01 0.  1.
         25    2    1    2    0    0  0.00000000000E+00  0.00000000000E+00 -0.95429953751E+03  0.96245145244E+03  0.12500076409E+03 0.  0.
    9000005    1    3    3    0    0  0.22036006227E+01  0.37083355741E+01 -0.95716622259E+03  0.95717646507E+03  0.10000000000E+01 0.  0.
    9000005    1    3    3    0    0 -0.22036006227E+01 -0.37083355741E+01  0.28666850851E+01  0.52749873755E+01  0.10000000000E+01 0.  0.
<mgrwt>
<rscale>  0 0.12500076E+03</rscale>
<asrwt>0</asrwt>
<pdfrwt beam="2">  1        4 0.14744220E+00 0.12500076E+03</pdfrwt>
<pdfrwt beam="1">  1       -4 0.62707114E-03 0.12500076E+03</pdfrwt>
<totfact> 0.31877487E+03</totfact>
</mgrwt>
</event>
<event>
 5    1  0.3331626E-002  0.1249982E+03  0.7818608E-02  0.1235072E+00
         -4   -1    0    0    0  501 -0.00000000000E+00  0.00000000000E+00  0.17828711168E+02  0.17873887152E+02  0.12700000000E+01 0. -1.
          4   -1    0    0  501    0  0.00000000000E+00 -0.00000000000E+00 -0.21876815160E+03  0.21877183789E+03  0.12700000000E+01 0. -1.
         25    2    1    2    0    0  0.00000000000E+00  0.00000000000E+00 -0.20093944043E+03  0.23664572505E+03  0.12499816183E+03 0.  0.
    9000005    1    3    3    0    0 -0.59592228547E+02  0.86665046189E+00 -0.13604717247E+03  0.14853221173E+03  0.10000000000E+01 0.  0.
    9000005    1    3    3    0    0  0.59592228547E+02 -0.86665046189E+00 -0.64892267969E+02  0.88113513313E+02  0.10000000000E+01 0.  0.
<mgrwt>
<rscale>  0 0.12499816E+03</rscale>
<asrwt>0</asrwt>
<pdfrwt beam="2">  1        4 0.33660395E-01 0.12499816E+03</pdfrwt>
<pdfrwt beam="1">  1       -4 0.27466374E-02 0.12499816E+03</pdfrwt>
<totfact> 0.84302933E+03</totfact>
</mgrwt>
</event>
<event>
 5    1  0.3331626E-002  0.1249991E+03  0.7818608E-02  0.1235071E+00
          4   -1    0    0  501    0  0.00000000000E+00  0.00000000000E+00  0.13703756497E+02  0.13762479505E+02  0.12700000000E+01 0.  1.
         -4   -1    0    0    0  501 -0.00000000000E+00 -0.00000000000E+00 -0.28437596703E+03  0.28437880287E+03  0.12700000000E+01 0.  1.
         25    2    1    2    0    0  0.00000000000E+00  0.00000000000E+00 -0.27067221053E+03  0.29814128238E+03  0.12499911481E+03 0.  0.
    9000005    1    3    3    0    0  0.27206698564E+02  0.25290428340E+02 -0.15474820151E+02  0.40252705140E+02  0.10000000000E+01 0.  0.
    9000005    1    3    3    0    0 -0.27206698564E+02 -0.25290428340E+02 -0.25519739038E+03  0.25788857724E+03  0.10000000000E+01 0.  0.
<mgrwt>
<rscale>  0 0.12499911E+03</rscale>
<asrwt>0</asrwt>
<pdfrwt beam="1">  1        4 0.21130057E-02 0.12499911E+03</pdfrwt>
<pdfrwt beam="2">  1       -4 0.43754880E-01 0.12499911E+03</pdfrwt>
<totfact> 0.75834078E+03</totfact>
</mgrwt>
</event>
<event>
 5    1  0.3331626E-002  0.1250057E+03  0.7818608E-02  0.1235060E+00
          4   -1    0    0  501    0  0.00000000000E+00  0.00000000000E+00  0.29077321554E+02  0.29105043012E+02  0.12700000000E+01 0.  1.
         -4   -1    0    0    0  501 -0.00000000000E+00 -0.00000000000E+00 -0.13425770424E+03  0.13426371084E+03  0.12700000000E+01 0.  1.
         25    2    1    2    0    0  0.00000000000E+00  0.00000000000E+00 -0.10518038269E+03  0.16336875385E+03  0.12500574720E+03 0.  0.
    9000005    1    3    3    0    0 -0.48741437161E+01  0.57248912604E+02 -0.20460522382E+02  0.60998592176E+02  0.10000000000E+01 0.  0.
    9000005    1    3    3    0    0  0.48741437161E+01 -0.57248912604E+02 -0.84719860309E+02  0.10237016168E+03  0.10000000000E+01 0.  0.
<mgrwt>
<rscale>  0 0.12500575E+03</rscale>
<asrwt>0</asrwt>
<pdfrwt beam="1">  1        4 0.44760286E-02 0.12500575E+03</pdfrwt>
<pdfrwt beam="2">  1       -4 0.20657626E-01 0.12500575E+03</pdfrwt>
<totfact> 0.96684733E+03</totfact>
</mgrwt>
</event>
<event>
 5    1  0.3331626E-002  0.1249938E+03  0.7818608E-02  0.1235079E+00
          4   -1    0    0  501    0  0.00000000000E+00  0.00000000000E+00  0.70539087864E+01  0.71673237102E+01  0.12700000000E+01 0.  1.
         -4   -1    0    0    0  501 -0.00000000000E+00 -0.00000000000E+00 -0.54918626243E+03  0.54918773087E+03  0.12700000000E+01 0.  1.
         25    2    1    2    0    0  0.00000000000E+00  0.00000000000E+00 -0.54213235364E+03  0.55635505458E+03  0.12499383142E+03 0.  0.
    9000005    1    3    3    0    0  0.58247519866E+02  0.39020169389E+01 -0.17184994405E+03  0.18149766548E+03  0.10000000000E+01 0.  0.
    9000005    1    3    3    0    0 -0.58247519866E+02 -0.39020169389E+01 -0.37028240959E+03  0.37485738910E+03  0.10000000000E+01 0.  0.
<mgrwt>
<rscale>  0 0.12499383E+03</rscale>
<asrwt>0</asrwt>
<pdfrwt beam="1">  1        4 0.10940543E-02 0.12499383E+03</pdfrwt>
<pdfrwt beam="2">  1       -4 0.84498998E-01 0.12499383E+03</pdfrwt>
<totfact> 0.51750852E+03</totfact>
</mgrwt>
</event>
<event>
 5    1  0.3331626E-002  0.1249962E+03  0.7818608E-02  0.1235075E+00
         -4   -1    0    0    0  501 -0.00000000000E+00  0.00000000000E+00  0.18232288351E+02  0.18276466795E+02  0.12700000000E+01 0.  1.
          4   -1    0    0  501    0  0.00000000000E+00 -0.00000000000E+00 -0.21393084407E+03  0.21393461371E+03  0.12700000000E+01 0.  1.
         25    2    1    2    0    0  0.00000000000E+00  0.00000000000E+00 -0.19569855571E+03  0.23221108050E+03  0.12499624474E+03 0.  0.
    9000005    1    3    3    0    0  0.26432837649E+02  0.18073786447E+02  0.18418427281E+01  0.32089703136E+02  0.10000000000E+01 0.  0.
    9000005    1    3    3    0    0 -0.26432837649E+02 -0.18073786447E+02 -0.19754039844E+03  0.20012137737E+03  0.10000000000E+01 0.  0.
<mgrwt>
<rscale>  0 0.12499624E+03</rscale>
<asrwt>0</asrwt>
<pdfrwt beam="2">  1        4 0.32916124E-01 0.12499624E+03</pdfrwt>
<pdfrwt beam="1">  1       -4 0.28086559E-02 0.12499624E+03</pdfrwt>
<totfact> 0.84978355E+03</totfact>
</mgrwt>
</event>
<event>
 5    1  0.3331626E-002  0.1250009E+03  0.7818608E-02  0.1235068E+00
          4   -1    0    0  501    0  0.00000000000E+00  0.00000000000E+00  0.34819767243E+03  0.34819998849E+03  0.12700000000E+01 0. -1.
         -4   -1    0    0    0  501 -0.00000000000E+00 -0.00000000000E+00 -0.11180335961E+02  0.11252235875E+02  0.12700000000E+01 0. -1.
         25    2    1    2    0    0  0.00000000000E+00  0.00000000000E+00  0.33701733647E+03  0.35945222437E+03  0.12500086608E+03 0.  0.
    9000005    1    3    3    0    0 -0.26611373324E+02  0.36755069284E+02  0.44951491475E+02  0.63880645692E+02  0.10000000000E+01 0.  0.
    9000005    1    3    3    0    0  0.26611373324E+02 -0.36755069284E+02  0.29206584499E+03  0.29557157868E+03  0.10000000000E+01 0.  0.
<mgrwt>
<rscale>  0 0.12500087E+03</rscale>
<asrwt>0</asrwt>
<pdfrwt beam="1">  1        4 0.53574572E-01 0.12500087E+03</pdfrwt>
<pdfrwt beam="2">  1       -4 0.17257609E-02 0.12500087E+03</pdfrwt>
<totfact> 0.68695750E+03</totfact>
</mgrwt>
</event>
<event>
 5    1  0.3331626E-002  0.1249996E+03  0.7818608E-02  0.1235070E+00
         -4   -1    0    0    0  501 -0.00000000000E+00  0.00000000000E+00  0.98493800752E+02  0.98501988236E+02  0.12700000000E+01 0.  1.
          4   -1    0    0  501    0  0.00000000000E+00 -0.00000000000E+00 -0.39639585801E+02  0.39659925145E+02  0.12700000000E+01 0.  1.
         25    2    1    2    0    0  0.00000000000E+00  0.00000000000E+00  0.58854214951E+02  0.13816191338E+03  0.12499958277E+03 0.  0.
    9000005    1    3    3    0    0  0.19640874443E+02 -0.57594276612E+02  0.13703893175E+02  0.62383181511E+02  0.10000000000E+01 0.  0.
    9000005    1    3    3    0    0 -0.19640874443E+02  0.57594276612E+02  0.45150321776E+02  0.75778731870E+02  0.10000000000E+01 0.  0.
<mgrwt>
<rscale>  0 0.12499958E+03</rscale>
<asrwt>0</asrwt>
<pdfrwt beam="2">  1        4 0.61005922E-02 0.12499958E+03</pdfrwt>
<pdfrwt beam="1">  1       -4 0.15155087E-01 0.12499958E+03</pdfrwt>
<totfact> 0.10171920E+04</totfact>
</mgrwt>
</event>
<event>
 5    1  0.3331626E-002  0.1250013E+03  0.7818608E-02  0.1235067E+00
          4   -1    0    0  501    0  0.00000000000E+00  0.00000000000E+00  0.31570250106E+02  0.31595784398E+02  0.12700000000E+01 0. -1.
         -4   -1    0    0    0  501 -0.00000000000E+00 -0.00000000000E+00 -0.12365576280E+03  0.12366228437E+03  0.12700000000E+01 0. -1.
         25    2    1    2    0    0  0.00000000000E+00  0.00000000000E+00 -0.92085512698E+02  0.15525806876E+03  0.12500130506E+03 0.  0.
    9000005    1    3    3    0    0 -0.50138664934E+02  0.31907691842E+01  0.11855211612E+00  0.50250181929E+02  0.10000000000E+01 0.  0.
    9000005    1    3    3    0    0  0.50138664934E+02 -0.31907691842E+01 -0.92204064814E+02  0.10500788683E+03  0.10000000000E+01 0.  0.
<mgrwt>
<rscale>  0 0.12500131E+03</rscale>
<asrwt>0</asrwt>
<pdfrwt beam="1">  1        4 0.48594275E-02 0.12500131E+03</pdfrwt>
<pdfrwt beam="2">  1       -4 0.19026429E-01 0.12500131E+03</pdfrwt>
<totfact> 0.98261977E+03</totfact>
</mgrwt>
</event>
<event>
 5    1  0.3331626E-002  0.1249999E+03  0.7818608E-02  0.1235069E+00
         -4   -1    0    0    0  501 -0.00000000000E+00  0.00000000000E+00  0.19487174923E+02  0.19528514702E+02  0.12700000000E+01 0. -1.
          4   -1    0    0  501    0  0.00000000000E+00 -0.00000000000E+00 -0.20019628849E+03  0.20020031675E+03  0.12700000000E+01 0. -1.
         25    2    1    2    0    0  0.00000000000E+00  0.00000000000E+00 -0.18070911357E+03  0.21972883145E+03  0.12499990257E+03 0.  0.
    9000005    1    3    3    0    0 -0.54411841193E+02  0.29594854296E+02 -0.75780438591E+02  0.97878387481E+02  0.10000000000E+01 0.  0.
    9000005    1    3    3    0    0  0.54411841193E+02 -0.29594854296E+02 -0.10492867498E+03  0.12185044397E+03  0.10000000000E+01 0.  0.
<mgrwt>
<rscale>  0 0.12499990E+03</rscale>
<asrwt>0</asrwt>
<pdfrwt beam="2">  1        4 0.30802917E-01 0.12499990E+03</pdfrwt>
<pdfrwt beam="1">  1       -4 0.30015169E-02 0.12499990E+03</pdfrwt>
<totfact> 0.86911466E+03</totfact>
</mgrwt>
</event>
<event>
 5    1  0.3331626E-002  0.1249994E+03  0.7818608E-02  0.1235070E+00
         -4   -1    0    0    0  501 -0.00000000000E+00  0.00000000000E+00  0.62530634198E+01  0.63807289656E+01  0.12700000000E+01 0.  1.
          4   -1    0    0  501    0  0.00000000000E+00 -0.00000000000E+00 -0.61824682142E+03  0.61824812583E+03  0.12700000000E+01 0.  1.
         25    2    1    2    0    0  0.00000000000E+00  0.00000000000E+00 -0.61199375800E+03  0.62462885479E+03  0.12499938566E+03 0.  0.
    9000005    1    3    3    0    0  0.10076429807E+02  0.94800432867E+01 -0.14713069771E+01  0.13948849508E+02  0.10000000000E+01 0.  0.
    9000005    1    3    3    0    0 -0.10076429807E+02 -0.94800432867E+01 -0.61052245102E+03  0.61068000529E+03  0.10000000000E+01 0.  0.
<mgrwt>
<rscale>  0 0.12499939E+03</rscale>
<asrwt>0</asrwt>
<pdfrwt beam="2">  1        4 0.95124768E-01 0.12499939E+03</pdfrwt>
<pdfrwt beam="1">  1       -4 0.97193102E-03 0.12499939E+03</pdfrwt>
<totfact> 0.47349634E+03</totfact>
</mgrwt>
</event>
<event>
 5    1  0.3331626E-002  0.1250002E+03  0.7818608E-02  0.1235069E+00
         -4   -1    0    0    0  501 -0.00000000000E+00  0.00000000000E+00  0.75265881937E+02  0.75276595856E+02  0.12700000000E+01 0.  1.
          4   -1    0    0  501    0  0.00000000000E+00 -0.00000000000E+00 -0.51877349957E+02  0.51892892948E+02  0.12700000000E+01 0.  1.
         25    2    1    2    0    0  0.00000000000E+00  0.00000000000E+00  0.23388531980E+02  0.12716948880E+03  0.12500022182E+03 0.  0.
    9000005    1    3    3    0    0  0.22031624584E+02  0.38087533498E+02  0.56840163108E+02  0.71887807255E+02  0.10000000000E+01 0.  0.
    9000005    1    3    3    0    0 -0.22031624584E+02 -0.38087533498E+02 -0.33451631129E+02  0.55281681549E+02  0.10000000000E+01 0.  0.
<mgrwt>
<rscale>  0 0.12500022E+03</rscale>
<asrwt>0</asrwt>
<pdfrwt beam="2">  1        4 0.79831505E-02 0.12500022E+03</pdfrwt>
<pdfrwt beam="1">  1       -4 0.11581386E-01 0.12500022E+03</pdfrwt>
<totfact> 0.10405413E+04</totfact>
</mgrwt>
</event>
<event>
 5    1  0.3331626E-002  0.1249957E+03  0.7818608E-02  0.1235076E+00
          4   -1    0    0  501    0  0.00000000000E+00  0.00000000000E+00  0.13518924536E+02  0.13578446914E+02  0.12700000000E+01 0.  1.
         -4   -1    0    0    0  501 -0.00000000000E+00 -0.00000000000E+00 -0.28823138298E+03  0.28823418089E+03  0.12700000000E+01 0.  1.
         25    2    1    2    0    0  0.00000000000E+00  0.00000000000E+00 -0.27471245845E+03  0.30181262781E+03  0.12499570984E+03 0.  0.
    9000005    1    3    3    0    0 -0.15413091258E+02 -0.42575512749E+02 -0.33367969436E+02  0.56255302437E+02  0.10000000000E+01 0.  0.
    9000005    1    3    3    0    0  0.15413091258E+02  0.42575512749E+02 -0.24134448901E+03  0.24555732537E+03  0.10000000000E+01 0.  0.
<mgrwt>
<rscale>  0 0.12499571E+03</rscale>
<asrwt>0</asrwt>
<pdfrwt beam="1">  1        4 0.20846286E-02 0.12499571E+03</pdfrwt>
<pdfrwt beam="2">  1       -4 0.44348079E-01 0.12499571E+03</pdfrwt>
<totfact> 0.75379207E+03</totfact>
</mgrwt>
</event>
<event>
 5    1  0.3331626E-002  0.1249960E+03  0.7818608E-02  0.1235076E+00
         -4   -1    0    0    0  501 -0.00000000000E+00  0.00000000000E+00  0.16689813716E+02  0.16738063863E+02  0.12700000000E+01 0.  1.
          4   -1    0    0  501    0  0.00000000000E+00 -0.00000000000E+00 -0.23364717312E+03  0.23365062466E+03  0.12700000000E+01 0.  1.
         25    2    1    2    0    0  0.00000000000E+00  0.00000000000E+00 -0.21695735940E+03  0.25038868853E+03  0.12499599811E+03 0.  0.
    9000005    1    3    3    0    0  0.45052084826E+02  0.36721165957E+02 -0.62498731126E+02  0.85353534014E+02  0.10000000000E+01 0.  0.
    9000005    1    3    3    0    0 -0.45052084826E+02 -0.36721165957E+02 -0.15445862827E+03  0.16503515451E+03  0.10000000000E+01 0.  0.
<mgrwt>
<rscale>  0 0.12499600E+03</rscale>
<asrwt>0</asrwt>
<pdfrwt beam="2">  1        4 0.35949694E-01 0.12499600E+03</pdfrwt>
<pdfrwt beam="1">  1       -4 0.25716409E-02 0.12499600E+03</pdfrwt>
<totfact> 0.82281418E+03</totfact>
</mgrwt>
</event>
<event>
 5    1  0.3331626E-002  0.1249986E+03  0.7818608E-02  0.1235072E+00
          4   -1    0    0  501    0  0.00000000000E+00  0.00000000000E+00  0.96671609856E+02  0.96679951656E+02  0.12700000000E+01 0. -1.
         -4   -1    0    0    0  501 -0.00000000000E+00 -0.00000000000E+00 -0.40386426746E+02  0.40406390154E+02  0.12700000000E+01 0. -1.
         25    2    1    2    0    0  0.00000000000E+00  0.00000000000E+00  0.56285183111E+02  0.13708634181E+03  0.12499857308E+03 0.  0.
    9000005    1    3    3    0    0  0.32834166970E+02 -0.30000490740E+01 -0.30076528484E+02  0.44639448706E+02  0.10000000000E+01 0.  0.
    9000005    1    3    3    0    0 -0.32834166970E+02  0.30000490740E+01  0.86361711595E+02  0.92446893105E+02  0.10000000000E+01 0.  0.
<mgrwt>
<rscale>  0 0.12499857E+03</rscale>
<asrwt>0</asrwt>
<pdfrwt beam="1">  1        4 0.14874733E-01 0.12499857E+03</pdfrwt>
<pdfrwt beam="2">  1       -4 0.62154738E-02 0.12499857E+03</pdfrwt>
<totfact> 0.10194609E+04</totfact>
</mgrwt>
</event>
<event>
 5    1  0.3331626E-002  0.1249994E+03  0.7818608E-02  0.1235070E+00
          4   -1    0    0  501    0  0.00000000000E+00  0.00000000000E+00  0.25657162680E+03  0.25657476996E+03  0.12700000000E+01 0. -1.
         -4   -1    0    0    0  501 -0.00000000000E+00 -0.00000000000E+00 -0.15194922532E+02  0.15247903816E+02  0.12700000000E+01 0. -1.
         25    2    1    2    0    0  0.00000000000E+00  0.00000000000E+00  0.24137670427E+03  0.27182267378E+03  0.12499941046E+03 0.  0.
    9000005    1    3    3    0    0 -0.57655581141E+02 -0.23501513726E+02  0.10903327740E+03  0.12556170899E+03  0.10000000000E+01 0.  0.
    9000005    1    3    3    0    0  0.57655581141E+02  0.23501513726E+02  0.13234342687E+03  0.14626096479E+03  0.10000000000E+01 0.  0.
<mgrwt>
<rscale>  0 0.12499941E+03</rscale>
<asrwt>0</asrwt>
<pdfrwt beam="1">  1        4 0.39476878E-01 0.12499941E+03</pdfrwt>
<pdfrwt beam="2">  1       -4 0.23419975E-02 0.12499941E+03</pdfrwt>
<totfact> 0.79276040E+03</totfact>
</mgrwt>
</event>
<event>
 5    1  0.3331626E-002  0.1250014E+03  0.7818608E-02  0.1235067E+00
         -4   -1    0    0    0  501 -0.00000000000E+00  0.00000000000E+00  0.19652767392E+03  0.19653177737E+03  0.12700000000E+01 0. -1.
          4   -1    0    0  501    0  0.00000000000E+00 -0.00000000000E+00 -0.19852189213E+02  0.19892770460E+02  0.12700000000E+01 0. -1.
         25    2    1    2    0    0  0.00000000000E+00  0.00000000000E+00  0.17667548471E+03  0.21642454783E+03  0.12500143202E+03 0.  0.
    9000005    1    3    3    0    0  0.57614616146E+02  0.24193279473E+02  0.89657156414E+02  0.10928936115E+03  0.10000000000E+01 0.  0.
    9000005    1    3    3    0    0 -0.57614616146E+02 -0.24193279473E+02  0.87018328295E+02  0.10713518668E+03  0.10000000000E+01 0.  0.
<mgrwt>
<rscale>  0 0.12500143E+03</rscale>
<asrwt>0</asrwt>
<pdfrwt beam="2">  1        4 0.30576204E-02 0.12500143E+03</pdfrwt>
<pdfrwt beam="1">  1       -4 0.30238463E-01 0.12500143E+03</pdfrwt>
<totfact> 0.87434502E+03</totfact>
</mgrwt>
</event>
<event>
 5    1  0.3331626E-002  0.1250007E+03  0.7818608E-02  0.1235068E+00
         -4   -1    0    0    0  501 -0.00000000000E+00  0.00000000000E+00  0.92297919256E+02  0.92306656309E+02  0.12700000000E+01 0. -1.
          4   -1    0    0  501    0  0.00000000000E+00 -0.00000000000E+00 -0.42302417475E+02  0.42321477104E+02  0.12700000000E+01 0. -1.
         25    2    1    2    0    0  0.00000000000E+00  0.00000000000E+00  0.49995501781E+02  0.13462813341E+03  0.12500073643E+03 0.  0.
    9000005    1    3    3    0    0 -0.26565333215E+02  0.91045834451E+00  0.85911231149E+02  0.89934895902E+02  0.10000000000E+01 0.  0.
    9000005    1    3    3    0    0  0.26565333215E+02 -0.91045834451E+00 -0.35915729368E+02  0.44693237512E+02  0.10000000000E+01 0.  0.
<mgrwt>
<rscale>  0 0.12500074E+03</rscale>
<asrwt>0</asrwt>
<pdfrwt beam="2">  1        4 0.65102025E-02 0.12500074E+03</pdfrwt>
<pdfrwt beam="1">  1       -4 0.14201818E-01 0.12500074E+03</pdfrwt>
<totfact> 0.10245745E+04</totfact>
</mgrwt>
</event>
<event>
 5    1  0.3331626E-002  0.1250022E+03  0.7818608E-02  0.1235066E+00
          4   -1    0    0  501    0  0.00000000000E+00  0.00000000000E+00  0.32060296758E+02  0.32085441063E+02  0.12700000000E+01 0. -1.
         -4   -1    0    0    0  501 -0.00000000000E+00 -0.00000000000E+00 -0.12176874505E+03  0.12177536767E+03  0.12700000000E+01 0. -1.
         25    2    1    2    0    0  0.00000000000E+00  0.00000000000E+00 -0.89708448296E+02  0.15386080874E+03  0.12500217106E+03 0.  0.
    9000005    1    3    3    0    0  0.16813596577E+02 -0.35701568770E+02 -0.10449832757E+03  0.11170586156E+03  0.10000000000E+01 0.  0.
    9000005    1    3    3    0    0 -0.16813596577E+02  0.35701568770E+02  0.14789879273E+02  0.42154947176E+02  0.10000000000E+01 0.  0.
<mgrwt>
<rscale>  0 0.12500217E+03</rscale>
<asrwt>0</asrwt>
<pdfrwt beam="1">  1        4 0.49347970E-02 0.12500217E+03</pdfrwt>
<pdfrwt beam="2">  1       -4 0.18736096E-01 0.12500217E+03</pdfrwt>
<totfact> 0.98534784E+03</totfact>
</mgrwt>
</event>
<event>
 5    1  0.3331626E-002  0.1250070E+03  0.7818608E-02  0.1235058E+00
         -4   -1    0    0    0  501 -0.00000000000E+00  0.00000000000E+00  0.21457595532E+02  0.21495146104E+02  0.12700000000E+01 0.  1.
          4   -1    0    0  501    0  0.00000000000E+00 -0.00000000000E+00 -0.18186651374E+03  0.18187094799E+03  0.12700000000E+01 0.  1.
         25    2    1    2    0    0  0.00000000000E+00  0.00000000000E+00 -0.16040891821E+03  0.20336609409E+03  0.12500698854E+03 0.  0.
    9000005    1    3    3    0    0 -0.28586678440E+02 -0.33857433599E+02 -0.85097560341E+01  0.45132471037E+02  0.10000000000E+01 0.  0.
    9000005    1    3    3    0    0  0.28586678440E+02  0.33857433599E+02 -0.15189916218E+03  0.15823362305E+03  0.10000000000E+01 0.  0.
<mgrwt>
<rscale>  0 0.12500699E+03</rscale>
<asrwt>0</asrwt>
<pdfrwt beam="2">  1        4 0.27982692E-01 0.12500699E+03</pdfrwt>
<pdfrwt beam="1">  1       -4 0.33043983E-02 0.12500699E+03</pdfrwt>
<totfact> 0.89556875E+03</totfact>
</mgrwt>
</event>
<event>
 5    1  0.3331626E-002  0.1250007E+03  0.7818608E-02  0.1235068E+00
         -4   -1    0    0    0  501 -0.00000000000E+00  0.00000000000E+00  0.52210859008E+02  0.52226302745E+02  0.12700000000E+01 0.  1.
          4   -1    0    0  501    0  0.00000000000E+00 -0.00000000000E+00 -0.74785693445E+02  0.74796476147E+02  0.12700000000E+01 0.  1.
         25    2    1    2    0    0  0.00000000000E+00  0.00000000000E+00 -0.22574834437E+02  0.12702277889E+03  0.12500065283E+03 0.  0.
    9000005    1    3    3    0    0 -0.28655822351E+02  0.87949121682E+00  0.45138876599E+02  0.53483154731E+02  0.10000000000E+01 0.  0.
    9000005    1    3    3    0    0  0.28655822351E+02 -0.87949121682E+00 -0.67713711036E+02  0.73539624160E+02  0.10000000000E+01 0.  0.
<mgrwt>
<rscale>  0 0.12500065E+03</rscale>
<asrwt>0</asrwt>
<pdfrwt beam="2">  1        4 0.11507509E-01 0.12500065E+03</pdfrwt>
<pdfrwt beam="1">  1       -4 0.80344573E-02 0.12500065E+03</pdfrwt>
<totfact> 0.10408497E+04</totfact>
</mgrwt>
</event>
<event>
 5    1  0.3331626E-002  0.1249984E+03  0.7818608E-02  0.1235072E+00
          4   -1    0    0  501    0  0.00000000000E+00  0.00000000000E+00  0.74307248823E+02  0.74318100942E+02  0.12700000000E+01 0.  1.
         -4   -1    0    0    0  501 -0.00000000000E+00 -0.00000000000E+00 -0.52545183077E+02  0.52560528580E+02  0.12700000000E+01 0.  1.
         25    2    1    2    0    0  0.00000000000E+00  0.00000000000E+00  0.21762065746E+02  0.12687862952E+03  0.12499839649E+03 0.  0.
    9000005    1    3    3    0    0  0.72547302854E+01  0.36521815128E+02  0.61822349124E+02  0.72176706374E+02  0.10000000000E+01 0.  0.
    9000005    1    3    3    0    0 -0.72547302854E+01 -0.36521815128E+02 -0.40060283378E+02  0.54701923148E+02  0.10000000000E+01 0.  0.
<mgrwt>
<rscale>  0 0.12499840E+03</rscale>
<asrwt>0</asrwt>
<pdfrwt beam="1">  1        4 0.11433900E-01 0.12499840E+03</pdfrwt>
<pdfrwt beam="2">  1       -4 0.80858896E-02 0.12499840E+03</pdfrwt>
<totfact> 0.10412160E+04</totfact>
</mgrwt>
</event>
<event>
 5    1  0.3331626E-002  0.1250004E+03  0.7818608E-02  0.1235069E+00
         -4   -1    0    0    0  501 -0.00000000000E+00  0.00000000000E+00  0.16819685390E+03  0.16820164851E+03  0.12700000000E+01 0.  1.
          4   -1    0    0  501    0  0.00000000000E+00 -0.00000000000E+00 -0.23201920702E+02  0.23236652604E+02  0.12700000000E+01 0.  1.
         25    2    1    2    0    0  0.00000000000E+00  0.00000000000E+00  0.14499493320E+03  0.19143830111E+03  0.12500036992E+03 0.  0.
    9000005    1    3    3    0    0 -0.26133297429E+02 -0.18327389058E+02 -0.97832566547E+01  0.33399918188E+02  0.10000000000E+01 0.  0.
    9000005    1    3    3    0    0  0.26133297429E+02  0.18327389058E+02  0.15477818985E+03  0.15803838293E+03  0.10000000000E+01 0.  0.
<mgrwt>
<rscale>  0 0.12500037E+03</rscale>
<asrwt>0</asrwt>
<pdfrwt beam="2">  1        4 0.35725667E-02 0.12500037E+03</pdfrwt>
<pdfrwt beam="1">  1       -4 0.25879480E-01 0.12500037E+03</pdfrwt>
<totfact> 0.91596896E+03</totfact>
</mgrwt>
</event>
<event>
 5    1  0.3331626E-002  0.1250163E+03  0.7818608E-02  0.1235044E+00
          4   -1    0    0  501    0  0.00000000000E+00  0.00000000000E+00  0.35875966230E+02  0.35898438029E+02  0.12700000000E+01 0.  1.
         -4   -1    0    0    0  501 -0.00000000000E+00 -0.00000000000E+00 -0.10885022883E+03  0.10885763738E+03  0.12700000000E+01 0.  1.
         25    2    1    2    0    0  0.00000000000E+00  0.00000000000E+00 -0.72974262602E+02  0.14475607541E+03  0.12501631240E+03 0.  0.
    9000005    1    3    3    0    0  0.27965958077E+02  0.15000635955E+02 -0.98832742345E+02  0.10380763387E+03  0.10000000000E+01 0.  0.
    9000005    1    3    3    0    0 -0.27965958077E+02 -0.15000635955E+02  0.25858479743E+02  0.40948441543E+02  0.10000000000E+01 0.  0.
<mgrwt>
<rscale>  0 0.12501631E+03</rscale>
<asrwt>0</asrwt>
<pdfrwt beam="1">  1        4 0.55216779E-02 0.12501631E+03</pdfrwt>
<pdfrwt beam="2">  1       -4 0.16748487E-01 0.12501631E+03</pdfrwt>
<totfact> 0.10032261E+04</totfact>
</mgrwt>
</event>
<event>
 5    1  0.3331626E-002  0.1250186E+03  0.7818608E-02  0.1235040E+00
         -4   -1    0    0    0  501 -0.00000000000E+00  0.00000000000E+00  0.20351129259E+03  0.20351525523E+03  0.12700000000E+01 0. -1.
          4   -1    0    0  501    0  0.00000000000E+00 -0.00000000000E+00 -0.19174820500E+02  0.19216832236E+02  0.12700000000E+01 0. -1.
         25    2    1    2    0    0  0.00000000000E+00  0.00000000000E+00  0.18433647209E+03  0.22273208747E+03  0.12501859000E+03 0.  0.
    9000005    1    3    3    0    0 -0.39889707207E+01  0.28652730169E+02  0.19087422505E+03  0.19305662543E+03  0.10000000000E+01 0.  0.
    9000005    1    3    3    0    0  0.39889707207E+01 -0.28652730169E+02 -0.65377529577E+01  0.29675462040E+02  0.10000000000E+01 0.  0.
<mgrwt>
<rscale>  0 0.12501859E+03</rscale>
<asrwt>0</asrwt>
<pdfrwt beam="2">  1        4 0.29535089E-02 0.12501859E+03</pdfrwt>
<pdfrwt beam="1">  1       -4 0.31312966E-01 0.12501859E+03</pdfrwt>
<totfact> 0.86401996E+03</totfact>
</mgrwt>
</event>
<event>
 5    1  0.3331626E-002  0.1249933E+03  0.7818608E-02  0.1235080E+00
         -4   -1    0    0    0  501 -0.00000000000E+00  0.00000000000E+00  0.11855486289E+02  0.11923315611E+02  0.12700000000E+01 0.  1.
          4   -1    0    0  501    0  0.00000000000E+00 -0.00000000000E+00 -0.32844445582E+03  0.32844691117E+03  0.12700000000E+01 0.  1.
         25    2    1    2    0    0  0.00000000000E+00  0.00000000000E+00 -0.31658896953E+03  0.34037022678E+03  0.12499326243E+03 0.  0.
    9000005    1    3    3    0    0 -0.41191755532E+02 -0.11494030695E+02 -0.28236653956E+03  0.28558840335E+03  0.10000000000E+01 0.  0.
    9000005    1    3    3    0    0  0.41191755532E+02  0.11494030695E+02 -0.34222429969E+02  0.54781823431E+02  0.10000000000E+01 0.  0.
<mgrwt>
<rscale>  0 0.12499326E+03</rscale>
<asrwt>0</asrwt>
<pdfrwt beam="2">  1        4 0.50535316E-01 0.12499326E+03</pdfrwt>
<pdfrwt beam="1">  1       -4 0.18293277E-02 0.12499326E+03</pdfrwt>
<totfact> 0.70807670E+03</totfact>
</mgrwt>
</event>
<event>
 5    1  0.3331626E-002  0.1250034E+03  0.7818608E-02  0.1235064E+00
         -4   -1    0    0    0  501 -0.00000000000E+00  0.00000000000E+00  0.25202021556E+01  0.28221124898E+01  0.12700000000E+01 0. -1.
          4   -1    0    0  501    0  0.00000000000E+00 -0.00000000000E+00 -0.14621573343E+04  0.14621578858E+04  0.12700000000E+01 0. -1.
         25    2    1    2    0    0  0.00000000000E+00  0.00000000000E+00 -0.14596371321E+04  0.14649799983E+04  0.12500335193E+03 0.  0.
    9000005    1    3    3    0    0  0.26853743152E+02  0.88141839471E+01 -0.76603894717E+02  0.81657639237E+02  0.10000000000E+01 0.  0.
    9000005    1    3    3    0    0 -0.26853743152E+02 -0.88141839471E+01 -0.13830332374E+04  0.13833223591E+04  0.10000000000E+01 0.  0.
<mgrwt>
<rscale>  0 0.12500335E+03</rscale>
<asrwt>0</asrwt>
<pdfrwt beam="2">  1        4 0.22496991E+00 0.12500335E+03</pdfrwt>
<pdfrwt beam="1">  1       -4 0.41099088E-03 0.12500335E+03</pdfrwt>
<totfact> 0.18626712E+03</totfact>
</mgrwt>
</event>
<event>
 5    1  0.3331626E-002  0.1249983E+03  0.7818608E-02  0.1235072E+00
         -4   -1    0    0    0  501 -0.00000000000E+00  0.00000000000E+00  0.24065701051E+02  0.24099188100E+02  0.12700000000E+01 0.  1.
          4   -1    0    0  501    0  0.00000000000E+00 -0.00000000000E+00 -0.16216277426E+03  0.16216774728E+03  0.12700000000E+01 0.  1.
         25    2    1    2    0    0  0.00000000000E+00  0.00000000000E+00 -0.13809707321E+03  0.18626693538E+03  0.12499827833E+03 0.  0.
    9000005    1    3    3    0    0 -0.18048811981E+02  0.41725647414E+01  0.19887345756E+02  0.27196993063E+02  0.10000000000E+01 0.  0.
    9000005    1    3    3    0    0  0.18048811981E+02 -0.41725647414E+01 -0.15798441897E+03  0.15906994231E+03  0.10000000000E+01 0.  0.
<mgrwt>
<rscale>  0 0.12499828E+03</rscale>
<asrwt>0</asrwt>
<pdfrwt beam="2">  1        4 0.24951077E-01 0.12499828E+03</pdfrwt>
<pdfrwt beam="1">  1       -4 0.37053741E-02 0.12499828E+03</pdfrwt>
<totfact> 0.92504512E+03</totfact>
</mgrwt>
</event>
<event>
 5    1  0.3331626E-002  0.1249973E+03  0.7818608E-02  0.1235073E+00
         -4   -1    0    0    0  501 -0.00000000000E+00  0.00000000000E+00  0.97071088999E+02  0.97079396472E+02  0.12700000000E+01 0. -1.
          4   -1    0    0  501    0  0.00000000000E+00 -0.00000000000E+00 -0.40219367130E+02  0.40239413420E+02  0.12700000000E+01 0. -1.
         25    2    1    2    0    0  0.00000000000E+00  0.00000000000E+00  0.56851721868E+02  0.13731880989E+03  0.12499734905E+03 0.  0.
    9000005    1    3    3    0    0 -0.39032309059E+02  0.43475069622E+02  0.40711594528E+01  0.58576250891E+02  0.10000000000E+01 0.  0.
    9000005    1    3    3    0    0  0.39032309059E+02 -0.43475069622E+02  0.52780562416E+02  0.78742559001E+02  0.10000000000E+01 0.  0.
<mgrwt>
<rscale>  0 0.12499735E+03</rscale>
<asrwt>0</asrwt>
<pdfrwt beam="2">  1        4 0.61897761E-02 0.12499735E+03</pdfrwt>
<pdfrwt beam="1">  1       -4 0.14936195E-01 0.12499735E+03</pdfrwt>
<totfact> 0.10190033E+04</totfact>
</mgrwt>
</event>
<event>
 5    1  0.3331626E-002  0.1250033E+03  0.7818608E-02  0.1235064E+00
          4   -1    0    0  501    0  0.00000000000E+00  0.00000000000E+00  0.35906926015E+02  0.35929378451E+02  0.12700000000E+01 0. -1.
         -4   -1    0    0    0  501 -0.00000000000E+00 -0.00000000000E+00 -0.10873370063E+03  0.10874111712E+03  0.12700000000E+01 0. -1.
         25    2    1    2    0    0  0.00000000000E+00  0.00000000000E+00 -0.72826774616E+02  0.14467049557E+03  0.12500325271E+03 0.  0.
    9000005    1    3    3    0    0 -0.56398643330E+02  0.35828315968E+01 -0.55359968608E+01  0.56791644746E+02  0.10000000000E+01 0.  0.
    9000005    1    3    3    0    0  0.56398643330E+02 -0.35828315968E+01 -0.67290777755E+02  0.87878850827E+02  0.10000000000E+01 0.  0.
<mgrwt>
<rscale>  0 0.12500325E+03</rscale>
<asrwt>0</asrwt>
<pdfrwt beam="1">  1        4 0.55264401E-02 0.12500325E+03</pdfrwt>
<pdfrwt beam="2">  1       -4 0.16730559E-01 0.12500325E+03</pdfrwt>
<totfact> 0.10036952E+04</totfact>
</mgrwt>
</event>
<event>
 5    1  0.3331626E-002  0.1250009E+03  0.7818608E-02  0.1235068E+00
         -4   -1    0    0    0  501 -0.00000000000E+00  0.00000000000E+00  0.30302893582E+01  0.32856587763E+01  0.12700000000E+01 0.  1.
          4   -1    0    0  501    0  0.00000000000E+00 -0.00000000000E+00 -0.12367093121E+04  0.12367099642E+04  0.12700000000E+01 0.  1.
         25    2    1    2    0    0  0.00000000000E+00  0.00000000000E+00 -0.12336790227E+04  0.12399956229E+04  0.12500085532E+03 0.  0.
    9000005    1    3    3    0    0  0.46227697339E+02  0.41843906819E+02 -0.65820788280E+03  0.66115545034E+03  0.10000000000E+01 0.  0.
    9000005    1    3    3    0    0 -0.46227697339E+02 -0.41843906819E+02 -0.57547113991E+03  0.57884017260E+03  0.10000000000E+01 0.  0.
<mgrwt>
<rscale>  0 0.12500086E+03</rscale>
<asrwt>0</asrwt>
<pdfrwt beam="2">  1        4 0.19028228E+00 0.12500086E+03</pdfrwt>
<pdfrwt beam="1">  1       -4 0.48589331E-03 0.12500086E+03</pdfrwt>
<totfact> 0.23688828E+03</totfact>
</mgrwt>
</event>
<event>
 5    1  0.3331626E-002  0.1249921E+03  0.7818608E-02  0.1235082E+00
          4   -1    0    0  501    0  0.00000000000E+00  0.00000000000E+00  0.42134325896E+02  0.42153461527E+02  0.12700000000E+01 0.  1.
         -4   -1    0    0    0  501 -0.00000000000E+00 -0.00000000000E+00 -0.92653197000E+02  0.92661900554E+02  0.12700000000E+01 0.  1.
         25    2    1    2    0    0  0.00000000000E+00  0.00000000000E+00 -0.50518871104E+02  0.13481536208E+03  0.12499210181E+03 0.  0.
    9000005    1    3    3    0    0 -0.30036512654E+02 -0.51977168840E+02 -0.65485011944E+01  0.60396200550E+02  0.10000000000E+01 0.  0.
    9000005    1    3    3    0    0  0.30036512654E+02  0.51977168840E+02 -0.43970369910E+02  0.74419161531E+02  0.10000000000E+01 0.  0.
<mgrwt>
<rscale>  0 0.12499210E+03</rscale>
<asrwt>0</asrwt>
<pdfrwt beam="1">  1        4 0.64843455E-02 0.12499210E+03</pdfrwt>
<pdfrwt beam="2">  1       -4 0.14256479E-01 0.12499210E+03</pdfrwt>
<totfact> 0.10243789E+04</totfact>
</mgrwt>
</event>
<event>
 5    1  0.3331626E-002  0.1249996E+03  0.7818608E-02  0.1235070E+00
          4   -1    0    0  501    0  0.00000000000E+00  0.00000000000E+00  0.62299482290E+01  0.63580779278E+01  0.12700000000E+01 0.  1.
         -4   -1    0    0    0  501 -0.00000000000E+00 -0.00000000000E+00 -0.62049703996E+03  0.62049833964E+03  0.12700000000E+01 0.  1.
         25    2    1    2    0    0  0.00000000000E+00  0.00000000000E+00 -0.61426709173E+03  0.62685641757E+03  0.12499963306E+03 0.  0.
    9000005    1    3    3    0    0  0.67429170695E+01 -0.40605868973E+02 -0.54293484864E+03  0.54449385065E+03  0.10000000000E+01 0.  0.
    9000005    1    3    3    0    0 -0.67429170695E+01  0.40605868973E+02 -0.71332243089E+02  0.82362566920E+02  0.10000000000E+01 0.  0.
<mgrwt>
<rscale>  0 0.12499963E+03</rscale>
<asrwt>0</asrwt>
<pdfrwt beam="1">  1        4 0.96841017E-03 0.12499963E+03</pdfrwt>
<pdfrwt beam="2">  1       -4 0.95470991E-01 0.12499963E+03</pdfrwt>
<totfact> 0.47215481E+03</totfact>
</mgrwt>
</event>
<event>
 5    1  0.3331626E-002  0.1249990E+03  0.7818608E-02  0.1235071E+00
         -4   -1    0    0    0  501 -0.00000000000E+00  0.00000000000E+00  0.20851240821E+02  0.20889881373E+02  0.12700000000E+01 0.  1.
          4   -1    0    0  501    0  0.00000000000E+00 -0.00000000000E+00 -0.18712180197E+03  0.18712611168E+03  0.12700000000E+01 0.  1.
         25    2    1    2    0    0  0.00000000000E+00  0.00000000000E+00 -0.16627056115E+03  0.20801599305E+03  0.12499901544E+03 0.  0.
    9000005    1    3    3    0    0 -0.78093598812E+01 -0.35725259420E+01  0.19872757578E+02  0.21671998919E+02  0.10000000000E+01 0.  0.
    9000005    1    3    3    0    0  0.78093598812E+01  0.35725259420E+01 -0.18614331873E+03  0.18634399414E+03  0.10000000000E+01 0.  0.
<mgrwt>
<rscale>  0 0.12499902E+03</rscale>
<asrwt>0</asrwt>
<pdfrwt beam="2">  1        4 0.28791272E-01 0.12499902E+03</pdfrwt>
<pdfrwt beam="1">  1       -4 0.32111872E-02 0.12499902E+03</pdfrwt>
<totfact> 0.88802879E+03</totfact>
</mgrwt>
</event>
<event>
 5    1  0.3331626E-002  0.1250025E+03  0.7818608E-02  0.1235065E+00
          4   -1    0    0  501    0  0.00000000000E+00  0.00000000000E+00  0.14375017856E+03  0.14375578853E+03  0.12700000000E+01 0. -1.
         -4   -1    0    0    0  501 -0.00000000000E+00 -0.00000000000E+00 -0.27153980430E+02  0.27183663351E+02  0.12700000000E+01 0. -1.
         25    2    1    2    0    0  0.00000000000E+00  0.00000000000E+00  0.11659619813E+03  0.17093945188E+03  0.12500249114E+03 0.  0.
    9000005    1    3    3    0    0  0.93072269687E+01  0.22987409109E+02 -0.20143305907E+02  0.31965578741E+02  0.10000000000E+01 0.  0.
    9000005    1    3    3    0    0 -0.93072269687E+01 -0.22987409109E+02  0.13673950404E+03  0.13897387314E+03  0.10000000000E+01 0.  0.
<mgrwt>
<rscale>  0 0.12500249E+03</rscale>
<asrwt>0</asrwt>
<pdfrwt beam="1">  1        4 0.22118127E-01 0.12500249E+03</pdfrwt>
<pdfrwt beam="2">  1       -4 0.41802503E-02 0.12500249E+03</pdfrwt>
<totfact> 0.95268498E+03</totfact>
</mgrwt>
</event>
<event>
 5    1  0.3331626E-002  0.1249999E+03  0.7818608E-02  0.1235069E+00
          4   -1    0    0  501    0  0.00000000000E+00  0.00000000000E+00  0.20038526806E+03  0.20038929251E+03  0.12700000000E+01 0.  1.
         -4   -1    0    0    0  501 -0.00000000000E+00 -0.00000000000E+00 -0.19468746803E+02  0.19510125630E+02  0.12700000000E+01 0.  1.
         25    2    1    2    0    0  0.00000000000E+00  0.00000000000E+00  0.18091652125E+03  0.21989941814E+03  0.12499986575E+03 0.  0.
    9000005    1    3    3    0    0  0.56168799664E+02 -0.10481141833E+02  0.13497857683E+03  0.14657764015E+03  0.10000000000E+01 0.  0.
    9000005    1    3    3    0    0 -0.56168799664E+02  0.10481141833E+02  0.45937944426E+02  0.73321777992E+02  0.10000000000E+01 0.  0.
<mgrwt>
<rscale>  0 0.12499987E+03</rscale>
<asrwt>0</asrwt>
<pdfrwt beam="1">  1        4 0.30831994E-01 0.12499987E+03</pdfrwt>
<pdfrwt beam="2">  1       -4 0.29986845E-02 0.12499987E+03</pdfrwt>
<totfact> 0.86884529E+03</totfact>
</mgrwt>
</event>
<event>
 5    1  0.3331626E-002  0.1249986E+03  0.7818608E-02  0.1235071E+00
          4   -1    0    0  501    0  0.00000000000E+00  0.00000000000E+00  0.57565438616E+02  0.57579446186E+02  0.12700000000E+01 0. -1.
         -4   -1    0    0    0  501 -0.00000000000E+00 -0.00000000000E+00 -0.67827822771E+02  0.67839711393E+02  0.12700000000E+01 0. -1.
         25    2    1    2    0    0  0.00000000000E+00  0.00000000000E+00 -0.10262384155E+02  0.12541915758E+03  0.12499859423E+03 0.  0.
    9000005    1    3    3    0    0 -0.27942146897E+02  0.47150604673E+02 -0.35252507304E+02  0.65174246182E+02  0.10000000000E+01 0.  0.
    9000005    1    3    3    0    0  0.27942146897E+02 -0.47150604673E+02  0.24990123149E+02  0.60244911397E+02  0.10000000000E+01 0.  0.
<mgrwt>
<rscale>  0 0.12499859E+03</rscale>
<asrwt>0</asrwt>
<pdfrwt beam="1">  1        4 0.88582134E-02 0.12499859E+03</pdfrwt>
<pdfrwt beam="2">  1       -4 0.10437042E-01 0.12499859E+03</pdfrwt>
<totfact> 0.10444074E+04</totfact>
</mgrwt>
</event>
<event>
 5    1  0.3331626E-002  0.1250138E+03  0.7818608E-02  0.1235048E+00
          4   -1    0    0  501    0  0.00000000000E+00  0.00000000000E+00  0.28398454099E+01  0.31108876470E+01  0.12700000000E+01 0.  1.
         -4   -1    0    0    0  501 -0.00000000000E+00 -0.00000000000E+00 -0.13128811895E+04  0.13128818037E+04  0.12700000000E+01 0.  1.
         25    2    1    2    0    0  0.00000000000E+00  0.00000000000E+00 -0.13100413441E+04  0.13159926914E+04  0.12501376168E+03 0.  0.
    9000005    1    3    3    0    0  0.29113777126E+02  0.55190878820E+02 -0.69218637057E+03  0.69499396884E+03  0.10000000000E+01 0.  0.
    9000005    1    3    3    0    0 -0.29113777126E+02 -0.55190878820E+02 -0.61785497350E+03  0.62099872255E+03  0.10000000000E+01 0.  0.
<mgrwt>
<rscale>  0 0.12501376E+03</rscale>
<asrwt>0</asrwt>
<pdfrwt beam="1">  1        4 0.45779700E-03 0.12501376E+03</pdfrwt>
<pdfrwt beam="2">  1       -4 0.20200216E+00 0.12501376E+03</pdfrwt>
<totfact> 0.21847688E+03</totfact>
</mgrwt>
</event>
<event>
 5    1  0.3331626E-002  0.1250018E+03  0.7818608E-02  0.1235066E+00
          4   -1    0    0  501    0  0.00000000000E+00  0.00000000000E+00  0.77485617990E+02  0.77496025029E+02  0.12700000000E+01 0. -1.
         -4   -1    0    0    0  501 -0.00000000000E+00 -0.00000000000E+00 -0.50392264284E+02  0.50408265192E+02  0.12700000000E+01 0. -1.
         25    2    1    2    0    0  0.00000000000E+00  0.00000000000E+00  0.27093353706E+02  0.12790429022E+03  0.12500183055E+03 0.  0.
    9000005    1    3    3    0    0 -0.17308486071E+02  0.16298256891E+02  0.72682625030E+02  0.76478630015E+02  0.10000000000E+01 0.  0.
    9000005    1    3    3    0    0  0.17308486071E+02 -0.16298256891E+02 -0.45589271324E+02  0.51425660205E+02  0.10000000000E+01 0.  0.
<mgrwt>
<rscale>  0 0.12500183E+03</rscale>
<asrwt>0</asrwt>
<pdfrwt beam="1">  1        4 0.11922896E-01 0.12500183E+03</pdfrwt>
<pdfrwt beam="2">  1       -4 0.77546874E-02 0.12500183E+03</pdfrwt>
<totfact> 0.10389126E+04</totfact>
</mgrwt>
</event>
<event>
 5    1  0.3331626E-002  0.1249984E+03  0.7818608E-02  0.1235072E+00
          4   -1    0    0  501    0  0.00000000000E+00  0.00000000000E+00  0.20290353861E+02  0.20330060497E+02  0.12700000000E+01 0.  1.
         -4   -1    0    0    0  501 -0.00000000000E+00 -0.00000000000E+00 -0.19228275255E+03  0.19228694658E+03  0.12700000000E+01 0.  1.
         25    2    1    2    0    0  0.00000000000E+00  0.00000000000E+00 -0.17199239869E+03  0.21261700708E+03  0.12499842597E+03 0.  0.
    9000005    1    3    3    0    0  0.29113524648E+02 -0.22005666077E+02  0.28955204871E+00  0.36509320691E+02  0.10000000000E+01 0.  0.
    9000005    1    3    3    0    0 -0.29113524648E+02  0.22005666077E+02 -0.17228195073E+03  0.17610768639E+03  0.10000000000E+01 0.  0.
<mgrwt>
<rscale>  0 0.12499843E+03</rscale>
<asrwt>0</asrwt>
<pdfrwt beam="1">  1        4 0.31249700E-02 0.12499843E+03</pdfrwt>
<pdfrwt beam="2">  1       -4 0.29585338E-01 0.12499843E+03</pdfrwt>
<totfact> 0.88053363E+03</totfact>
</mgrwt>
</event>
<event>
 5    1  0.3331626E-002  0.1249957E+03  0.7818608E-02  0.1235076E+00
         -4   -1    0    0    0  501 -0.00000000000E+00  0.00000000000E+00  0.27563891302E+03  0.27564183876E+03  0.12700000000E+01 0. -1.
          4   -1    0    0  501    0  0.00000000000E+00 -0.00000000000E+00 -0.14139194097E+02  0.14196116008E+02  0.12700000000E+01 0. -1.
         25    2    1    2    0    0  0.00000000000E+00  0.00000000000E+00  0.26149971893E+03  0.28983795476E+03  0.12499574802E+03 0.  0.
    9000005    1    3    3    0    0 -0.54993134865E+02  0.29568934416E+02  0.13662397724E+03  0.15021876687E+03  0.10000000000E+01 0.  0.
    9000005    1    3    3    0    0  0.54993134865E+02 -0.29568934416E+02  0.12487574169E+03  0.13961918789E+03  0.10000000000E+01 0.  0.
<mgrwt>
<rscale>  0 0.12499575E+03</rscale>
<asrwt>0</asrwt>
<pdfrwt beam="2">  1        4 0.21798646E-02 0.12499575E+03</pdfrwt>
<pdfrwt beam="1">  1       -4 0.42410585E-01 0.12499575E+03</pdfrwt>
<totfact> 0.76898754E+03</totfact>
</mgrwt>
</event>
<event>
 5    1  0.3331626E-002  0.1250011E+03  0.7818608E-02  0.1235067E+00
          4   -1    0    0  501    0  0.00000000000E+00  0.00000000000E+00  0.18364313618E+02  0.18408175212E+02  0.12700000000E+01 0. -1.
         -4   -1    0    0    0  501 -0.00000000000E+00 -0.00000000000E+00 -0.21241314676E+03  0.21241694333E+03  0.12700000000E+01 0. -1.
         25    2    1    2    0    0  0.00000000000E+00  0.00000000000E+00 -0.19404883314E+03  0.23082511855E+03  0.12500114283E+03 0.  0.
    9000005    1    3    3    0    0 -0.45899714511E+02  0.38144455687E+02 -0.13125044926E+03  0.14418551842E+03  0.10000000000E+01 0.  0.
    9000005    1    3    3    0    0  0.45899714511E+02 -0.38144455687E+02 -0.62798383880E+02  0.86639600125E+02  0.10000000000E+01 0.  0.
<mgrwt>
<rscale>  0 0.12500114E+03</rscale>
<asrwt>0</asrwt>
<pdfrwt beam="1">  1        4 0.28289452E-02 0.12500114E+03</pdfrwt>
<pdfrwt beam="2">  1       -4 0.32682610E-01 0.12500114E+03</pdfrwt>
<totfact> 0.85180889E+03</totfact>
</mgrwt>
</event>
<event>
 5    1  0.3331626E-002  0.1249967E+03  0.7818608E-02  0.1235074E+00
          4   -1    0    0  501    0  0.00000000000E+00  0.00000000000E+00  0.29622276568E+03  0.29622548811E+03  0.12700000000E+01 0.  1.
         -4   -1    0    0    0  501 -0.00000000000E+00 -0.00000000000E+00 -0.13152805641E+02  0.13213977306E+02  0.12700000000E+01 0.  1.
         25    2    1    2    0    0  0.00000000000E+00  0.00000000000E+00  0.28306996004E+03  0.30943946542E+03  0.12499672188E+03 0.  0.
    9000005    1    3    3    0    0  0.58450217966E+02 -0.16945439136E+02  0.10639662352E+03  0.12257576182E+03  0.10000000000E+01 0.  0.
    9000005    1    3    3    0    0 -0.58450217966E+02  0.16945439136E+02  0.17667333652E+03  0.18686370360E+03  0.10000000000E+01 0.  0.
<mgrwt>
<rscale>  0 0.12499672E+03</rscale>
<asrwt>0</asrwt>
<pdfrwt beam="1">  1        4 0.45577647E-01 0.12499672E+03</pdfrwt>
<pdfrwt beam="2">  1       -4 0.20284235E-02 0.12499672E+03</pdfrwt>
<totfact> 0.74435235E+03</totfact>
</mgrwt>
</event>
<event>
 5    1  0.3331626E-002  0.1249996E+03  0.7818608E-02  0.1235070E+00
          4   -1    0    0  501    0  0.00000000000E+00  0.00000000000E+00  0.77901305376E+01  0.78929736977E+01  0.12700000000E+01 0.  1.
         -4   -1    0    0    0  501 -0.00000000000E+00 -0.00000000000E+00 -0.49804092169E+03  0.49804254094E+03  0.12700000000E+01 0.  1.
         25    2    1    2    0    0  0.00000000000E+00  0.00000000000E+00 -0.49025079116E+03  0.50593551463E+03  0.12499962695E+03 0.  0.
    9000005    1    3    3    0    0  0.36376415816E+02  0.31869074932E+02 -0.40531346911E+03  0.40818977180E+03  0.10000000000E+01 0.  0.
    9000005    1    3    3    0    0 -0.36376415816E+02 -0.31869074932E+02 -0.84937322047E+02  0.97745742829E+02  0.10000000000E+01 0.  0.
<mgrwt>
<rscale>  0 0.12499963E+03</rscale>
<asrwt>0</asrwt>
<pdfrwt beam="1">  1        4 0.12065176E-02 0.12499963E+03</pdfrwt>
<pdfrwt beam="2">  1       -4 0.76629691E-01 0.12499963E+03</pdfrwt>
<totfact> 0.55407232E+03</totfact>
</mgrwt>
</event>
<event>
 5    1  0.3331626E-002  0.1250039E+03  0.7818608E-02  0.1235063E+00
          4   -1    0    0  501    0  0.00000000000E+00  0.00000000000E+00  0.83384163197E+01  0.84345768549E+01  0.12700000000E+01 0. -1.
         -4   -1    0    0    0  501 -0.00000000000E+00 -0.00000000000E+00 -0.46571059138E+03  0.46571232303E+03  0.12700000000E+01 0. -1.
         25    2    1    2    0    0  0.00000000000E+00  0.00000000000E+00 -0.45737217506E+03  0.47414689988E+03  0.12500390455E+03 0.  0.
    9000005    1    3    3    0    0 -0.24456768434E+02 -0.12337885541E+02 -0.15627789125E+02  0.31552887899E+02  0.10000000000E+01 0.  0.
    9000005    1    3    3    0    0  0.24456768434E+02  0.12337885541E+02 -0.44174438593E+03  0.44259401198E+03  0.10000000000E+01 0.  0.
<mgrwt>
<rscale>  0 0.12500390E+03</rscale>
<asrwt>0</asrwt>
<pdfrwt beam="1">  1        4 0.12903638E-02 0.12500390E+03</pdfrwt>
<pdfrwt beam="2">  1       -4 0.71655293E-01 0.12500390E+03</pdfrwt>
<totfact> 0.57922599E+03</totfact>
</mgrwt>
</event>
<event>
 5    1  0.3331626E-002  0.1249994E+03  0.7818608E-02  0.1235070E+00
          4   -1    0    0  501    0  0.00000000000E+00  0.00000000000E+00  0.31642264791E+02  0.31667741017E+02  0.12700000000E+01 0. -1.
         -4   -1    0    0    0  501 -0.00000000000E+00 -0.00000000000E+00 -0.12337084352E+03  0.12337738014E+03  0.12700000000E+01 0. -1.
         25    2    1    2    0    0  0.00000000000E+00  0.00000000000E+00 -0.91728578729E+02  0.15504512116E+03  0.12499942976E+03 0.  0.
    9000005    1    3    3    0    0  0.17376032439E+02 -0.53507952464E+02 -0.79610169868E+02  0.97487469075E+02  0.10000000000E+01 0.  0.
    9000005    1    3    3    0    0 -0.17376032439E+02  0.53507952464E+02 -0.12118408861E+02  0.57557652085E+02  0.10000000000E+01 0.  0.
<mgrwt>
<rscale>  0 0.12499943E+03</rscale>
<asrwt>0</asrwt>
<pdfrwt beam="1">  1        4 0.48705033E-02 0.12499943E+03</pdfrwt>
<pdfrwt beam="2">  1       -4 0.18982592E-01 0.12499943E+03</pdfrwt>
<totfact> 0.98307903E+03</totfact>
</mgrwt>
</event>
<event>
 5    1  0.3331626E-002  0.1250101E+03  0.7818608E-02  0.1235053E+00
         -4   -1    0    0    0  501 -0.00000000000E+00  0.00000000000E+00  0.89227496961E+02  0.89236534637E+02  0.12700000000E+01 0.  1.
          4   -1    0    0  501    0  0.00000000000E+00 -0.00000000000E+00 -0.43765169987E+02  0.43783592863E+02  0.12700000000E+01 0.  1.
         25    2    1    2    0    0  0.00000000000E+00  0.00000000000E+00  0.45462326974E+02  0.13302012750E+03  0.12501012417E+03 0.  0.
    9000005    1    3    3    0    0  0.17094435864E+02  0.59573439409E+02  0.14174230770E+02  0.63585558411E+02  0.10000000000E+01 0.  0.
    9000005    1    3    3    0    0 -0.17094435864E+02 -0.59573439409E+02  0.31288096204E+02  0.69434569089E+02  0.10000000000E+01 0.  0.
<mgrwt>
<rscale>  0 0.12501012E+03</rscale>
<asrwt>0</asrwt>
<pdfrwt beam="2">  1        4 0.67352155E-02 0.12501012E+03</pdfrwt>
<pdfrwt beam="1">  1       -4 0.13729419E-01 0.12501012E+03</pdfrwt>
<totfact> 0.10277625E+04</totfact>
</mgrwt>
</event>
<event>
 5    1  0.3331626E-002  0.1250002E+03  0.7818608E-02  0.1235069E+00
         -4   -1    0    0    0  501 -0.00000000000E+00  0.00000000000E+00  0.66997616029E+02  0.67009651943E+02  0.12700000000E+01 0.  1.
          4   -1    0    0  501    0  0.00000000000E+00 -0.00000000000E+00 -0.58280294641E+02  0.58294130437E+02  0.12700000000E+01 0.  1.
         25    2    1    2    0    0  0.00000000000E+00  0.00000000000E+00  0.87173213879E+01  0.12530378238E+03  0.12500018475E+03 0.  0.
    9000005    1    3    3    0    0  0.39975830478E+01 -0.29793608494E+02  0.59278784679E+02  0.66472656712E+02  0.10000000000E+01 0.  0.
    9000005    1    3    3    0    0 -0.39975830478E+01  0.29793608494E+02 -0.50561463291E+02  0.58831125669E+02  0.10000000000E+01 0.  0.
<mgrwt>
<rscale>  0 0.12500018E+03</rscale>
<asrwt>0</asrwt>
<pdfrwt beam="2">  1        4 0.89681893E-02 0.12500018E+03</pdfrwt>
<pdfrwt beam="1">  1       -4 0.10309316E-01 0.12500018E+03</pdfrwt>
<totfact> 0.10446224E+04</totfact>
</mgrwt>
</event>
<event>
 5    1  0.3331626E-002  0.1249901E+03  0.7818608E-02  0.1235085E+00
         -4   -1    0    0    0  501 -0.00000000000E+00  0.00000000000E+00  0.82684821008E+01  0.83654465662E+01  0.12700000000E+01 0. -1.
          4   -1    0    0  501    0  0.00000000000E+00 -0.00000000000E+00 -0.46950034104E+03  0.46950205872E+03  0.12700000000E+01 0. -1.
         25    2    1    2    0    0  0.00000000000E+00  0.00000000000E+00 -0.46123185894E+03  0.47786750528E+03  0.12499009922E+03 0.  0.
    9000005    1    3    3    0    0  0.29003362000E+02  0.51459646018E+02 -0.15269855407E+03  0.16372885693E+03  0.10000000000E+01 0.  0.
    9000005    1    3    3    0    0 -0.29003362000E+02 -0.51459646018E+02 -0.30853330487E+03  0.31413864836E+03  0.10000000000E+01 0.  0.
<mgrwt>
<rscale>  0 0.12499010E+03</rscale>
<asrwt>0</asrwt>
<pdfrwt beam="2">  1        4 0.72238392E-01 0.12499010E+03</pdfrwt>
<pdfrwt beam="1">  1       -4 0.12796655E-02 0.12499010E+03</pdfrwt>
<totfact> 0.57635983E+03</totfact>
</mgrwt>
</event>
<event>
 5    1  0.3331626E-002  0.1249989E+03  0.7818608E-02  0.1235071E+00
         -4   -1    0    0    0  501 -0.00000000000E+00  0.00000000000E+00  0.64489333168E+02  0.64501837124E+02  0.12700000000E+01 0. -1.
          4   -1    0    0  501    0  0.00000000000E+00 -0.00000000000E+00 -0.60545894751E+02  0.60559212934E+02  0.12700000000E+01 0. -1.
         25    2    1    2    0    0  0.00000000000E+00  0.00000000000E+00  0.39434384165E+01  0.12506105006E+03  0.12499886214E+03 0.  0.
    9000005    1    3    3    0    0 -0.18388768416E+02  0.21634646885E+02 -0.53724406595E+02  0.60774308829E+02  0.10000000000E+01 0.  0.
    9000005    1    3    3    0    0  0.18388768416E+02 -0.21634646885E+02  0.57667845011E+02  0.64286741230E+02  0.10000000000E+01 0.  0.
<mgrwt>
<rscale>  0 0.12499886E+03</rscale>
<asrwt>0</asrwt>
<pdfrwt beam="2">  1        4 0.93167393E-02 0.12499886E+03</pdfrwt>
<pdfrwt beam="1">  1       -4 0.99234222E-02 0.12499886E+03</pdfrwt>
<totfact> 0.10451806E+04</totfact>
</mgrwt>
</event>
<event>
 5    1  0.3331626E-002  0.1249603E+03  0.7818608E-02  0.1235131E+00
          4   -1    0    0  501    0  0.00000000000E+00  0.00000000000E+00  0.22763866625E+03  0.22764220890E+03  0.12700000000E+01 0. -1.
         -4   -1    0    0    0  501 -0.00000000000E+00 -0.00000000000E+00 -0.17121788610E+02  0.17168824806E+02  0.12700000000E+01 0. -1.
         25    2    1    2    0    0  0.00000000000E+00  0.00000000000E+00  0.21051687764E+03  0.24481103370E+03  0.12496033952E+03 0.  0.
    9000005    1    3    3    0    0  0.51546300965E+02 -0.28339699072E+02  0.64042011200E+02  0.86962859229E+02  0.10000000000E+01 0.  0.
    9000005    1    3    3    0    0 -0.51546300965E+02  0.28339699072E+02  0.14647486644E+03  0.15784817447E+03  0.10000000000E+01 0.  0.
<mgrwt>
<rscale>  0 0.12496034E+03</rscale>
<asrwt>0</asrwt>
<pdfrwt beam="1">  1        4 0.35025224E-01 0.12496034E+03</pdfrwt>
<pdfrwt beam="2">  1       -4 0.26380120E-02 0.12496034E+03</pdfrwt>
<totfact> 0.83159504E+03</totfact>
</mgrwt>
</event>
<event>
 5    1  0.3331626E-002  0.1250026E+03  0.7818608E-02  0.1235065E+00
         -4   -1    0    0    0  501 -0.00000000000E+00  0.00000000000E+00  0.20680977621E+02  0.20719935699E+02  0.12700000000E+01 0. -1.
          4   -1    0    0  501    0  0.00000000000E+00 -0.00000000000E+00 -0.18867028697E+03  0.18867456131E+03  0.12700000000E+01 0. -1.
         25    2    1    2    0    0  0.00000000000E+00  0.00000000000E+00 -0.16798930935E+03  0.20939449701E+03  0.12500258926E+03 0.  0.
    9000005    1    3    3    0    0  0.11932738291E+02  0.29594498327E+02  0.60138882135E+01  0.32486788481E+02  0.10000000000E+01 0.  0.
    9000005    1    3    3    0    0 -0.11932738291E+02 -0.29594498327E+02 -0.17400319756E+03  0.17690770853E+03  0.10000000000E+01 0.  0.
<mgrwt>
<rscale>  0 0.12500259E+03</rscale>
<asrwt>0</asrwt>
<pdfrwt beam="2">  1        4 0.29029522E-01 0.12500259E+03</pdfrwt>
<pdfrwt beam="1">  1       -4 0.31850146E-02 0.12500259E+03</pdfrwt>
<totfact> 0.88569736E+03</totfact>
</mgrwt>
</event>
<event>
 5    1  0.3331626E-002  0.1250022E+03  0.7818608E-02  0.1235066E+00
         -4   -1    0    0    0  501 -0.00000000000E+00  0.00000000000E+00  0.35769642270E+03  0.35769867726E+03  0.12700000000E+01 0. -1.
          4   -1    0    0  501    0  0.00000000000E+00 -0.00000000000E+00 -0.10881730993E+02  0.10955590783E+02  0.12700000000E+01 0. -1.
         25    2    1    2    0    0  0.00000000000E+00  0.00000000000E+00  0.34681469171E+03  0.36865426804E+03  0.12500215583E+03 0.  0.
    9000005    1    3    3    0    0  0.33515393330E+02 -0.28397257927E+02  0.42319586156E+02  0.61005190109E+02  0.10000000000E+01 0.  0.
    9000005    1    3    3    0    0 -0.33515393330E+02  0.28397257927E+02  0.30449510555E+03  0.30764907793E+03  0.10000000000E+01 0.  0.
<mgrwt>
<rscale>  0 0.12500216E+03</rscale>
<asrwt>0</asrwt>
<pdfrwt beam="2">  1        4 0.16799678E-02 0.12500216E+03</pdfrwt>
<pdfrwt beam="1">  1       -4 0.55036061E-01 0.12500216E+03</pdfrwt>
<totfact> 0.67716740E+03</totfact>
</mgrwt>
</event>
<event>
 5    1  0.3331626E-002  0.1249994E+03  0.7818608E-02  0.1235070E+00
         -4   -1    0    0    0  501 -0.00000000000E+00  0.00000000000E+00  0.72726041638E+01  0.73826601793E+01  0.12700000000E+01 0.  1.
          4   -1    0    0  501    0  0.00000000000E+00 -0.00000000000E+00 -0.53296919324E+03  0.53297070636E+03  0.12700000000E+01 0.  1.
         25    2    1    2    0    0  0.00000000000E+00  0.00000000000E+00 -0.52569658907E+03  0.54035336654E+03  0.12499942787E+03 0.  0.
    9000005    1    3    3    0    0 -0.43236158058E+02 -0.11698052465E+02 -0.45122744206E+03  0.45344615365E+03  0.10000000000E+01 0.  0.
    9000005    1    3    3    0    0  0.43236158058E+02  0.11698052465E+02 -0.74469147016E+02  0.86907212890E+02  0.10000000000E+01 0.  0.
<mgrwt>
<rscale>  0 0.12499943E+03</rscale>
<asrwt>0</asrwt>
<pdfrwt beam="2">  1        4 0.82003812E-01 0.12499943E+03</pdfrwt>
<pdfrwt beam="1">  1       -4 0.11274448E-02 0.12499943E+03</pdfrwt>
<totfact> 0.52864641E+03</totfact>
</mgrwt>
</event>
<event>
 5    1  0.3331626E-002  0.1249981E+03  0.7818608E-02  0.1235072E+00
         -4   -1    0    0    0  501 -0.00000000000E+00  0.00000000000E+00  0.47181487199E+02  0.47198576613E+02  0.12700000000E+01 0. -1.
          4   -1    0    0  501    0  0.00000000000E+00 -0.00000000000E+00 -0.82752489316E+02  0.82762234069E+02  0.12700000000E+01 0. -1.
         25    2    1    2    0    0  0.00000000000E+00  0.00000000000E+00 -0.35571002118E+02  0.12996081068E+03  0.12499806447E+03 0.  0.
    9000005    1    3    3    0    0 -0.35572339305E+02  0.40120779618E+02  0.15583295401E+02  0.55847178768E+02  0.10000000000E+01 0.  0.
    9000005    1    3    3    0    0  0.35572339305E+02 -0.40120779618E+02 -0.51154297519E+02  0.74113631914E+02  0.10000000000E+01 0.  0.
<mgrwt>
<rscale>  0 0.12499806E+03</rscale>
<asrwt>0</asrwt>
<pdfrwt beam="2">  1        4 0.12733216E-01 0.12499806E+03</pdfrwt>
<pdfrwt beam="1">  1       -4 0.72607545E-02 0.12499806E+03</pdfrwt>
<totfact> 0.10345798E+04</totfact>
</mgrwt>
</event>
<event>
 5    1  0.3331626E-002  0.1250039E+03  0.7818608E-02  0.1235063E+00
          4   -1    0    0  501    0  0.00000000000E+00  0.00000000000E+00  0.97836702403E+02  0.97844944872E+02  0.12700000000E+01 0. -1.
         -4   -1    0    0    0  501 -0.00000000000E+00 -0.00000000000E+00 -0.39908674618E+02  0.39928876891E+02  0.12700000000E+01 0. -1.
         25    2    1    2    0    0  0.00000000000E+00  0.00000000000E+00  0.57928027785E+02  0.13777382176E+03  0.12500387818E+03 0.  0.
    9000005    1    3    3    0    0  0.28220451435E+02  0.54883983292E+02  0.39810424859E+02  0.73447365022E+02  0.10000000000E+01 0.  0.
    9000005    1    3    3    0    0 -0.28220451435E+02 -0.54883983292E+02  0.18117602926E+02  0.64326456742E+02  0.10000000000E+01 0.  0.
<mgrwt>
<rscale>  0 0.12500388E+03</rscale>
<asrwt>0</asrwt>
<pdfrwt beam="1">  1        4 0.15053989E-01 0.12500388E+03</pdfrwt>
<pdfrwt beam="2">  1       -4 0.61419841E-02 0.12500388E+03</pdfrwt>
<totfact> 0.10179041E+04</totfact>
</mgrwt>
</event>
<event>
 5    1  0.3331626E-002  0.1250000E+03  0.7818608E-02  0.1235069E+00
          4   -1    0    0  501    0  0.00000000000E+00  0.00000000000E+00  0.54295975937E+03  0.54296124465E+03  0.12700000000E+01 0.  1.
         -4   -1    0    0    0  501 -0.00000000000E+00 -0.00000000000E+00 -0.71368041190E+01  0.72489221980E+01  0.12700000000E+01 0.  1.
         25    2    1    2    0    0  0.00000000000E+00  0.00000000000E+00  0.53582295525E+03  0.55021016685E+03  0.12499995333E+03 0.  0.
    9000005    1    3    3    0    0  0.37559311787E+02 -0.33903398630E+01  0.48724830666E+03  0.48870656702E+03  0.10000000000E+01 0.  0.
    9000005    1    3    3    0    0 -0.37559311787E+02  0.33903398630E+01  0.48574648590E+02  0.61503599829E+02  0.10000000000E+01 0.  0.
<mgrwt>
<rscale>  0 0.12499995E+03</rscale>
<asrwt>0</asrwt>
<pdfrwt beam="1">  1        4 0.83541009E-01 0.12499995E+03</pdfrwt>
<pdfrwt beam="2">  1       -4 0.11067086E-02 0.12499995E+03</pdfrwt>
<totfact> 0.52169337E+03</totfact>
</mgrwt>
</event>
<event>
 5    1  0.3331626E-002  0.1250008E+03  0.7818608E-02  0.1235068E+00
          4   -1    0    0  501    0  0.00000000000E+00  0.00000000000E+00  0.82963716960E+02  0.82973436905E+02  0.12700000000E+01 0.  1.
         -4   -1    0    0    0  501 -0.00000000000E+00 -0.00000000000E+00 -0.47063404950E+02  0.47080537226E+02  0.12700000000E+01 0.  1.
         25    2    1    2    0    0  0.00000000000E+00  0.00000000000E+00  0.35900312010E+02  0.13005397413E+03  0.12500081514E+03 0.  0.
    9000005    1    3    3    0    0  0.54842771281E+02 -0.80883475385E+01 -0.12062995202E+02  0.56742107653E+02  0.10000000000E+01 0.  0.
    9000005    1    3    3    0    0 -0.54842771281E+02  0.80883475385E+01  0.47963307213E+02  0.73311866478E+02  0.10000000000E+01 0.  0.
<mgrwt>
<rscale>  0 0.12500082E+03</rscale>
<asrwt>0</asrwt>
<pdfrwt beam="1">  1        4 0.12765714E-01 0.12500082E+03</pdfrwt>
<pdfrwt beam="2">  1       -4 0.72425894E-02 0.12500082E+03</pdfrwt>
<totfact> 0.10343163E+04</totfact>
</mgrwt>
</event>
<event>
 5    1  0.3331626E-002  0.1249970E+03  0.7818608E-02  0.1235074E+00
          4   -1    0    0  501    0  0.00000000000E+00  0.00000000000E+00  0.22088984645E+03  0.22089349734E+03  0.12700000000E+01 0.  1.
         -4   -1    0    0    0  501 -0.00000000000E+00 -0.00000000000E+00 -0.17656698780E+02  0.17702313742E+02  0.12700000000E+01 0.  1.
         25    2    1    2    0    0  0.00000000000E+00  0.00000000000E+00  0.20323314767E+03  0.23859581108E+03  0.12499699497E+03 0.  0.
    9000005    1    3    3    0    0  0.33694477319E+02 -0.34043155664E+02  0.17822651397E+03  0.18455336500E+03  0.10000000000E+01 0.  0.
    9000005    1    3    3    0    0 -0.33694477319E+02  0.34043155664E+02  0.25006633698E+02  0.54042446080E+02  0.10000000000E+01 0.  0.
<mgrwt>
<rscale>  0 0.12499699E+03</rscale>
<asrwt>0</asrwt>
<pdfrwt beam="1">  1        4 0.33986844E-01 0.12499699E+03</pdfrwt>
<pdfrwt beam="2">  1       -4 0.27202048E-02 0.12499699E+03</pdfrwt>
<totfact> 0.84012568E+03</totfact>
</mgrwt>
</event>
<event>
 5    1  0.3331626E-002  0.1249990E+03  0.7818608E-02  0.1235071E+00
          4   -1    0    0  501    0  0.00000000000E+00  0.00000000000E+00  0.38865963789E+03  0.38866171284E+03  0.12700000000E+01 0. -1.
         -4   -1    0    0    0  501 -0.00000000000E+00 -0.00000000000E+00 -0.10008171967E+02  0.10088429318E+02  0.12700000000E+01 0. -1.
         25    2    1    2    0    0  0.00000000000E+00  0.00000000000E+00  0.37865146593E+03  0.39875014216E+03  0.12499897289E+03 0.  0.
    9000005    1    3    3    0    0 -0.33405562661E+02  0.14952838035E+02  0.35090831200E+03  0.35281321179E+03  0.10000000000E+01 0.  0.
    9000005    1    3    3    0    0  0.33405562661E+02 -0.14952838035E+02  0.27743153928E+02  0.45936930370E+02  0.10000000000E+01 0.  0.
<mgrwt>
<rscale>  0 0.12499897E+03</rscale>
<asrwt>0</asrwt>
<pdfrwt beam="1">  1        4 0.59800123E-01 0.12499897E+03</pdfrwt>
<pdfrwt beam="2">  1       -4 0.15460520E-02 0.12499897E+03</pdfrwt>
<totfact> 0.64675996E+03</totfact>
</mgrwt>
</event>
<event>
 5    1  0.3331626E-002  0.1249982E+03  0.7818608E-02  0.1235072E+00
         -4   -1    0    0    0  501 -0.00000000000E+00  0.00000000000E+00  0.94844502251E+01  0.95691011110E+01  0.12700000000E+01 0. -1.
          4   -1    0    0  501    0  0.00000000000E+00 -0.00000000000E+00 -0.40993093367E+03  0.40993290095E+03  0.12700000000E+01 0. -1.
         25    2    1    2    0    0  0.00000000000E+00  0.00000000000E+00 -0.40044648344E+03  0.41950200206E+03  0.12499817450E+03 0.  0.
    9000005    1    3    3    0    0 -0.11963388507E+02  0.60903003074E+02 -0.17582821325E+03  0.18646409580E+03  0.10000000000E+01 0.  0.
    9000005    1    3    3    0    0  0.11963388507E+02 -0.60903003074E+02 -0.22461827019E+03  0.23303790625E+03  0.10000000000E+01 0.  0.
<mgrwt>
<rscale>  0 0.12499817E+03</rscale>
<asrwt>0</asrwt>
<pdfrwt beam="2">  1        4 0.63072947E-01 0.12499817E+03</pdfrwt>
<pdfrwt beam="1">  1       -4 0.14658094E-02 0.12499817E+03</pdfrwt>
<totfact> 0.62701768E+03</totfact>
</mgrwt>
</event>
<event>
 5    1  0.3331626E-002  0.1249872E+03  0.7818608E-02  0.1235089E+00
          4   -1    0    0  501    0  0.00000000000E+00  0.00000000000E+00  0.50041502566E+02  0.50057615595E+02  0.12700000000E+01 0.  1.
         -4   -1    0    0    0  501 -0.00000000000E+00 -0.00000000000E+00 -0.78010320287E+02  0.78020657337E+02  0.12700000000E+01 0.  1.
         25    2    1    2    0    0  0.00000000000E+00  0.00000000000E+00 -0.27968817721E+02  0.12807827293E+03  0.12498715627E+03 0.  0.
    9000005    1    3    3    0    0  0.60064406830E+02  0.20398818076E+00  0.36657609902E+01  0.60184818540E+02  0.10000000000E+01 0.  0.
    9000005    1    3    3    0    0 -0.60064406830E+02 -0.20398818076E+00 -0.31634578712E+02  0.67893454392E+02  0.10000000000E+01 0.  0.
<mgrwt>
<rscale>  0 0.12498716E+03</rscale>
<asrwt>0</asrwt>
<pdfrwt beam="1">  1        4 0.77007273E-02 0.12498716E+03</pdfrwt>
<pdfrwt beam="2">  1       -4 0.12003622E-01 0.12498716E+03</pdfrwt>
<totfact> 0.10388809E+04</totfact>
</mgrwt>
</event>
<event>
 5    1  0.3331626E-002  0.1250018E+03  0.7818608E-02  0.1235066E+00
          4   -1    0    0  501    0  0.00000000000E+00  0.00000000000E+00  0.99656870340E+03  0.99656951263E+03  0.12700000000E+01 0. -1.
         -4   -1    0    0    0  501 -0.00000000000E+00 -0.00000000000E+00 -0.38161132237E+01  0.40218926063E+01  0.12700000000E+01 0. -1.
         25    2    1    2    0    0  0.00000000000E+00  0.00000000000E+00  0.99275259018E+03  0.10005914052E+04  0.12500181968E+03 0.  0.
    9000005    1    3    3    0    0 -0.14003208618E+02 -0.54931854067E+02  0.28584347113E+03  0.29141223109E+03  0.10000000000E+01 0.  0.
    9000005    1    3    3    0    0  0.14003208618E+02  0.54931854067E+02  0.70690911905E+03  0.70917917414E+03  0.10000000000E+01 0.  0.
<mgrwt>
<rscale>  0 0.12500182E+03</rscale>
<asrwt>0</asrwt>
<pdfrwt beam="1">  1        4 0.15333425E+00 0.12500182E+03</pdfrwt>
<pdfrwt beam="2">  1       -4 0.60298538E-03 0.12500182E+03</pdfrwt>
<totfact> 0.30583727E+03</totfact>
</mgrwt>
</event>
<event>
 5    1  0.3331626E-002  0.1250023E+03  0.7818608E-02  0.1235066E+00
         -4   -1    0    0    0  501 -0.00000000000E+00  0.00000000000E+00  0.11934406850E+04  0.11934413608E+04  0.12700000000E+01 0.  1.
          4   -1    0    0  501    0  0.00000000000E+00 -0.00000000000E+00 -0.31493279206E+01  0.33957571102E+01  0.12700000000E+01 0.  1.
         25    2    1    2    0    0  0.00000000000E+00  0.00000000000E+00  0.11902913571E+04  0.11968371179E+04  0.12500228764E+03 0.  0.
    9000005    1    3    3    0    0  0.27301551154E+02 -0.21261483541E+02  0.96905414992E+02  0.10290327902E+03  0.10000000000E+01 0.  0.
    9000005    1    3    3    0    0 -0.27301551154E+02  0.21261483541E+02  0.10933859421E+04  0.10939338389E+04  0.10000000000E+01 0.  0.
<mgrwt>
<rscale>  0 0.12500229E+03</rscale>
<asrwt>0</asrwt>
<pdfrwt beam="2">  1        4 0.50351947E-03 0.12500229E+03</pdfrwt>
<pdfrwt beam="1">  1       -4 0.18362548E+00 0.12500229E+03</pdfrwt>
<totfact> 0.24794411E+03</totfact>
</mgrwt>
</event>
<event>
 5    1  0.3331626E-002  0.1249990E+03  0.7818608E-02  0.1235071E+00
          4   -1    0    0  501    0  0.00000000000E+00  0.00000000000E+00  0.10352476512E+03  0.10353255475E+03  0.12700000000E+01 0.  1.
         -4   -1    0    0    0  501 -0.00000000000E+00 -0.00000000000E+00 -0.37712026097E+02  0.37733404463E+02  0.12700000000E+01 0.  1.
         25    2    1    2    0    0  0.00000000000E+00  0.00000000000E+00  0.65812739026E+02  0.14126595922E+03  0.12499901846E+03 0.  0.
    9000005    1    3    3    0    0 -0.16780577154E+02  0.25756070690E+01 -0.35061428664E+02  0.38968260179E+02  0.10000000000E+01 0.  0.
    9000005    1    3    3    0    0  0.16780577154E+02 -0.25756070690E+01  0.10087416769E+03  0.10229769904E+03  0.10000000000E+01 0.  0.
<mgrwt>
<rscale>  0 0.12499902E+03</rscale>
<asrwt>0</asrwt>
<pdfrwt beam="1">  1        4 0.15929130E-01 0.12499902E+03</pdfrwt>
<pdfrwt beam="2">  1       -4 0.58040939E-02 0.12499902E+03</pdfrwt>
<totfact> 0.10107639E+04</totfact>
</mgrwt>
</event>
<event>
 5    1  0.3331626E-002  0.1249982E+03  0.7818608E-02  0.1235072E+00
         -4   -1    0    0    0  501 -0.00000000000E+00  0.00000000000E+00  0.30261479556E+02  0.30288117223E+02  0.12700000000E+01 0. -1.
          4   -1    0    0  501    0  0.00000000000E+00 -0.00000000000E+00 -0.12899292812E+03  0.12899917986E+03  0.12700000000E+01 0. -1.
         25    2    1    2    0    0  0.00000000000E+00  0.00000000000E+00 -0.98731448561E+02  0.15928729708E+03  0.12499817629E+03 0.  0.
    9000005    1    3    3    0    0  0.75084791277E+01 -0.52487254914E+02 -0.72197863943E+01  0.53520225175E+02  0.10000000000E+01 0.  0.
    9000005    1    3    3    0    0 -0.75084791277E+01  0.52487254914E+02 -0.91511662167E+02  0.10576707191E+03  0.10000000000E+01 0.  0.
<mgrwt>
<rscale>  0 0.12499818E+03</rscale>
<asrwt>0</asrwt>
<pdfrwt beam="2">  1        4 0.19847596E-01 0.12499818E+03</pdfrwt>
<pdfrwt beam="1">  1       -4 0.46581423E-02 0.12499818E+03</pdfrwt>
<totfact> 0.97484361E+03</totfact>
</mgrwt>
</event>
<event>
 5    1  0.3331626E-002  0.1249984E+03  0.7818608E-02  0.1235072E+00
          4   -1    0    0  501    0  0.00000000000E+00  0.00000000000E+00  0.55641016375E+01  0.57071995789E+01  0.12700000000E+01 0.  1.
         -4   -1    0    0    0  501 -0.00000000000E+00 -0.00000000000E+00 -0.69297072132E+03  0.69297188508E+03  0.12700000000E+01 0.  1.
         25    2    1    2    0    0  0.00000000000E+00  0.00000000000E+00 -0.68740661969E+03  0.69867908466E+03  0.12499841020E+03 0.  0.
    9000005    1    3    3    0    0  0.35769876835E+02  0.47650709176E+02 -0.44902897160E+03  0.45296588338E+03  0.10000000000E+01 0.  0.
    9000005    1    3    3    0    0 -0.35769876835E+02 -0.47650709176E+02 -0.23837764809E+03  0.24571320128E+03  0.10000000000E+01 0.  0.
<mgrwt>
<rscale>  0 0.12499841E+03</rscale>
<asrwt>0</asrwt>
<pdfrwt beam="1">  1        4 0.86711324E-03 0.12499841E+03</pdfrwt>
<pdfrwt beam="2">  1       -4 0.10662191E+00 0.12499841E+03</pdfrwt>
<totfact> 0.43158033E+03</totfact>
</mgrwt>
</event>
<event>
 5    1  0.3331626E-002  0.1249986E+03  0.7818608E-02  0.1235071E+00
         -4   -1    0    0    0  501 -0.00000000000E+00  0.00000000000E+00  0.17168725644E+02  0.17215633600E+02  0.12700000000E+01 0. -1.
          4   -1    0    0  501    0  0.00000000000E+00 -0.00000000000E+00 -0.22715717445E+03  0.22716072460E+03  0.12700000000E+01 0. -1.
         25    2    1    2    0    0  0.00000000000E+00  0.00000000000E+00 -0.20998844880E+03  0.24437635820E+03  0.12499862327E+03 0.  0.
    9000005    1    3    3    0    0  0.24434471501E+02  0.55317974036E+02 -0.13578473129E+03  0.14864593805E+03  0.10000000000E+01 0.  0.
    9000005    1    3    3    0    0 -0.24434471501E+02 -0.55317974036E+02 -0.74203717514E+02  0.95730420149E+02  0.10000000000E+01 0.  0.
<mgrwt>
<rscale>  0 0.12499862E+03</rscale>
<asrwt>0</asrwt>
<pdfrwt beam="2">  1        4 0.34951137E-01 0.12499862E+03</pdfrwt>
<pdfrwt beam="1">  1       -4 0.26452240E-02 0.12499862E+03</pdfrwt>
<totfact> 0.83152426E+03</totfact>
</mgrwt>
</event>
<event>
 5    1  0.3331626E-002  0.1249985E+03  0.7818608E-02  0.1235072E+00
         -4   -1    0    0    0  501 -0.00000000000E+00  0.00000000000E+00  0.93660598977E+02  0.93669208926E+02  0.12700000000E+01 0.  1.
          4   -1    0    0  501    0  0.00000000000E+00 -0.00000000000E+00 -0.41685218551E+02  0.41704560250E+02  0.12700000000E+01 0.  1.
         25    2    1    2    0    0  0.00000000000E+00  0.00000000000E+00  0.51975380426E+02  0.13537376918E+03  0.12499846883E+03 0.  0.
    9000005    1    3    3    0    0 -0.29256595128E+02  0.38876085366E+02  0.68458217582E+02  0.83993011176E+02  0.10000000000E+01 0.  0.
    9000005    1    3    3    0    0  0.29256595128E+02 -0.38876085366E+02 -0.16482837156E+02  0.51380758000E+02  0.10000000000E+01 0.  0.
<mgrwt>
<rscale>  0 0.12499847E+03</rscale>
<asrwt>0</asrwt>
<pdfrwt beam="2">  1        4 0.64152607E-02 0.12499847E+03</pdfrwt>
<pdfrwt beam="1">  1       -4 0.14411473E-01 0.12499847E+03</pdfrwt>
<totfact> 0.10230552E+04</totfact>
</mgrwt>
</event>
<event>
 5    1  0.3331626E-002  0.1249978E+03  0.7818608E-02  0.1235073E+00
         -4   -1    0    0    0  501 -0.00000000000E+00  0.00000000000E+00  0.20095238005E+02  0.20135329411E+02  0.12700000000E+01 0. -1.
          4   -1    0    0  501    0  0.00000000000E+00 -0.00000000000E+00 -0.19414418119E+03  0.19414833502E+03  0.12700000000E+01 0. -1.
         25    2    1    2    0    0  0.00000000000E+00  0.00000000000E+00 -0.17404894318E+03  0.21428366443E+03  0.12499781685E+03 0.  0.
    9000005    1    3    3    0    0 -0.50340449257E+02 -0.35884448664E+02 -0.71382106924E+02  0.94436537824E+02  0.10000000000E+01 0.  0.
    9000005    1    3    3    0    0  0.50340449257E+02  0.35884448664E+02 -0.10266683626E+03  0.11984712660E+03  0.10000000000E+01 0.  0.
<mgrwt>
<rscale>  0 0.12499782E+03</rscale>
<asrwt>0</asrwt>
<pdfrwt beam="2">  1        4 0.29871738E-01 0.12499782E+03</pdfrwt>
<pdfrwt beam="1">  1       -4 0.30949787E-02 0.12499782E+03</pdfrwt>
<totfact> 0.87785330E+03</totfact>
</mgrwt>
</event>
<event>
 5    1  0.3331626E-002  0.1249969E+03  0.7818608E-02  0.1235074E+00
         -4   -1    0    0    0  501 -0.00000000000E+00  0.00000000000E+00  0.43479109229E+03  0.43479294709E+03  0.12700000000E+01 0. -1.
          4   -1    0    0  501    0  0.00000000000E+00 -0.00000000000E+00 -0.89369933542E+01  0.90267796148E+01  0.12700000000E+01 0. -1.
         25    2    1    2    0    0  0.00000000000E+00  0.00000000000E+00  0.42585409894E+03  0.44381972670E+03  0.12499694487E+03 0.  0.
    9000005    1    3    3    0    0 -0.10659802475E+02 -0.19680724806E+02  0.57659772528E+01  0.23134580424E+02  0.10000000000E+01 0.  0.
    9000005    1    3    3    0    0  0.10659802475E+02  0.19680724806E+02  0.42008812169E+03  0.42068514628E+03  0.10000000000E+01 0.  0.
<mgrwt>
<rscale>  0 0.12499694E+03</rscale>
<asrwt>0</asrwt>
<pdfrwt beam="2">  1        4 0.13819712E-02 0.12499694E+03</pdfrwt>
<pdfrwt beam="1">  1       -4 0.66897994E-01 0.12499694E+03</pdfrwt>
<totfact> 0.60507023E+03</totfact>
</mgrwt>
</event>
<event>
 5    1  0.3331626E-002  0.1250007E+03  0.7818608E-02  0.1235068E+00
          4   -1    0    0  501    0  0.00000000000E+00  0.00000000000E+00  0.21391384569E+03  0.21391761563E+03  0.12700000000E+01 0.  1.
         -4   -1    0    0    0  501 -0.00000000000E+00 -0.00000000000E+00 -0.18235052342E+02  0.18279224106E+02  0.12700000000E+01 0.  1.
         25    2    1    2    0    0  0.00000000000E+00  0.00000000000E+00  0.19567879335E+03  0.23219683974E+03  0.12500072887E+03 0.  0.
    9000005    1    3    3    0    0 -0.19490734791E+02  0.38658659388E+02  0.14127030332E+02  0.45551659403E+02  0.10000000000E+01 0.  0.
    9000005    1    3    3    0    0  0.19490734791E+02 -0.38658659388E+02  0.18155176301E+03  0.18664518033E+03  0.10000000000E+01 0.  0.
<mgrwt>
<rscale>  0 0.12500073E+03</rscale>
<asrwt>0</asrwt>
<pdfrwt beam="1">  1        4 0.32913513E-01 0.12500073E+03</pdfrwt>
<pdfrwt beam="2">  1       -4 0.28090803E-02 0.12500073E+03</pdfrwt>
<totfact> 0.84972023E+03</totfact>
</mgrwt>
</event>
<event>
 5    1  0.3331626E-002  0.1249723E+03  0.7818608E-02  0.1235113E+00
          4   -1    0    0  501    0  0.00000000000E+00  0.00000000000E+00  0.56063581375E+03  0.56063725221E+03  0.12700000000E+01 0. -1.
         -4   -1    0    0    0  501 -0.00000000000E+00 -0.00000000000E+00 -0.69050886643E+01  0.70209080226E+01  0.12700000000E+01 0. -1.
         25    2    1    2    0    0  0.00000000000E+00  0.00000000000E+00  0.55373072509E+03  0.56765816023E+03  0.12497228080E+03 0.  0.
    9000005    1    3    3    0    0 -0.53720321188E+02  0.94619860084E+01  0.13848507194E+03  0.14884393585E+03  0.10000000000E+01 0.  0.
    9000005    1    3    3    0    0  0.53720321188E+02 -0.94619860084E+01  0.41524565315E+03  0.41881422438E+03  0.10000000000E+01 0.  0.
<mgrwt>
<rscale>  0 0.12497228E+03</rscale>
<asrwt>0</asrwt>
<pdfrwt beam="1">  1        4 0.86260744E-01 0.12497228E+03</pdfrwt>
<pdfrwt beam="2">  1       -4 0.10713404E-02 0.12497228E+03</pdfrwt>
<totfact> 0.51005896E+03</totfact>
</mgrwt>
</event>
<event>
 5    1  0.3331626E-002  0.1249994E+03  0.7818608E-02  0.1235070E+00
          4   -1    0    0  501    0  0.00000000000E+00  0.00000000000E+00  0.34568452950E+02  0.34591774158E+02  0.12700000000E+01 0.  1.
         -4   -1    0    0    0  501 -0.00000000000E+00 -0.00000000000E+00 -0.11293438534E+03  0.11294152599E+03  0.12700000000E+01 0.  1.
         25    2    1    2    0    0  0.00000000000E+00  0.00000000000E+00 -0.78365932393E+02  0.14753330015E+03  0.12499942117E+03 0.  0.
    9000005    1    3    3    0    0 -0.80486207142E+01 -0.45315574330E+02  0.10709629479E+02  0.47264973668E+02  0.10000000000E+01 0.  0.
    9000005    1    3    3    0    0  0.80486207142E+01  0.45315574330E+02 -0.89075561872E+02  0.10026832648E+03  0.10000000000E+01 0.  0.
<mgrwt>
<rscale>  0 0.12499942E+03</rscale>
<asrwt>0</asrwt>
<pdfrwt beam="1">  1        4 0.53205668E-02 0.12499942E+03</pdfrwt>
<pdfrwt beam="2">  1       -4 0.17376864E-01 0.12499942E+03</pdfrwt>
<totfact> 0.99798990E+03</totfact>
</mgrwt>
</event>
<event>
 5    1  0.3331626E-002  0.1250000E+03  0.7818608E-02  0.1235069E+00
          4   -1    0    0  501    0  0.00000000000E+00  0.00000000000E+00  0.73258817431E+02  0.73269824835E+02  0.12700000000E+01 0.  1.
         -4   -1    0    0    0  501 -0.00000000000E+00 -0.00000000000E+00 -0.53298666837E+02  0.53313795462E+02  0.12700000000E+01 0.  1.
         25    2    1    2    0    0  0.00000000000E+00  0.00000000000E+00  0.19960150594E+02  0.12658362030E+03  0.12500002126E+03 0.  0.
    9000005    1    3    3    0    0 -0.17572791627E+02  0.20633291155E+02  0.67002551350E+02  0.72283314789E+02  0.10000000000E+01 0.  0.
    9000005    1    3    3    0    0  0.17572791627E+02 -0.20633291155E+02 -0.47042400756E+02  0.54300305509E+02  0.10000000000E+01 0.  0.
<mgrwt>
<rscale>  0 0.12500002E+03</rscale>
<asrwt>0</asrwt>
<pdfrwt beam="1">  1        4 0.11272598E-01 0.12500002E+03</pdfrwt>
<pdfrwt beam="2">  1       -4 0.82018054E-02 0.12500002E+03</pdfrwt>
<totfact> 0.10418200E+04</totfact>
</mgrwt>
</event>
<event>
 5    1  0.3331626E-002  0.1249985E+03  0.7818608E-02  0.1235072E+00
         -4   -1    0    0    0  501 -0.00000000000E+00  0.00000000000E+00  0.43281298604E+02  0.43299927354E+02  0.12700000000E+01 0.  1.
          4   -1    0    0  501    0  0.00000000000E+00 -0.00000000000E+00 -0.90207871996E+02  0.90216811460E+02  0.12700000000E+01 0.  1.
         25    2    1    2    0    0  0.00000000000E+00  0.00000000000E+00 -0.46926573392E+02  0.13351673881E+03  0.12499846500E+03 0.  0.
    9000005    1    3    3    0    0  0.40821840970E+02  0.45184005481E+02 -0.38460657206E+02  0.72029432902E+02  0.10000000000E+01 0.  0.
    9000005    1    3    3    0    0 -0.40821840970E+02 -0.45184005481E+02 -0.84659161860E+01  0.61487305912E+02  0.10000000000E+01 0.  0.
<mgrwt>
<rscale>  0 0.12499847E+03</rscale>
<asrwt>0</asrwt>
<pdfrwt beam="2">  1        4 0.13880255E-01 0.12499847E+03</pdfrwt>
<pdfrwt beam="1">  1       -4 0.66607820E-02 0.12499847E+03</pdfrwt>
<totfact> 0.10269785E+04</totfact>
</mgrwt>
</event>
<event>
 5    1  0.3331626E-002  0.1250000E+03  0.7818608E-02  0.1235069E+00
          4   -1    0    0  501    0  0.00000000000E+00  0.00000000000E+00  0.50438563400E+03  0.50438723287E+03  0.12700000000E+01 0.  1.
         -4   -1    0    0    0  501 -0.00000000000E+00 -0.00000000000E+00 -0.76908854311E+01  0.77950380829E+01  0.12700000000E+01 0.  1.
         25    2    1    2    0    0  0.00000000000E+00  0.00000000000E+00  0.49669474857E+03  0.51218227095E+03  0.12500002170E+03 0.  0.
    9000005    1    3    3    0    0  0.13886658081E+02 -0.59440013469E+02  0.19348168718E+03  0.20288449361E+03  0.10000000000E+01 0.  0.
    9000005    1    3    3    0    0 -0.13886658081E+02  0.59440013469E+02  0.30321306138E+03  0.30929777734E+03  0.10000000000E+01 0.  0.
<mgrwt>
<rscale>  0 0.12500002E+03</rscale>
<asrwt>0</asrwt>
<pdfrwt beam="1">  1        4 0.77605947E-01 0.12500002E+03</pdfrwt>
<pdfrwt beam="2">  1       -4 0.11913475E-02 0.12500002E+03</pdfrwt>
<totfact> 0.54931369E+03</totfact>
</mgrwt>
</event>
<event>
 5    1  0.3331626E-002  0.1250036E+03  0.7818608E-02  0.1235064E+00
          4   -1    0    0  501    0  0.00000000000E+00  0.00000000000E+00  0.19666071512E+02  0.19707036020E+02  0.12700000000E+01 0.  1.
         -4   -1    0    0    0  501 -0.00000000000E+00 -0.00000000000E+00 -0.19839056336E+03  0.19839462828E+03  0.12700000000E+01 0.  1.
         25    2    1    2    0    0  0.00000000000E+00  0.00000000000E+00 -0.17872449185E+03  0.21810166430E+03  0.12500356789E+03 0.  0.
    9000005    1    3    3    0    0 -0.43022402918E+02 -0.13440339421E+02 -0.16489062038E+03  0.17094293365E+03  0.10000000000E+01 0.  0.
    9000005    1    3    3    0    0  0.43022402918E+02  0.13440339421E+02 -0.13833871471E+02  0.47158730649E+02  0.10000000000E+01 0.  0.
<mgrwt>
<rscale>  0 0.12500357E+03</rscale>
<asrwt>0</asrwt>
<pdfrwt beam="1">  1        4 0.30290134E-02 0.12500357E+03</pdfrwt>
<pdfrwt beam="2">  1       -4 0.30525088E-01 0.12500357E+03</pdfrwt>
<totfact> 0.87162683E+03</totfact>
</mgrwt>
</event>
<event>
 5    1  0.3331626E-002  0.1250000E+03  0.7818608E-02  0.1235069E+00
          4   -1    0    0  501    0  0.00000000000E+00  0.00000000000E+00  0.18828616775E+02  0.18871399250E+02  0.12700000000E+01 0. -1.
         -4   -1    0    0    0  501 -0.00000000000E+00 -0.00000000000E+00 -0.20718325125E+03  0.20718714366E+03  0.12700000000E+01 0. -1.
         25    2    1    2    0    0  0.00000000000E+00  0.00000000000E+00 -0.18835463448E+03  0.22605854291E+03  0.12499998598E+03 0.  0.
    9000005    1    3    3    0    0 -0.18510006738E+02  0.54124625754E+02 -0.13968298806E+03  0.15094513115E+03  0.10000000000E+01 0.  0.
    9000005    1    3    3    0    0  0.18510006738E+02 -0.54124625754E+02 -0.48671646410E+02  0.75113411764E+02  0.10000000000E+01 0.  0.
<mgrwt>
<rscale>  0 0.12499999E+03</rscale>
<asrwt>0</asrwt>
<pdfrwt beam="1">  1        4 0.29003008E-02 0.12499999E+03</pdfrwt>
<pdfrwt beam="2">  1       -4 0.31877935E-01 0.12499999E+03</pdfrwt>
<totfact> 0.85918537E+03</totfact>
</mgrwt>
</event>
<event>
 5    1  0.3331626E-002  0.1250011E+03  0.7818608E-02  0.1235068E+00
          4   -1    0    0  501    0  0.00000000000E+00  0.00000000000E+00  0.17248890410E+03  0.17249357941E+03  0.12700000000E+01 0.  1.
         -4   -1    0    0    0  501 -0.00000000000E+00 -0.00000000000E+00 -0.22623998749E+02  0.22659616488E+02  0.12700000000E+01 0.  1.
         25    2    1    2    0    0  0.00000000000E+00  0.00000000000E+00  0.14986490535E+03  0.19515319590E+03  0.12500112005E+03 0.  0.
    9000005    1    3    3    0    0  0.10384479672E+02 -0.55767294364E+02  0.11586751149E+03  0.12901204888E+03  0.10000000000E+01 0.  0.
    9000005    1    3    3    0    0 -0.10384479672E+02  0.55767294364E+02  0.33997393863E+02  0.66141147013E+02  0.10000000000E+01 0.  0.
<mgrwt>
<rscale>  0 0.12500112E+03</rscale>
<asrwt>0</asrwt>
<pdfrwt beam="1">  1        4 0.26539855E-01 0.12500112E+03</pdfrwt>
<pdfrwt beam="2">  1       -4 0.34837146E-02 0.12500112E+03</pdfrwt>
<totfact> 0.90956044E+03</totfact>
</mgrwt>
</event>
<event>
 5    1  0.3331626E-002  0.1249593E+03  0.7818608E-02  0.1235133E+00
         -4   -1    0    0    0  501 -0.00000000000E+00  0.00000000000E+00  0.11268601931E+03  0.11269317569E+03  0.12700000000E+01 0. -1.
          4   -1    0    0  501    0  0.00000000000E+00 -0.00000000000E+00 -0.34622415356E+02  0.34645700239E+02  0.12700000000E+01 0. -1.
         25    2    1    2    0    0  0.00000000000E+00  0.00000000000E+00  0.78063603952E+02  0.14733887593E+03  0.12495926576E+03 0.  0.
    9000005    1    3    3    0    0 -0.55948966758E+02 -0.17411419214E+02  0.13489754182E+02  0.60136659936E+02  0.10000000000E+01 0.  0.
    9000005    1    3    3    0    0  0.55948966758E+02  0.17411419214E+02  0.64573849770E+02  0.87202215995E+02  0.10000000000E+01 0.  0.
<mgrwt>
<rscale>  0 0.12495927E+03</rscale>
<asrwt>0</asrwt>
<pdfrwt beam="2">  1        4 0.53288672E-02 0.12495927E+03</pdfrwt>
<pdfrwt beam="1">  1       -4 0.17338652E-01 0.12495927E+03</pdfrwt>
<totfact> 0.99928430E+03</totfact>
</mgrwt>
</event>
<event>
 5    1  0.3331626E-002  0.1250005E+03  0.7818608E-02  0.1235069E+00
          4   -1    0    0  501    0  0.00000000000E+00  0.00000000000E+00  0.85709233453E+02  0.85718642075E+02  0.12700000000E+01 0.  1.
         -4   -1    0    0    0  501 -0.00000000000E+00 -0.00000000000E+00 -0.45555191857E+02  0.45572891121E+02  0.12700000000E+01 0.  1.
         25    2    1    2    0    0  0.00000000000E+00  0.00000000000E+00  0.40154041597E+02  0.13129153320E+03  0.12500047853E+03 0.  0.
    9000005    1    3    3    0    0  0.44396330692E+02 -0.32657617662E+02 -0.10862692432E+02  0.56183202624E+02  0.10000000000E+01 0.  0.
    9000005    1    3    3    0    0 -0.44396330692E+02  0.32657617662E+02  0.51016734029E+02  0.75108330571E+02  0.10000000000E+01 0.  0.
<mgrwt>
<rscale>  0 0.12500048E+03</rscale>
<asrwt>0</asrwt>
<pdfrwt beam="1">  1        4 0.13188121E-01 0.12500048E+03</pdfrwt>
<pdfrwt beam="2">  1       -4 0.70105762E-02 0.12500048E+03</pdfrwt>
<totfact> 0.10316732E+04</totfact>
</mgrwt>
</event>
<event>
 5    1  0.3331626E-002  0.1249956E+03  0.7818608E-02  0.1235076E+00
          4   -1    0    0  501    0  0.00000000000E+00  0.00000000000E+00  0.52912952723E+02  0.52928191598E+02  0.12700000000E+01 0. -1.
         -4   -1    0    0    0  501 -0.00000000000E+00 -0.00000000000E+00 -0.73787528579E+02  0.73798457123E+02  0.12700000000E+01 0. -1.
         25    2    1    2    0    0  0.00000000000E+00  0.00000000000E+00 -0.20874575856E+02  0.12672664872E+03  0.12499558224E+03 0.  0.
    9000005    1    3    3    0    0 -0.37115213096E+02  0.71538356879E+01 -0.60888451509E+02  0.71673704630E+02  0.10000000000E+01 0.  0.
    9000005    1    3    3    0    0  0.37115213096E+02 -0.71538356879E+01  0.40013875654E+02  0.55052944091E+02  0.10000000000E+01 0.  0.
<mgrwt>
<rscale>  0 0.12499558E+03</rscale>
<asrwt>0</asrwt>
<pdfrwt beam="1">  1        4 0.81424671E-02 0.12499558E+03</pdfrwt>
<pdfrwt beam="2">  1       -4 0.11353940E-01 0.12499558E+03</pdfrwt>
<totfact> 0.10416129E+04</totfact>
</mgrwt>
</event>
<event>
 5    1  0.3331626E-002  0.1250014E+03  0.7818608E-02  0.1235067E+00
          4   -1    0    0  501    0  0.00000000000E+00  0.00000000000E+00  0.32870624177E+03  0.32870869517E+03  0.12700000000E+01 0.  1.
         -4   -1    0    0    0  501 -0.00000000000E+00 -0.00000000000E+00 -0.11847539263E+02  0.11915413823E+02  0.12700000000E+01 0.  1.
         25    2    1    2    0    0  0.00000000000E+00  0.00000000000E+00  0.31685870251E+03  0.34062410899E+03  0.12500138508E+03 0.  0.
    9000005    1    3    3    0    0 -0.30131960340E+02  0.53767602766E+02  0.18654357531E+03  0.19646474398E+03  0.10000000000E+01 0.  0.
    9000005    1    3    3    0    0  0.30131960340E+02 -0.53767602766E+02  0.13031512720E+03  0.14415936500E+03  0.10000000000E+01 0.  0.
<mgrwt>
<rscale>  0 0.12500139E+03</rscale>
<asrwt>0</asrwt>
<pdfrwt beam="1">  1        4 0.50575601E-01 0.12500139E+03</pdfrwt>
<pdfrwt beam="2">  1       -4 0.18281082E-02 0.12500139E+03</pdfrwt>
<totfact> 0.70766314E+03</totfact>
</mgrwt>
</event>
<event>
 5    1  0.3331626E-002  0.1249932E+03  0.7818608E-02  0.1235080E+00
          4   -1    0    0  501    0  0.00000000000E+00  0.00000000000E+00  0.54046389835E+01  0.55518485698E+01  0.12700000000E+01 0. -1.
         -4   -1    0    0    0  501 -0.00000000000E+00 -0.00000000000E+00 -0.71282301803E+03  0.71282414937E+03  0.12700000000E+01 0. -1.
         25    2    1    2    0    0  0.00000000000E+00  0.00000000000E+00 -0.70741837904E+03  0.71837599794E+03  0.12499324546E+03 0.  0.
    9000005    1    3    3    0    0  0.51711959794E+02 -0.31870410964E+02 -0.43797710476E+03  0.44217054874E+03  0.10000000000E+01 0.  0.
    9000005    1    3    3    0    0 -0.51711959794E+02  0.31870410964E+02 -0.26944127429E+03  0.27620544920E+03  0.10000000000E+01 0.  0.
<mgrwt>
<rscale>  0 0.12499325E+03</rscale>
<asrwt>0</asrwt>
<pdfrwt beam="1">  1        4 0.84289433E-03 0.12499325E+03</pdfrwt>
<pdfrwt beam="2">  1       -4 0.10967642E+00 0.12499325E+03</pdfrwt>
<totfact> 0.42140479E+03</totfact>
</mgrwt>
</event>
<event>
 5    1  0.3331626E-002  0.1250041E+03  0.7818608E-02  0.1235063E+00
          4   -1    0    0  501    0  0.00000000000E+00  0.00000000000E+00  0.31102719840E+02  0.31128637642E+02  0.12700000000E+01 0. -1.
         -4   -1    0    0    0  501 -0.00000000000E+00 -0.00000000000E+00 -0.12551878119E+03  0.12552520596E+03  0.12700000000E+01 0. -1.
         25    2    1    2    0    0  0.00000000000E+00  0.00000000000E+00 -0.94416061347E+02  0.15665384360E+03  0.12500413623E+03 0.  0.
    9000005    1    3    3    0    0  0.25747142932E+02 -0.29639475089E+02  0.13724484187E+02  0.41602587887E+02  0.10000000000E+01 0.  0.
    9000005    1    3    3    0    0 -0.25747142932E+02  0.29639475089E+02 -0.10814054553E+03  0.11505125571E+03  0.10000000000E+01 0.  0.
<mgrwt>
<rscale>  0 0.12500414E+03</rscale>
<asrwt>0</asrwt>
<pdfrwt beam="1">  1        4 0.47875218E-02 0.12500414E+03</pdfrwt>
<pdfrwt beam="2">  1       -4 0.19313069E-01 0.12500414E+03</pdfrwt>
<totfact> 0.97982691E+03</totfact>
</mgrwt>
</event>
<event>
 5    1  0.3331626E-002  0.1249983E+03  0.7818608E-02  0.1235072E+00
          4   -1    0    0  501    0  0.00000000000E+00  0.00000000000E+00  0.61316309147E+01  0.62617727262E+01  0.12700000000E+01 0.  1.
         -4   -1    0    0    0  501 -0.00000000000E+00 -0.00000000000E+00 -0.63022728183E+03  0.63022856145E+03  0.12700000000E+01 0.  1.
         25    2    1    2    0    0  0.00000000000E+00  0.00000000000E+00 -0.62409565092E+03  0.63649033418E+03  0.12499825600E+03 0.  0.
    9000005    1    3    3    0    0 -0.42053327525E+02  0.37753954662E+02 -0.17624352705E+03  0.18508545128E+03  0.10000000000E+01 0.  0.
    9000005    1    3    3    0    0  0.42053327525E+02 -0.37753954662E+02 -0.44785212387E+03  0.45140488290E+03  0.10000000000E+01 0.  0.
<mgrwt>
<rscale>  0 0.12499826E+03</rscale>
<asrwt>0</asrwt>
<pdfrwt beam="1">  1        4 0.95343767E-03 0.12499826E+03</pdfrwt>
<pdfrwt beam="2">  1       -4 0.96968102E-01 0.12499826E+03</pdfrwt>
<totfact> 0.46644170E+03</totfact>
</mgrwt>
</event>
<event>
 5    1  0.3331626E-002  0.1249961E+03  0.7818608E-02  0.1235075E+00
          4   -1    0    0  501    0  0.00000000000E+00  0.00000000000E+00  0.13677984501E+03  0.13678574085E+03  0.12700000000E+01 0.  1.
         -4   -1    0    0    0  501 -0.00000000000E+00 -0.00000000000E+00 -0.28536261030E+02  0.28564507585E+02  0.12700000000E+01 0.  1.
         25    2    1    2    0    0  0.00000000000E+00  0.00000000000E+00  0.10824358398E+03  0.16535024844E+03  0.12499612468E+03 0.  0.
    9000005    1    3    3    0    0  0.51683353463E+02  0.28187818118E+02  0.26396136226E+02  0.64525019358E+02  0.10000000000E+01 0.  0.
    9000005    1    3    3    0    0 -0.51683353463E+02 -0.28187818118E+02  0.81847447753E+02  0.10082522908E+03  0.10000000000E+01 0.  0.
<mgrwt>
<rscale>  0 0.12499612E+03</rscale>
<asrwt>0</asrwt>
<pdfrwt beam="1">  1        4 0.21045680E-01 0.12499612E+03</pdfrwt>
<pdfrwt beam="2">  1       -4 0.43928203E-02 0.12499612E+03</pdfrwt>
<totfact> 0.96329487E+03</totfact>
</mgrwt>
</event>
<event>
 5    1  0.3331626E-002  0.1249992E+03  0.7818608E-02  0.1235071E+00
          4   -1    0    0  501    0  0.00000000000E+00  0.00000000000E+00  0.13121410040E+02  0.13182727389E+02  0.12700000000E+01 0.  1.
         -4   -1    0    0    0  501 -0.00000000000E+00 -0.00000000000E+00 -0.29694007925E+03  0.29694279510E+03  0.12700000000E+01 0.  1.
         25    2    1    2    0    0  0.00000000000E+00  0.00000000000E+00 -0.28381866921E+03  0.31012552249E+03  0.12499921084E+03 0.  0.
    9000005    1    3    3    0    0 -0.29973879828E+02 -0.54820790561E+02 -0.14489494889E+03  0.15779511642E+03  0.10000000000E+01 0.  0.
    9000005    1    3    3    0    0  0.29973879828E+02  0.54820790561E+02 -0.13892372032E+03  0.15233040608E+03  0.10000000000E+01 0.  0.
<mgrwt>
<rscale>  0 0.12499921E+03</rscale>
<asrwt>0</asrwt>
<pdfrwt beam="1">  1        4 0.20236043E-02 0.12499921E+03</pdfrwt>
<pdfrwt beam="2">  1       -4 0.45688010E-01 0.12499921E+03</pdfrwt>
<totfact> 0.74347319E+03</totfact>
</mgrwt>
</event>
<event>
 4    1  0.3331626E-002  0.1251346E+03  0.7818608E-02  0.1234859E+00
          4   -1    0    0  501    0  0.00000000000E+00  0.00000000000E+00  0.23991639660E+03  0.23991975796E+03  0.12700000000E+01 0. -1.
         -4   -1    0    0    0  501 -0.00000000000E+00 -0.00000000000E+00 -0.16288597318E+02  0.16338032396E+02  0.12700000000E+01 0. -1.
    9000005    1    1    2    0    0 -0.62174549969E+01 -0.61970370928E+02  0.12387402586E+03  0.13865337321E+03  0.10000000000E+01 0.  0.
    9000005    1    1    2    0    0  0.62174549969E+01  0.61970370928E+02  0.99753773429E+02  0.11760441715E+03  0.10000000000E+01 0.  0.
<mgrwt>
<rscale>  0 0.12513458E+03</rscale>
<asrwt>0</asrwt>
<pdfrwt beam="1">  1        4 0.36914274E-01 0.12513458E+03</pdfrwt>
<pdfrwt beam="2">  1       -4 0.25099994E-02 0.12513458E+03</pdfrwt>
<totfact> 0.81190576E+03</totfact>
</mgrwt>
</event>
<event>
 5    1  0.3331626E-002  0.1249989E+03  0.7818608E-02  0.1235071E+00
         -4   -1    0    0    0  501 -0.00000000000E+00  0.00000000000E+00  0.74108967334E+01  0.75189288062E+01  0.12700000000E+01 0. -1.
          4   -1    0    0  501    0  0.00000000000E+00 -0.00000000000E+00 -0.52316317070E+03  0.52316471219E+03  0.12700000000E+01 0. -1.
         25    2    1    2    0    0  0.00000000000E+00  0.00000000000E+00 -0.51575227397E+03  0.53068364099E+03  0.12499887486E+03 0.  0.
    9000005    1    3    3    0    0 -0.39902137977E+02 -0.27875972601E+02 -0.42426153003E+03  0.42704577778E+03  0.10000000000E+01 0.  0.
    9000005    1    3    3    0    0  0.39902137977E+02  0.27875972601E+02 -0.91490743942E+02  0.10363786321E+03  0.10000000000E+01 0.  0.
<mgrwt>
<rscale>  0 0.12499887E+03</rscale>
<asrwt>0</asrwt>
<pdfrwt beam="2">  1        4 0.80495042E-01 0.12499887E+03</pdfrwt>
<pdfrwt beam="1">  1       -4 0.11485671E-02 0.12499887E+03</pdfrwt>
<totfact> 0.53561218E+03</totfact>
</mgrwt>
</event>
<event>
 5    1  0.3331626E-002  0.1250002E+03  0.7818608E-02  0.1235069E+00
         -4   -1    0    0    0  501 -0.00000000000E+00  0.00000000000E+00  0.12828153062E+03  0.12828781703E+03  0.12700000000E+01 0. -1.
          4   -1    0    0  501    0  0.00000000000E+00 -0.00000000000E+00 -0.30430429892E+02  0.30456919795E+02  0.12700000000E+01 0. -1.
         25    2    1    2    0    0  0.00000000000E+00  0.00000000000E+00  0.97851100726E+02  0.15874473682E+03  0.12500021422E+03 0.  0.
    9000005    1    3    3    0    0 -0.46850504039E+02 -0.30601991089E+02  0.13598591521E+02  0.57596642946E+02  0.10000000000E+01 0.  0.
    9000005    1    3    3    0    0  0.46850504039E+02  0.30601991089E+02  0.84252509205E+02  0.10114809388E+03  0.10000000000E+01 0.  0.
<mgrwt>
<rscale>  0 0.12500021E+03</rscale>
<asrwt>0</asrwt>
<pdfrwt beam="2">  1        4 0.46841259E-02 0.12500021E+03</pdfrwt>
<pdfrwt beam="1">  1       -4 0.19738141E-01 0.12500021E+03</pdfrwt>
<totfact> 0.97584867E+03</totfact>
</mgrwt>
</event>
<event>
 5    1  0.3331626E-002  0.1249979E+03  0.7818608E-02  0.1235073E+00
         -4   -1    0    0    0  501 -0.00000000000E+00  0.00000000000E+00  0.18863610292E+02  0.18906313582E+02  0.12700000000E+01 0.  1.
          4   -1    0    0  501    0  0.00000000000E+00 -0.00000000000E+00 -0.20679281665E+03  0.20679671642E+03  0.12700000000E+01 0.  1.
         25    2    1    2    0    0  0.00000000000E+00  0.00000000000E+00 -0.18792920636E+03  0.22570303000E+03  0.12499788457E+03 0.  0.
    9000005    1    3    3    0    0  0.46762381891E+02 -0.15677676757E+02 -0.16325583562E+03  0.17054611627E+03  0.10000000000E+01 0.  0.
    9000005    1    3    3    0    0 -0.46762381891E+02  0.15677676757E+02 -0.24673370739E+02  0.55156913730E+02  0.10000000000E+01 0.  0.
<mgrwt>
<rscale>  0 0.12499788E+03</rscale>
<asrwt>0</asrwt>
<pdfrwt beam="2">  1        4 0.31817863E-01 0.12499788E+03</pdfrwt>
<pdfrwt beam="1">  1       -4 0.29056789E-02 0.12499788E+03</pdfrwt>
<totfact> 0.85977858E+03</totfact>
</mgrwt>
</event>
<event>
 5    1  0.3331626E-002  0.1250032E+03  0.7818608E-02  0.1235064E+00
         -4   -1    0    0    0  501 -0.00000000000E+00  0.00000000000E+00  0.10230280655E+02  0.10308808966E+02  0.12700000000E+01 0.  1.
          4   -1    0    0  501    0  0.00000000000E+00 -0.00000000000E+00 -0.38031223957E+03  0.38031436006E+03  0.12700000000E+01 0.  1.
         25    2    1    2    0    0  0.00000000000E+00  0.00000000000E+00 -0.37008195892E+03  0.39062316902E+03  0.12500321542E+03 0.  0.
    9000005    1    3    3    0    0  0.34575014477E+02  0.51394309782E+02 -0.15915056905E+03  0.17078264061E+03  0.10000000000E+01 0.  0.
    9000005    1    3    3    0    0 -0.34575014477E+02 -0.51394309782E+02 -0.21093138987E+03  0.21984052842E+03  0.10000000000E+01 0.  0.
<mgrwt>
<rscale>  0 0.12500322E+03</rscale>
<asrwt>0</asrwt>
<pdfrwt beam="2">  1        4 0.58515768E-01 0.12500322E+03</pdfrwt>
<pdfrwt beam="1">  1       -4 0.15800934E-02 0.12500322E+03</pdfrwt>
<totfact> 0.65470456E+03</totfact>
</mgrwt>
</event>
<event>
 5    1  0.3331626E-002  0.1249940E+03  0.7818608E-02  0.1235079E+00
         -4   -1    0    0    0  501 -0.00000000000E+00  0.00000000000E+00  0.20816799999E+03  0.20817187399E+03  0.12700000000E+01 0.  1.
          4   -1    0    0  501    0  0.00000000000E+00 -0.00000000000E+00 -0.18737559396E+02  0.18780549303E+02  0.12700000000E+01 0.  1.
         25    2    1    2    0    0  0.00000000000E+00  0.00000000000E+00  0.18943044060E+03  0.22695242330E+03  0.12499404232E+03 0.  0.
    9000005    1    3    3    0    0 -0.13700454321E+02  0.38865849058E+02  0.18000743326E+03  0.18466708613E+03  0.10000000000E+01 0.  0.
    9000005    1    3    3    0    0  0.13700454321E+02 -0.38865849058E+02  0.94230073362E+01  0.42285337162E+02  0.10000000000E+01 0.  0.
<mgrwt>
<rscale>  0 0.12499404E+03</rscale>
<asrwt>0</asrwt>
<pdfrwt beam="2">  1        4 0.28863064E-02 0.12499404E+03</pdfrwt>
<pdfrwt beam="1">  1       -4 0.32029451E-01 0.12499404E+03</pdfrwt>
<totfact> 0.85791168E+03</totfact>
</mgrwt>
</event>
<event>
 5    1  0.3331626E-002  0.1249980E+03  0.7818608E-02  0.1235072E+00
         -4   -1    0    0    0  501 -0.00000000000E+00  0.00000000000E+00  0.61969244574E+02  0.61982256921E+02  0.12700000000E+01 0. -1.
          4   -1    0    0  501    0  0.00000000000E+00 -0.00000000000E+00 -0.63007299394E+02  0.63020097405E+02  0.12700000000E+01 0. -1.
         25    2    1    2    0    0  0.00000000000E+00  0.00000000000E+00 -0.10380548199E+01  0.12500235433E+03  0.12499804410E+03 0.  0.
    9000005    1    3    3    0    0 -0.23452427489E+02 -0.25467082966E+02 -0.52545229906E+02  0.62933217428E+02  0.10000000000E+01 0.  0.
    9000005    1    3    3    0    0  0.23452427489E+02  0.25467082966E+02  0.51507175086E+02  0.62069136898E+02  0.10000000000E+01 0.  0.
<mgrwt>
<rscale>  0 0.12499804E+03</rscale>
<asrwt>0</asrwt>
<pdfrwt beam="2">  1        4 0.96954161E-02 0.12499804E+03</pdfrwt>
<pdfrwt beam="1">  1       -4 0.95357153E-02 0.12499804E+03</pdfrwt>
<totfact> 0.10453273E+04</totfact>
</mgrwt>
</event>
<event>
 4    1  0.3331626E-002  0.1249215E+03  0.7818608E-02  0.1235192E+00
         -4   -1    0    0    0  501 -0.00000000000E+00  0.00000000000E+00  0.36421448379E+03  0.36421669800E+03  0.12700000000E+01 0.  1.
          4   -1    0    0  501    0  0.00000000000E+00 -0.00000000000E+00 -0.10671768896E+02  0.10747071758E+02  0.12700000000E+01 0.  1.
    9000005    1    1    2    0    0 -0.55715964839E+01 -0.53974353983E+02  0.83960841029E+02  0.99973478491E+02  0.10000000000E+01 0.  0.
    9000005    1    1    2    0    0  0.55715964839E+01  0.53974353983E+02  0.26958187387E+03  0.27499029127E+03  0.10000000000E+01 0.  0.
<mgrwt>
<rscale>  0 0.12492148E+03</rscale>
<asrwt>0</asrwt>
<pdfrwt beam="2">  1        4 0.16477735E-02 0.12492148E+03</pdfrwt>
<pdfrwt beam="1">  1       -4 0.56038960E-01 0.12492148E+03</pdfrwt>
<totfact> 0.67179323E+03</totfact>
</mgrwt>
</event>
<event>
 5    1  0.3331626E-002  0.1249974E+03  0.7818608E-02  0.1235073E+00
          4   -1    0    0  501    0  0.00000000000E+00  0.00000000000E+00  0.12757269663E+03  0.12757901797E+03  0.12700000000E+01 0. -1.
         -4   -1    0    0    0  501 -0.00000000000E+00 -0.00000000000E+00 -0.30598280607E+02  0.30624625322E+02  0.12700000000E+01 0. -1.
         25    2    1    2    0    0  0.00000000000E+00  0.00000000000E+00  0.96974416028E+02  0.15820364329E+03  0.12499742152E+03 0.  0.
    9000005    1    3    3    0    0 -0.11588096009E+02 -0.61279557762E+02  0.53489457753E+02  0.82168061066E+02  0.10000000000E+01 0.  0.
    9000005    1    3    3    0    0  0.11588096009E+02  0.61279557762E+02  0.43484958274E+02  0.76035582228E+02  0.10000000000E+01 0.  0.
<mgrwt>
<rscale>  0 0.12499742E+03</rscale>
<asrwt>0</asrwt>
<pdfrwt beam="1">  1        4 0.19629081E-01 0.12499742E+03</pdfrwt>
<pdfrwt beam="2">  1       -4 0.47099407E-02 0.12499742E+03</pdfrwt>
<totfact> 0.97695894E+03</totfact>
</mgrwt>
</event>
<event>
 5    1  0.3331626E-002  0.1249902E+03  0.7818608E-02  0.1235085E+00
         -4   -1    0    0    0  501 -0.00000000000E+00  0.00000000000E+00  0.67601452987E+02  0.67613381412E+02  0.12700000000E+01 0.  1.
          4   -1    0    0  501    0  0.00000000000E+00 -0.00000000000E+00 -0.57750441066E+02  0.57764403773E+02  0.12700000000E+01 0.  1.
         25    2    1    2    0    0  0.00000000000E+00  0.00000000000E+00  0.98510119214E+01  0.12537778519E+03  0.12499018594E+03 0.  0.
    9000005    1    3    3    0    0  0.53862241821E+01 -0.61546666276E+02  0.14315791082E+02  0.63426693237E+02  0.10000000000E+01 0.  0.
    9000005    1    3    3    0    0 -0.53862241821E+01  0.61546666276E+02 -0.44647791606E+01  0.61951091949E+02  0.10000000000E+01 0.  0.
<mgrwt>
<rscale>  0 0.12499019E+03</rscale>
<asrwt>0</asrwt>
<pdfrwt beam="2">  1        4 0.88866748E-02 0.12499019E+03</pdfrwt>
<pdfrwt beam="1">  1       -4 0.10402215E-01 0.12499019E+03</pdfrwt>
<totfact> 0.10446971E+04</totfact>
</mgrwt>
</event>
<event>
 5    1  0.3331626E-002  0.1249994E+03  0.7818608E-02  0.1235070E+00
          4   -1    0    0  501    0  0.00000000000E+00  0.00000000000E+00  0.15915345484E+02  0.15965936298E+02  0.12700000000E+01 0. -1.
         -4   -1    0    0    0  501 -0.00000000000E+00 -0.00000000000E+00 -0.24499518510E+03  0.24499847677E+03  0.12700000000E+01 0. -1.
         25    2    1    2    0    0  0.00000000000E+00  0.00000000000E+00 -0.22907983961E+03  0.26096441307E+03  0.12499940789E+03 0.  0.
    9000005    1    3    3    0    0 -0.32789051288E+02 -0.42027018714E+02 -0.18263372003E+03  0.19025632152E+03  0.10000000000E+01 0.  0.
    9000005    1    3    3    0    0  0.32789051288E+02  0.42027018714E+02 -0.46446119587E+02  0.70708091553E+02  0.10000000000E+01 0.  0.
<mgrwt>
<rscale>  0 0.12499941E+03</rscale>
<asrwt>0</asrwt>
<pdfrwt beam="1">  1        4 0.24526597E-02 0.12499941E+03</pdfrwt>
<pdfrwt beam="2">  1       -4 0.37695709E-01 0.12499941E+03</pdfrwt>
<totfact> 0.80771975E+03</totfact>
</mgrwt>
</event>
<event>
 5    1  0.3331626E-002  0.1250010E+03  0.7818608E-02  0.1235068E+00
          4   -1    0    0  501    0  0.00000000000E+00  0.00000000000E+00  0.22318735096E+03  0.22319096427E+03  0.12700000000E+01 0.  1.
         -4   -1    0    0    0  501 -0.00000000000E+00 -0.00000000000E+00 -0.17475584205E+02  0.17521670677E+02  0.12700000000E+01 0.  1.
         25    2    1    2    0    0  0.00000000000E+00  0.00000000000E+00  0.20571176676E+03  0.24071263494E+03  0.12500096655E+03 0.  0.
    9000005    1    3    3    0    0 -0.61750314089E+02  0.90744722723E+01  0.96808164049E+02  0.11518796796E+03  0.10000000000E+01 0.  0.
    9000005    1    3    3    0    0  0.61750314089E+02 -0.90744722723E+01  0.10890360271E+03  0.12552466698E+03  0.10000000000E+01 0.  0.
<mgrwt>
<rscale>  0 0.12500097E+03</rscale>
<asrwt>0</asrwt>
<pdfrwt beam="1">  1        4 0.34340336E-01 0.12500097E+03</pdfrwt>
<pdfrwt beam="2">  1       -4 0.26923747E-02 0.12500097E+03</pdfrwt>
<totfact> 0.83689546E+03</totfact>
</mgrwt>
</event>
<event>
 5    1  0.3331626E-002  0.1250007E+03  0.7818608E-02  0.1235068E+00
         -4   -1    0    0    0  501 -0.00000000000E+00  0.00000000000E+00  0.41514631423E+03  0.41514825679E+03  0.12700000000E+01 0. -1.
          4   -1    0    0  501    0  0.00000000000E+00 -0.00000000000E+00 -0.93646081715E+01  0.94503325976E+01  0.12700000000E+01 0. -1.
         25    2    1    2    0    0  0.00000000000E+00  0.00000000000E+00  0.40578170606E+03  0.42459858939E+03  0.12500067656E+03 0.  0.
    9000005    1    3    3    0    0 -0.79524375381E+01 -0.35063714615E+02  0.29270130529E+02  0.46372900346E+02  0.10000000000E+01 0.  0.
    9000005    1    3    3    0    0  0.79524375381E+01  0.35063714615E+02  0.37651157553E+03  0.37822568904E+03  0.10000000000E+01 0.  0.
<mgrwt>
<rscale>  0 0.12500068E+03</rscale>
<asrwt>0</asrwt>
<pdfrwt beam="2">  1        4 0.14474527E-02 0.12500068E+03</pdfrwt>
<pdfrwt beam="1">  1       -4 0.63875401E-01 0.12500068E+03</pdfrwt>
<totfact> 0.62227739E+03</totfact>
</mgrwt>
</event>
<event>
 5    1  0.3331626E-002  0.1249813E+03  0.7818608E-02  0.1235098E+00
         -4   -1    0    0    0  501 -0.00000000000E+00  0.00000000000E+00  0.34579715292E+02  0.34603028909E+02  0.12700000000E+01 0. -1.
          4   -1    0    0  501    0  0.00000000000E+00 -0.00000000000E+00 -0.11286494039E+03  0.11287208543E+03  0.12700000000E+01 0. -1.
         25    2    1    2    0    0  0.00000000000E+00  0.00000000000E+00 -0.78285225095E+02  0.14747511433E+03  0.12498133013E+03 0.  0.
    9000005    1    3    3    0    0  0.67392781838E+01 -0.60822701762E+02 -0.24251305529E+02  0.65832702663E+02  0.10000000000E+01 0.  0.
    9000005    1    3    3    0    0 -0.67392781838E+01  0.60822701762E+02 -0.54033919566E+02  0.81642411672E+02  0.10000000000E+01 0.  0.
<mgrwt>
<rscale>  0 0.12498133E+03</rscale>
<asrwt>0</asrwt>
<pdfrwt beam="2">  1        4 0.17366180E-01 0.12498133E+03</pdfrwt>
<pdfrwt beam="1">  1       -4 0.53222992E-02 0.12498133E+03</pdfrwt>
<totfact> 0.99851359E+03</totfact>
</mgrwt>
</event>
<event>
 5    1  0.3331626E-002  0.1249988E+03  0.7818608E-02  0.1235071E+00
          4   -1    0    0  501    0  0.00000000000E+00  0.00000000000E+00  0.62908931362E+02  0.62921749380E+02  0.12700000000E+01 0. -1.
         -4   -1    0    0    0  501 -0.00000000000E+00 -0.00000000000E+00 -0.62066895727E+02  0.62079887606E+02  0.12700000000E+01 0. -1.
         25    2    1    2    0    0  0.00000000000E+00  0.00000000000E+00  0.84203563502E+00  0.12500163699E+03  0.12499880090E+03 0.  0.
    9000005    1    3    3    0    0 -0.17549657399E+02  0.49889182523E+02  0.33712222955E+02  0.62725074605E+02  0.10000000000E+01 0.  0.
    9000005    1    3    3    0    0  0.17549657399E+02 -0.49889182523E+02 -0.32870187320E+02  0.62276562381E+02  0.10000000000E+01 0.  0.
<mgrwt>
<rscale>  0 0.12499880E+03</rscale>
<asrwt>0</asrwt>
<pdfrwt beam="1">  1        4 0.96802826E-02 0.12499880E+03</pdfrwt>
<pdfrwt beam="2">  1       -4 0.95507385E-02 0.12499880E+03</pdfrwt>
<totfact> 0.10453110E+04</totfact>
</mgrwt>
</event>
<event>
 5    1  0.3331626E-002  0.1250004E+03  0.7818608E-02  0.1235069E+00
          4   -1    0    0  501    0  0.00000000000E+00  0.00000000000E+00  0.14781258586E+04  0.14781264042E+04  0.12700000000E+01 0. -1.
         -4   -1    0    0    0  501 -0.00000000000E+00 -0.00000000000E+00 -0.24895628082E+01  0.27947849606E+01  0.12700000000E+01 0. -1.
         25    2    1    2    0    0  0.00000000000E+00  0.00000000000E+00  0.14756362958E+04  0.14809211891E+04  0.12500036406E+03 0.  0.
    9000005    1    3    3    0    0 -0.60142544535E+02  0.16740319030E+02  0.70450035522E+03  0.70726170153E+03  0.10000000000E+01 0.  0.
    9000005    1    3    3    0    0  0.60142544535E+02 -0.16740319030E+02  0.77113594055E+03  0.77365948760E+03  0.10000000000E+01 0.  0.
<mgrwt>
<rscale>  0 0.12500036E+03</rscale>
<asrwt>0</asrwt>
<pdfrwt beam="1">  1        4 0.22742796E+00 0.12500036E+03</pdfrwt>
<pdfrwt beam="2">  1       -4 0.40652944E-03 0.12500036E+03</pdfrwt>
<totfact> 0.18307964E+03</totfact>
</mgrwt>
</event>
<event>
 5    1  0.3331626E-002  0.1249983E+03  0.7818608E-02  0.1235072E+00
         -4   -1    0    0    0  501 -0.00000000000E+00  0.00000000000E+00  0.20283805922E+04  0.20283809898E+04  0.12700000000E+01 0. -1.
          4   -1    0    0  501    0  0.00000000000E+00 -0.00000000000E+00 -0.17159188467E+01  0.21347780888E+01  0.12700000000E+01 0. -1.
         25    2    1    2    0    0  0.00000000000E+00  0.00000000000E+00  0.20266646734E+04  0.20305157679E+04  0.12499834142E+03 0.  0.
    9000005    1    3    3    0    0  0.17787707883E+02 -0.53934495408E+02  0.58978967095E+03  0.59251851305E+03  0.10000000000E+01 0.  0.
    9000005    1    3    3    0    0 -0.17787707883E+02  0.53934495408E+02  0.14368750024E+04  0.14379972549E+04  0.10000000000E+01 0.  0.
<mgrwt>
<rscale>  0 0.12499834E+03</rscale>
<asrwt>0</asrwt>
<pdfrwt beam="2">  1        4 0.29623826E-03 0.12499834E+03</pdfrwt>
<pdfrwt beam="1">  1       -4 0.31209057E+00 0.12499834E+03</pdfrwt>
<totfact> 0.94684955E+02</totfact>
</mgrwt>
</event>
<event>
 5    1  0.3331626E-002  0.1250045E+03  0.7818608E-02  0.1235062E+00
         -4   -1    0    0    0  501 -0.00000000000E+00  0.00000000000E+00  0.47704204661E+03  0.47704373713E+03  0.12700000000E+01 0. -1.
          4   -1    0    0  501    0  0.00000000000E+00 -0.00000000000E+00 -0.81381110369E+01  0.82366104223E+01  0.12700000000E+01 0. -1.
         25    2    1    2    0    0  0.00000000000E+00  0.00000000000E+00  0.46890393557E+03  0.48528034755E+03  0.12500445961E+03 0.  0.
    9000005    1    3    3    0    0 -0.14786898479E+02 -0.60694137523E+02  0.22761898498E+03  0.23603777879E+03  0.10000000000E+01 0.  0.
    9000005    1    3    3    0    0  0.14786898479E+02  0.60694137523E+02  0.24128495060E+03  0.24924256876E+03  0.10000000000E+01 0.  0.
<mgrwt>
<rscale>  0 0.12500446E+03</rscale>
<asrwt>0</asrwt>
<pdfrwt beam="2">  1        4 0.12597242E-02 0.12500446E+03</pdfrwt>
<pdfrwt beam="1">  1       -4 0.73398777E-01 0.12500446E+03</pdfrwt>
<totfact> 0.57019206E+03</totfact>
</mgrwt>
</event>
<event>
 5    1  0.3331626E-002  0.1250032E+03  0.7818608E-02  0.1235064E+00
         -4   -1    0    0    0  501 -0.00000000000E+00  0.00000000000E+00  0.13046799627E+02  0.13108465986E+02  0.12700000000E+01 0. -1.
          4   -1    0    0  501    0  0.00000000000E+00 -0.00000000000E+00 -0.29864917743E+03  0.29865187775E+03  0.12700000000E+01 0. -1.
         25    2    1    2    0    0  0.00000000000E+00  0.00000000000E+00 -0.28560237781E+03  0.31176034373E+03  0.12500317482E+03 0.  0.
    9000005    1    3    3    0    0  0.30150908139E+01 -0.10191687248E+02 -0.29639081681E+03  0.29658300280E+03  0.10000000000E+01 0.  0.
    9000005    1    3    3    0    0 -0.30150908139E+01  0.10191687248E+02  0.10788439004E+02  0.15177340930E+02  0.10000000000E+01 0.  0.
<mgrwt>
<rscale>  0 0.12500317E+03</rscale>
<asrwt>0</asrwt>
<pdfrwt beam="2">  1        4 0.45950974E-01 0.12500317E+03</pdfrwt>
<pdfrwt beam="1">  1       -4 0.20121514E-02 0.12500317E+03</pdfrwt>
<totfact> 0.74141712E+03</totfact>
</mgrwt>
</event>
<event>
 5    1  0.3331626E-002  0.1249996E+03  0.7818608E-02  0.1235070E+00
         -4   -1    0    0    0  501 -0.00000000000E+00  0.00000000000E+00  0.36605063737E+01  0.38745589313E+01  0.12700000000E+01 0.  1.
          4   -1    0    0  501    0  0.00000000000E+00 -0.00000000000E+00 -0.10365986054E+04  0.10365993834E+04  0.12700000000E+01 0.  1.
         25    2    1    2    0    0  0.00000000000E+00  0.00000000000E+00 -0.10329380990E+04  0.10404739423E+04  0.12499963281E+03 0.  0.
    9000005    1    3    3    0    0 -0.56543295975E+02 -0.26588012068E+02 -0.52543540704E+03  0.52913838802E+03  0.10000000000E+01 0.  0.
    9000005    1    3    3    0    0  0.56543295975E+02  0.26588012068E+02 -0.50750269197E+03  0.51133555427E+03  0.10000000000E+01 0.  0.
<mgrwt>
<rscale>  0 0.12499963E+03</rscale>
<asrwt>0</asrwt>
<pdfrwt beam="2">  1        4 0.15949301E+00 0.12499963E+03</pdfrwt>
<pdfrwt beam="1">  1       -4 0.57968108E-03 0.12499963E+03</pdfrwt>
<totfact> 0.29294362E+03</totfact>
</mgrwt>
</event>
<event>
 5    1  0.3331626E-002  0.1250158E+03  0.7818608E-02  0.1235045E+00
          4   -1    0    0  501    0  0.00000000000E+00  0.00000000000E+00  0.16191870120E+03  0.16192368170E+03  0.12700000000E+01 0.  1.
         -4   -1    0    0    0  501 -0.00000000000E+00 -0.00000000000E+00 -0.24108785643E+02  0.24142212931E+02  0.12700000000E+01 0.  1.
         25    2    1    2    0    0  0.00000000000E+00  0.00000000000E+00  0.13780991555E+03  0.18606589464E+03  0.12501577629E+03 0.  0.
    9000005    1    3    3    0    0 -0.28684419573E+02 -0.13264775674E+02  0.14915786253E+03  0.15247235209E+03  0.10000000000E+01 0.  0.
    9000005    1    3    3    0    0  0.28684419573E+02  0.13264775674E+02 -0.11347946974E+02  0.33593542541E+02  0.10000000000E+01 0.  0.
<mgrwt>
<rscale>  0 0.12501578E+03</rscale>
<asrwt>0</asrwt>
<pdfrwt beam="1">  1        4 0.24913525E-01 0.12501578E+03</pdfrwt>
<pdfrwt beam="2">  1       -4 0.37119982E-02 0.12501578E+03</pdfrwt>
<totfact> 0.92503670E+03</totfact>
</mgrwt>
</event>
<event>
 5    1  0.3331626E-002  0.1249999E+03  0.7818608E-02  0.1235069E+00
          4   -1    0    0  501    0  0.00000000000E+00  0.00000000000E+00  0.12224384289E+03  0.12225043977E+03  0.12700000000E+01 0. -1.
         -4   -1    0    0    0  501 -0.00000000000E+00 -0.00000000000E+00 -0.31934446926E+02  0.31959690243E+02  0.12700000000E+01 0. -1.
         25    2    1    2    0    0  0.00000000000E+00  0.00000000000E+00  0.90309395966E+02  0.15421013002E+03  0.12499990880E+03 0.  0.
    9000005    1    3    3    0    0  0.28103927532E+02  0.32157641776E+02 -0.11127430203E+02  0.44144811363E+02  0.10000000000E+01 0.  0.
    9000005    1    3    3    0    0 -0.28103927532E+02 -0.32157641776E+02  0.10143682617E+03  0.11006531865E+03  0.10000000000E+01 0.  0.
<mgrwt>
<rscale>  0 0.12499991E+03</rscale>
<asrwt>0</asrwt>
<pdfrwt beam="1">  1        4 0.18809195E-01 0.12499991E+03</pdfrwt>
<pdfrwt beam="2">  1       -4 0.49154410E-02 0.12499991E+03</pdfrwt>
<totfact> 0.98470985E+03</totfact>
</mgrwt>
</event>
<event>
 5    1  0.3331626E-002  0.1250001E+03  0.7818608E-02  0.1235069E+00
          4   -1    0    0  501    0  0.00000000000E+00  0.00000000000E+00  0.51289727787E+02  0.51305448799E+02  0.12700000000E+01 0. -1.
         -4   -1    0    0    0  501 -0.00000000000E+00 -0.00000000000E+00 -0.76127901057E+02  0.76138493677E+02  0.12700000000E+01 0. -1.
         25    2    1    2    0    0  0.00000000000E+00  0.00000000000E+00 -0.24838173270E+02  0.12744394248E+03  0.12500009449E+03 0.  0.
    9000005    1    3    3    0    0  0.38816990251E+02 -0.11390553103E+01  0.37499348947E+02  0.53993123179E+02  0.10000000000E+01 0.  0.
    9000005    1    3    3    0    0 -0.38816990251E+02  0.11390553103E+01 -0.62337522218E+02  0.73450819297E+02  0.10000000000E+01 0.  0.
<mgrwt>
<rscale>  0 0.12500009E+03</rscale>
<asrwt>0</asrwt>
<pdfrwt beam="1">  1        4 0.78927514E-02 0.12500009E+03</pdfrwt>
<pdfrwt beam="2">  1       -4 0.11714009E-01 0.12500009E+03</pdfrwt>
<totfact> 0.10399493E+04</totfact>
</mgrwt>
</event>
<event>
 5    1  0.3331626E-002  0.1250054E+03  0.7818608E-02  0.1235061E+00
         -4   -1    0    0    0  501 -0.00000000000E+00  0.00000000000E+00  0.99231930524E+01  0.10004132164E+02  0.12700000000E+01 0. -1.
          4   -1    0    0  501    0  0.00000000000E+00 -0.00000000000E+00 -0.39200122679E+03  0.39200328405E+03  0.12700000000E+01 0. -1.
         25    2    1    2    0    0  0.00000000000E+00  0.00000000000E+00 -0.38207803374E+03  0.40200741621E+03  0.12500535519E+03 0.  0.
    9000005    1    3    3    0    0 -0.38781830914E+02  0.27674358068E+02 -0.60975594861E+02  0.77388136508E+02  0.10000000000E+01 0.  0.
    9000005    1    3    3    0    0  0.38781830914E+02 -0.27674358068E+02 -0.32110243888E+03  0.32461927971E+03  0.10000000000E+01 0.  0.
<mgrwt>
<rscale>  0 0.12500536E+03</rscale>
<asrwt>0</asrwt>
<pdfrwt beam="2">  1        4 0.60314254E-01 0.12500536E+03</pdfrwt>
<pdfrwt beam="1">  1       -4 0.15330297E-02 0.12500536E+03</pdfrwt>
<totfact> 0.64350415E+03</totfact>
</mgrwt>
</event>
<event>
 5    1  0.3331626E-002  0.1250016E+03  0.7818608E-02  0.1235067E+00
          4   -1    0    0  501    0  0.00000000000E+00  0.00000000000E+00  0.76084655970E+01  0.77137311815E+01  0.12700000000E+01 0. -1.
         -4   -1    0    0    0  501 -0.00000000000E+00 -0.00000000000E+00 -0.50978816269E+03  0.50978974462E+03  0.12700000000E+01 0. -1.
         25    2    1    2    0    0  0.00000000000E+00  0.00000000000E+00 -0.50217969709E+03  0.51750347580E+03  0.12500159716E+03 0.  0.
    9000005    1    3    3    0    0  0.32191669793E+01 -0.32118616600E+02 -0.29557425467E+02  0.43779104246E+02  0.10000000000E+01 0.  0.
    9000005    1    3    3    0    0 -0.32191669793E+01  0.32118616600E+02 -0.47262227162E+03  0.47372437155E+03  0.10000000000E+01 0.  0.
<mgrwt>
<rscale>  0 0.12500160E+03</rscale>
<asrwt>0</asrwt>
<pdfrwt beam="1">  1        4 0.11787526E-02 0.12500160E+03</pdfrwt>
<pdfrwt beam="2">  1       -4 0.78437140E-01 0.12500160E+03</pdfrwt>
<totfact> 0.54529532E+03</totfact>
</mgrwt>
</event>
<event>
 5    1  0.3331626E-002  0.1250037E+03  0.7818608E-02  0.1235064E+00
          4   -1    0    0  501    0  0.00000000000E+00  0.00000000000E+00  0.38809295384E+02  0.38830069639E+02  0.12700000000E+01 0. -1.
         -4   -1    0    0    0  501 -0.00000000000E+00 -0.00000000000E+00 -0.10060664432E+03  0.10061465987E+03  0.12700000000E+01 0. -1.
         25    2    1    2    0    0  0.00000000000E+00  0.00000000000E+00 -0.61797348933E+02  0.13944472951E+03  0.12500368096E+03 0.  0.
    9000005    1    3    3    0    0 -0.21163615423E+02 -0.52143628735E+02 -0.58135209782E+00  0.56286717845E+02  0.10000000000E+01 0.  0.
    9000005    1    3    3    0    0  0.21163615423E+02  0.52143628735E+02 -0.61215996836E+02  0.83158011665E+02  0.10000000000E+01 0.  0.
<mgrwt>
<rscale>  0 0.12500368E+03</rscale>
<asrwt>0</asrwt>
<pdfrwt beam="1">  1        4 0.59728755E-02 0.12500368E+03</pdfrwt>
<pdfrwt beam="2">  1       -4 0.15480160E-01 0.12500368E+03</pdfrwt>
<totfact> 0.10144266E+04</totfact>
</mgrwt>
</event>
<event>
 4    1  0.3331626E-002  0.1250783E+03  0.7818608E-02  0.1234947E+00
          4   -1    0    0  501    0  0.00000000000E+00  0.00000000000E+00  0.38859955568E+02  0.38880702755E+02  0.12700000000E+01 0.  1.
         -4   -1    0    0    0  501 -0.00000000000E+00 -0.00000000000E+00 -0.10059563445E+03  0.10060365088E+03  0.12700000000E+01 0.  1.
    9000005    1    1    2    0    0 -0.48513444435E+02 -0.18033367469E+02  0.82650027316E+01  0.52422007815E+02  0.10000000000E+01 0.  0.
    9000005    1    1    2    0    0  0.48513444435E+02  0.18033367469E+02 -0.70000681616E+02  0.87062345821E+02  0.10000000000E+01 0.  0.
<mgrwt>
<rscale>  0 0.12507834E+03</rscale>
<asrwt>0</asrwt>
<pdfrwt beam="1">  1        4 0.59806673E-02 0.12507834E+03</pdfrwt>
<pdfrwt beam="2">  1       -4 0.15478464E-01 0.12507834E+03</pdfrwt>
<totfact> 0.10126400E+04</totfact>
</mgrwt>
</event>
<event>
 5    1  0.3331626E-002  0.1249918E+03  0.7818608E-02  0.1235082E+00
          4   -1    0    0  501    0  0.00000000000E+00  0.00000000000E+00  0.12744088286E+03  0.12744721074E+03  0.12700000000E+01 0.  1.
         -4   -1    0    0    0  501 -0.00000000000E+00 -0.00000000000E+00 -0.30627175879E+02  0.30653495760E+02  0.12700000000E+01 0.  1.
         25    2    1    2    0    0  0.00000000000E+00  0.00000000000E+00  0.96813706983E+02  0.15810070650E+03  0.12499175787E+03 0.  0.
    9000005    1    3    3    0    0 -0.62248387287E+02  0.37450894920E+01  0.43371471928E+02  0.75966913800E+02  0.10000000000E+01 0.  0.
    9000005    1    3    3    0    0  0.62248387287E+02 -0.37450894920E+01  0.53442235055E+02  0.82133792697E+02  0.10000000000E+01 0.  0.
<mgrwt>
<rscale>  0 0.12499176E+03</rscale>
<asrwt>0</asrwt>
<pdfrwt beam="1">  1        4 0.19608801E-01 0.12499176E+03</pdfrwt>
<pdfrwt beam="2">  1       -4 0.47143846E-02 0.12499176E+03</pdfrwt>
<totfact> 0.97728316E+03</totfact>
</mgrwt>
</event>
<event>
 5    1  0.3331626E-002  0.1250000E+03  0.7818608E-02  0.1235069E+00
         -4   -1    0    0    0  501 -0.00000000000E+00  0.00000000000E+00  0.14111474762E+03  0.14112046236E+03  0.12700000000E+01 0. -1.
          4   -1    0    0  501    0  0.00000000000E+00 -0.00000000000E+00 -0.27660513549E+02  0.27689653479E+02  0.12700000000E+01 0. -1.
         25    2    1    2    0    0  0.00000000000E+00  0.00000000000E+00  0.11345423407E+03  0.16881011584E+03  0.12499996792E+03 0.  0.
    9000005    1    3    3    0    0 -0.15986708918E+02 -0.13416003896E+01  0.13829298007E+03  0.13922400328E+03  0.10000000000E+01 0.  0.
    9000005    1    3    3    0    0  0.15986708918E+02  0.13416003896E+01 -0.24838745994E+02  0.29586112557E+02  0.10000000000E+01 0.  0.
<mgrwt>
<rscale>  0 0.12499997E+03</rscale>
<asrwt>0</asrwt>
<pdfrwt beam="2">  1        4 0.42581447E-02 0.12499997E+03</pdfrwt>
<pdfrwt beam="1">  1       -4 0.21712642E-01 0.12499997E+03</pdfrwt>
<totfact> 0.95670712E+03</totfact>
</mgrwt>
</event>
<event>
 5    1  0.3331626E-002  0.1249879E+03  0.7818608E-02  0.1235088E+00
         -4   -1    0    0    0  501 -0.00000000000E+00  0.00000000000E+00  0.34852936079E+02  0.34876067056E+02  0.12700000000E+01 0. -1.
          4   -1    0    0  501    0  0.00000000000E+00 -0.00000000000E+00 -0.11199245087E+03  0.11199965157E+03  0.12700000000E+01 0. -1.
         25    2    1    2    0    0  0.00000000000E+00  0.00000000000E+00 -0.77139514795E+02  0.14687571863E+03  0.12498788733E+03 0.  0.
    9000005    1    3    3    0    0  0.36022747389E+02  0.50531530181E+02 -0.47158517152E+02  0.77948698590E+02  0.10000000000E+01 0.  0.
    9000005    1    3    3    0    0 -0.36022747389E+02 -0.50531530181E+02 -0.29980997642E+02  0.68927020039E+02  0.10000000000E+01 0.  0.
<mgrwt>
<rscale>  0 0.12498789E+03</rscale>
<asrwt>0</asrwt>
<pdfrwt beam="2">  1        4 0.17231941E-01 0.12498789E+03</pdfrwt>
<pdfrwt beam="1">  1       -4 0.53643234E-02 0.12498789E+03</pdfrwt>
<totfact> 0.99957418E+03</totfact>
</mgrwt>
</event>
<event>
 5    1  0.3331626E-002  0.1250232E+03  0.7818608E-02  0.1235033E+00
          4   -1    0    0  501    0  0.00000000000E+00  0.00000000000E+00  0.15773892804E+02  0.15824935835E+02  0.12700000000E+01 0. -1.
         -4   -1    0    0    0  501 -0.00000000000E+00 -0.00000000000E+00 -0.24727924150E+03  0.24728250277E+03  0.12700000000E+01 0. -1.
         25    2    1    2    0    0  0.00000000000E+00  0.00000000000E+00 -0.23150534870E+03  0.26310743861E+03  0.12502318895E+03 0.  0.
    9000005    1    3    3    0    0 -0.26864239889E+02 -0.17711114045E+02 -0.22852018545E+03  0.23077661516E+03  0.10000000000E+01 0.  0.
    9000005    1    3    3    0    0  0.26864239889E+02  0.17711114045E+02 -0.29851632509E+01  0.32330823453E+02  0.10000000000E+01 0.  0.
<mgrwt>
<rscale>  0 0.12502319E+03</rscale>
<asrwt>0</asrwt>
<pdfrwt beam="1">  1        4 0.24309302E-02 0.12502319E+03</pdfrwt>
<pdfrwt beam="2">  1       -4 0.38047135E-01 0.12502319E+03</pdfrwt>
<totfact> 0.80430431E+03</totfact>
</mgrwt>
</event>
<event>
 5    1  0.3331626E-002  0.1249994E+03  0.7818608E-02  0.1235070E+00
          4   -1    0    0  501    0  0.00000000000E+00  0.00000000000E+00  0.35432071412E+02  0.35454824560E+02  0.12700000000E+01 0. -1.
         -4   -1    0    0    0  501 -0.00000000000E+00 -0.00000000000E+00 -0.11018328002E+03  0.11019059895E+03  0.12700000000E+01 0. -1.
         25    2    1    2    0    0  0.00000000000E+00  0.00000000000E+00 -0.74751208611E+02  0.14564542351E+03  0.12499938480E+03 0.  0.
    9000005    1    3    3    0    0  0.29861580756E+02  0.26825109483E+01 -0.10126153807E+03  0.10561159483E+03  0.10000000000E+01 0.  0.
    9000005    1    3    3    0    0 -0.29861580756E+02 -0.26825109483E+01  0.26510329462E+02  0.40033828675E+02  0.10000000000E+01 0.  0.
<mgrwt>
<rscale>  0 0.12499938E+03</rscale>
<asrwt>0</asrwt>
<pdfrwt beam="1">  1        4 0.54534012E-02 0.12499938E+03</pdfrwt>
<pdfrwt beam="2">  1       -4 0.16953587E-01 0.12499938E+03</pdfrwt>
<totfact> 0.10018030E+04</totfact>
</mgrwt>
</event>
<event>
 5    1  0.3331626E-002  0.1250028E+03  0.7818608E-02  0.1235065E+00
         -4   -1    0    0    0  501 -0.00000000000E+00  0.00000000000E+00  0.67649294303E+02  0.67661214294E+02  0.12700000000E+01 0.  1.
          4   -1    0    0  501    0  0.00000000000E+00 -0.00000000000E+00 -0.57721240938E+02  0.57735210707E+02  0.12700000000E+01 0.  1.
         25    2    1    2    0    0  0.00000000000E+00  0.00000000000E+00  0.99280533654E+01  0.12539642500E+03  0.12500278861E+03 0.  0.
    9000005    1    3    3    0    0  0.43161958820E+02  0.43037111134E+02 -0.88734919931E+01  0.61602649977E+02  0.10000000000E+01 0.  0.
    9000005    1    3    3    0    0 -0.43161958820E+02 -0.43037111134E+02  0.18801545358E+02  0.63793775024E+02  0.10000000000E+01 0.  0.
<mgrwt>
<rscale>  0 0.12500279E+03</rscale>
<asrwt>0</asrwt>
<pdfrwt beam="2">  1        4 0.88821824E-02 0.12500279E+03</pdfrwt>
<pdfrwt beam="1">  1       -4 0.10409575E-01 0.12500279E+03</pdfrwt>
<totfact> 0.10443589E+04</totfact>
</mgrwt>
</event>
<event>
 5    1  0.3331626E-002  0.1250012E+03  0.7818608E-02  0.1235067E+00
          4   -1    0    0  501    0  0.00000000000E+00  0.00000000000E+00  0.14101645420E+04  0.14101651139E+04  0.12700000000E+01 0. -1.
         -4   -1    0    0    0  501 -0.00000000000E+00 -0.00000000000E+00 -0.26239555622E+01  0.29151402698E+01  0.12700000000E+01 0. -1.
         25    2    1    2    0    0  0.00000000000E+00  0.00000000000E+00  0.14075405865E+04  0.14130802542E+04  0.12500120883E+03 0.  0.
    9000005    1    3    3    0    0 -0.39763327518E+02  0.74474835869E+01  0.16532099082E+03  0.17020169574E+03  0.10000000000E+01 0.  0.
    9000005    1    3    3    0    0  0.39763327518E+02 -0.74474835869E+01  0.12422195956E+04  0.12428785584E+04  0.10000000000E+01 0.  0.
<mgrwt>
<rscale>  0 0.12500121E+03</rscale>
<asrwt>0</asrwt>
<pdfrwt beam="1">  1        4 0.21697060E+00 0.12500121E+03</pdfrwt>
<pdfrwt beam="2">  1       -4 0.42612875E-03 0.12500121E+03</pdfrwt>
<totfact> 0.19701470E+03</totfact>
</mgrwt>
</event>
<event>
 5    1  0.3331626E-002  0.1249993E+03  0.7818608E-02  0.1235070E+00
         -4   -1    0    0    0  501 -0.00000000000E+00  0.00000000000E+00  0.33351028994E+03  0.33351270800E+03  0.12700000000E+01 0.  1.
          4   -1    0    0  501    0  0.00000000000E+00 -0.00000000000E+00 -0.11675505341E+02  0.11744374184E+02  0.12700000000E+01 0.  1.
         25    2    1    2    0    0  0.00000000000E+00  0.00000000000E+00  0.32183478460E+03  0.34525708219E+03  0.12499929687E+03 0.  0.
    9000005    1    3    3    0    0 -0.32165806879E+02  0.12392183830E+02  0.16944774550E+02  0.38423049551E+02  0.10000000000E+01 0.  0.
    9000005    1    3    3    0    0  0.32165806879E+02 -0.12392183830E+02  0.30489001005E+03  0.30683403263E+03  0.10000000000E+01 0.  0.
<mgrwt>
<rscale>  0 0.12499930E+03</rscale>
<asrwt>0</asrwt>
<pdfrwt beam="2">  1        4 0.18017153E-02 0.12499930E+03</pdfrwt>
<pdfrwt beam="1">  1       -4 0.51314755E-01 0.12499930E+03</pdfrwt>
<totfact> 0.70250600E+03</totfact>
</mgrwt>
</event>
<event>
 5    1  0.3331626E-002  0.1250023E+03  0.7818608E-02  0.1235066E+00
          4   -1    0    0  501    0  0.00000000000E+00  0.00000000000E+00  0.29017352127E+03  0.29017630046E+03  0.12700000000E+01 0. -1.
         -4   -1    0    0    0  501 -0.00000000000E+00 -0.00000000000E+00 -0.13429476001E+02  0.13489393080E+02  0.12700000000E+01 0. -1.
         25    2    1    2    0    0  0.00000000000E+00  0.00000000000E+00  0.27674404527E+03  0.30366569354E+03  0.12500234733E+03 0.  0.
    9000005    1    3    3    0    0 -0.23673018621E+02  0.37000466591E+02  0.24635755616E+03  0.25024486371E+03  0.10000000000E+01 0.  0.
    9000005    1    3    3    0    0  0.23673018621E+02 -0.37000466591E+02  0.30386489113E+02  0.53420829825E+02  0.10000000000E+01 0.  0.
<mgrwt>
<rscale>  0 0.12500235E+03</rscale>
<asrwt>0</asrwt>
<pdfrwt beam="1">  1        4 0.44646895E-01 0.12500235E+03</pdfrwt>
<pdfrwt beam="2">  1       -4 0.20708964E-02 0.12500235E+03</pdfrwt>
<totfact> 0.75137400E+03</totfact>
</mgrwt>
</event>
<event>
 5    1  0.3331626E-002  0.1249979E+03  0.7818608E-02  0.1235073E+00
          4   -1    0    0  501    0  0.00000000000E+00  0.00000000000E+00  0.76434493933E+02  0.76445044070E+02  0.12700000000E+01 0.  1.
         -4   -1    0    0    0  501 -0.00000000000E+00 -0.00000000000E+00 -0.51082148422E+02  0.51097933299E+02  0.12700000000E+01 0.  1.
         25    2    1    2    0    0  0.00000000000E+00  0.00000000000E+00  0.25352345511E+02  0.12754297737E+03  0.12499787859E+03 0.  0.
    9000005    1    3    3    0    0  0.34753918363E+01 -0.62388371036E+02  0.11804241830E+02  0.63598170682E+02  0.10000000000E+01 0.  0.
    9000005    1    3    3    0    0 -0.34753918363E+01  0.62388371036E+02  0.13548103681E+02  0.63944806687E+02  0.10000000000E+01 0.  0.
<mgrwt>
<rscale>  0 0.12499788E+03</rscale>
<asrwt>0</asrwt>
<pdfrwt beam="1">  1        4 0.11761179E-01 0.12499788E+03</pdfrwt>
<pdfrwt beam="2">  1       -4 0.78608178E-02 0.12499788E+03</pdfrwt>
<totfact> 0.10397868E+04</totfact>
</mgrwt>
</event>
<event>
 5    1  0.3331626E-002  0.1250135E+03  0.7818608E-02  0.1235048E+00
          4   -1    0    0  501    0  0.00000000000E+00  0.00000000000E+00  0.10343026738E+03  0.10343806412E+03  0.12700000000E+01 0. -1.
         -4   -1    0    0    0  501 -0.00000000000E+00 -0.00000000000E+00 -0.37755221766E+02  0.37776575687E+02  0.12700000000E+01 0. -1.
         25    2    1    2    0    0  0.00000000000E+00  0.00000000000E+00  0.65675045610E+02  0.14121463981E+03  0.12501345080E+03 0.  0.
    9000005    1    3    3    0    0  0.30577196976E+02  0.15143665620E+02  0.91985579457E+02  0.98115454498E+02  0.10000000000E+01 0.  0.
    9000005    1    3    3    0    0 -0.30577196976E+02 -0.15143665620E+02 -0.26310533846E+02  0.43099185313E+02  0.10000000000E+01 0.  0.
<mgrwt>
<rscale>  0 0.12501345E+03</rscale>
<asrwt>0</asrwt>
<pdfrwt beam="1">  1        4 0.15914591E-01 0.12501345E+03</pdfrwt>
<pdfrwt beam="2">  1       -4 0.58107380E-02 0.12501345E+03</pdfrwt>
<totfact> 0.10105411E+04</totfact>
</mgrwt>
</event>
<event>
 5    1  0.3331626E-002  0.1249994E+03  0.7818608E-02  0.1235070E+00
         -4   -1    0    0    0  501 -0.00000000000E+00  0.00000000000E+00  0.70308085329E+02  0.70319554624E+02  0.12700000000E+01 0. -1.
          4   -1    0    0  501    0  0.00000000000E+00 -0.00000000000E+00 -0.55535254913E+02  0.55549774421E+02  0.12700000000E+01 0. -1.
         25    2    1    2    0    0  0.00000000000E+00  0.00000000000E+00  0.14772830416E+02  0.12586932905E+03  0.12499940590E+03 0.  0.
    9000005    1    3    3    0    0 -0.34201410528E+02 -0.44531667394E+02 -0.20234519923E+02  0.59692894715E+02  0.10000000000E+01 0.  0.
    9000005    1    3    3    0    0  0.34201410528E+02  0.44531667394E+02  0.35007350339E+02  0.66176434331E+02  0.10000000000E+01 0.  0.
<mgrwt>
<rscale>  0 0.12499941E+03</rscale>
<asrwt>0</asrwt>
<pdfrwt beam="2">  1        4 0.85458846E-02 0.12499941E+03</pdfrwt>
<pdfrwt beam="1">  1       -4 0.10818628E-01 0.12499941E+03</pdfrwt>
<totfact> 0.10433963E+04</totfact>
</mgrwt>
</event>
<event>
 5    1  0.3331626E-002  0.1249970E+03  0.7818608E-02  0.1235074E+00
         -4   -1    0    0    0  501 -0.00000000000E+00  0.00000000000E+00  0.36048337674E+03  0.36048561387E+03  0.12700000000E+01 0. -1.
          4   -1    0    0  501    0  0.00000000000E+00 -0.00000000000E+00 -0.10796127461E+02  0.10870568897E+02  0.12700000000E+01 0. -1.
         25    2    1    2    0    0  0.00000000000E+00  0.00000000000E+00  0.34968724928E+03  0.37135618276E+03  0.12499696864E+03 0.  0.
    9000005    1    3    3    0    0  0.22859390443E+02  0.42226805105E+02  0.29365841428E+03  0.29755994199E+03  0.10000000000E+01 0.  0.
    9000005    1    3    3    0    0 -0.22859390443E+02 -0.42226805105E+02  0.56028834999E+02  0.73796240773E+02  0.10000000000E+01 0.  0.
<mgrwt>
<rscale>  0 0.12499697E+03</rscale>
<asrwt>0</asrwt>
<pdfrwt beam="2">  1        4 0.16668416E-02 0.12499697E+03</pdfrwt>
<pdfrwt beam="1">  1       -4 0.55464862E-01 0.12499697E+03</pdfrwt>
<totfact> 0.67441822E+03</totfact>
</mgrwt>
</event>
<event>
 5    1  0.3331626E-002  0.1250006E+03  0.7818608E-02  0.1235068E+00
          4   -1    0    0  501    0  0.00000000000E+00  0.00000000000E+00  0.84582194617E+03  0.84582289963E+03  0.12700000000E+01 0. -1.
         -4   -1    0    0    0  501 -0.00000000000E+00 -0.00000000000E+00 -0.45300472557E+01  0.47047027683E+01  0.12700000000E+01 0. -1.
         25    2    1    2    0    0  0.00000000000E+00  0.00000000000E+00  0.84129189892E+03  0.85052760239E+03  0.12500057299E+03 0.  0.
    9000005    1    3    3    0    0 -0.55878121486E+01  0.16786449304E+02  0.12832696821E+02  0.21878908395E+02  0.10000000000E+01 0.  0.
    9000005    1    3    3    0    0  0.55878121486E+01 -0.16786449304E+02  0.82845920210E+03  0.82864869400E+03  0.10000000000E+01 0.  0.
<mgrwt>
<rscale>  0 0.12500057E+03</rscale>
<asrwt>0</asrwt>
<pdfrwt beam="1">  1        4 0.13013980E+00 0.12500057E+03</pdfrwt>
<pdfrwt beam="2">  1       -4 0.71043961E-03 0.12500057E+03</pdfrwt>
<totfact> 0.36105332E+03</totfact>
</mgrwt>
</event>
<event>
 4    1  0.3331626E-002  0.1251777E+03  0.7818608E-02  0.1234792E+00
          4   -1    0    0  501    0  0.00000000000E+00  0.00000000000E+00  0.20623651893E+02  0.20662718055E+02  0.12700000000E+01 0.  1.
         -4   -1    0    0    0  501 -0.00000000000E+00 -0.00000000000E+00 -0.18972422561E+03  0.18972847620E+03  0.12700000000E+01 0.  1.
    9000005    1    1    2    0    0 -0.11648037377E+02  0.20030694369E+02  0.13156368423E+02  0.26664499277E+02  0.10000000000E+01 0.  0.
    9000005    1    1    2    0    0  0.11648037377E+02 -0.20030694369E+02 -0.18225694214E+03  0.18372669498E+03  0.10000000000E+01 0.  0.
<mgrwt>
<rscale>  0 0.12517768E+03</rscale>
<asrwt>0</asrwt>
<pdfrwt beam="1">  1        4 0.31762017E-02 0.12517768E+03</pdfrwt>
<pdfrwt beam="2">  1       -4 0.29191673E-01 0.12517768E+03</pdfrwt>
<totfact> 0.88061769E+03</totfact>
</mgrwt>
</event>
<event>
 5    1  0.3331626E-002  0.1250021E+03  0.7818608E-02  0.1235066E+00
          4   -1    0    0  501    0  0.00000000000E+00  0.00000000000E+00  0.28982687553E+02  0.29010499440E+02  0.12700000000E+01 0. -1.
         -4   -1    0    0    0  501 -0.00000000000E+00 -0.00000000000E+00 -0.13468784709E+03  0.13469383451E+03  0.12700000000E+01 0. -1.
         25    2    1    2    0    0  0.00000000000E+00  0.00000000000E+00 -0.10570515954E+03  0.16370433395E+03  0.12500211278E+03 0.  0.
    9000005    1    3    3    0    0 -0.51251914496E+02  0.20733299387E+02 -0.14699145117E+02  0.57216197970E+02  0.10000000000E+01 0.  0.
    9000005    1    3    3    0    0  0.51251914496E+02 -0.20733299387E+02 -0.91006014422E+02  0.10648813598E+03  0.10000000000E+01 0.  0.
<mgrwt>
<rscale>  0 0.12500211E+03</rscale>
<asrwt>0</asrwt>
<pdfrwt beam="1">  1        4 0.44614750E-02 0.12500211E+03</pdfrwt>
<pdfrwt beam="2">  1       -4 0.20723807E-01 0.12500211E+03</pdfrwt>
<totfact> 0.96628748E+03</totfact>
</mgrwt>
</event>
<event>
 5    1  0.3331626E-002  0.1249944E+03  0.7818608E-02  0.1235078E+00
          4   -1    0    0  501    0  0.00000000000E+00  0.00000000000E+00  0.91138261035E+01  0.92018871024E+01  0.12700000000E+01 0.  1.
         -4   -1    0    0    0  501 -0.00000000000E+00 -0.00000000000E+00 -0.42641902332E+03  0.42642091453E+03  0.12700000000E+01 0.  1.
         25    2    1    2    0    0  0.00000000000E+00  0.00000000000E+00 -0.41730519721E+03  0.43562280163E+03  0.12499439059E+03 0.  0.
    9000005    1    3    3    0    0  0.27147928587E+02  0.72140489750E+01 -0.14112946600E+02  0.31451991843E+02  0.10000000000E+01 0.  0.
    9000005    1    3    3    0    0 -0.27147928587E+02 -0.72140489750E+01 -0.40319225061E+03  0.40417080979E+03  0.10000000000E+01 0.  0.
<mgrwt>
<rscale>  0 0.12499439E+03</rscale>
<asrwt>0</asrwt>
<pdfrwt beam="1">  1        4 0.14090468E-02 0.12499439E+03</pdfrwt>
<pdfrwt beam="2">  1       -4 0.65609831E-01 0.12499439E+03</pdfrwt>
<totfact> 0.61237184E+03</totfact>
</mgrwt>
</event>
<event>
 5    1  0.3331626E-002  0.1249971E+03  0.7818608E-02  0.1235074E+00
          4   -1    0    0  501    0  0.00000000000E+00  0.00000000000E+00  0.22246981048E+03  0.22247343543E+03  0.12700000000E+01 0. -1.
         -4   -1    0    0    0  501 -0.00000000000E+00 -0.00000000000E+00 -0.17531018481E+02  0.17576959606E+02  0.12700000000E+01 0. -1.
         25    2    1    2    0    0  0.00000000000E+00  0.00000000000E+00  0.20493879199E+03  0.24005039504E+03  0.12499713474E+03 0.  0.
    9000005    1    3    3    0    0 -0.18884972684E+02 -0.23633567051E+01  0.21677784642E+03  0.21761402149E+03  0.10000000000E+01 0.  0.
    9000005    1    3    3    0    0  0.18884972684E+02  0.23633567051E+01 -0.11839054430E+02  0.22436373548E+02  0.10000000000E+01 0.  0.
<mgrwt>
<rscale>  0 0.12499713E+03</rscale>
<asrwt>0</asrwt>
<pdfrwt beam="1">  1        4 0.34229933E-01 0.12499713E+03</pdfrwt>
<pdfrwt beam="2">  1       -4 0.27008929E-02 0.12499713E+03</pdfrwt>
<totfact> 0.83795218E+03</totfact>
</mgrwt>
</event>
<event>
 5    1  0.3331626E-002  0.1250070E+03  0.7818608E-02  0.1235058E+00
         -4   -1    0    0    0  501 -0.00000000000E+00  0.00000000000E+00  0.18803501270E+03  0.18803930148E+03  0.12700000000E+01 0. -1.
          4   -1    0    0  501    0  0.00000000000E+00 -0.00000000000E+00 -0.20752446421E+02  0.20791270583E+02  0.12700000000E+01 0. -1.
         25    2    1    2    0    0  0.00000000000E+00  0.00000000000E+00  0.16728256628E+03  0.20883057206E+03  0.12500700319E+03 0.  0.
    9000005    1    3    3    0    0  0.44408233591E+02 -0.16180301032E+02  0.15336492883E+02  0.49700114347E+02  0.10000000000E+01 0.  0.
    9000005    1    3    3    0    0 -0.44408233591E+02  0.16180301032E+02  0.15194607339E+03  0.15913045771E+03  0.10000000000E+01 0.  0.
<mgrwt>
<rscale>  0 0.12500700E+03</rscale>
<asrwt>0</asrwt>
<pdfrwt beam="2">  1        4 0.31960004E-02 0.12500700E+03</pdfrwt>
<pdfrwt beam="1">  1       -4 0.28931780E-01 0.12500700E+03</pdfrwt>
<totfact> 0.88653337E+03</totfact>
</mgrwt>
</event>
<event>
 5    1  0.3331626E-002  0.1249945E+03  0.7818608E-02  0.1235078E+00
         -4   -1    0    0    0  501 -0.00000000000E+00  0.00000000000E+00  0.14951693110E+03  0.14952232471E+03  0.12700000000E+01 0. -1.
          4   -1    0    0  501    0  0.00000000000E+00 -0.00000000000E+00 -0.26102188204E+02  0.26133065818E+02  0.12700000000E+01 0. -1.
         25    2    1    2    0    0  0.00000000000E+00  0.00000000000E+00  0.12341474290E+03  0.17565539053E+03  0.12499446970E+03 0.  0.
    9000005    1    3    3    0    0 -0.23931474411E+02  0.22995414589E+02 -0.12699527181E+02  0.35549719411E+02  0.10000000000E+01 0.  0.
    9000005    1    3    3    0    0  0.23931474411E+02 -0.22995414589E+02  0.13611427008E+03  0.14010567112E+03  0.10000000000E+01 0.  0.
<mgrwt>
<rscale>  0 0.12499447E+03</rscale>
<asrwt>0</asrwt>
<pdfrwt beam="2">  1        4 0.40185115E-02 0.12499447E+03</pdfrwt>
<pdfrwt beam="1">  1       -4 0.23005394E-01 0.12499447E+03</pdfrwt>
<totfact> 0.94416657E+03</totfact>
</mgrwt>
</event>
<event>
 4    1  0.3331626E-002  0.1249116E+03  0.7818608E-02  0.1235208E+00
         -4   -1    0    0    0  501 -0.00000000000E+00  0.00000000000E+00  0.14426610709E+03  0.14427169700E+03  0.12700000000E+01 0. -1.
          4   -1    0    0  501    0  0.00000000000E+00 -0.00000000000E+00 -0.27017370219E+02  0.27047203063E+02  0.12700000000E+01 0. -1.
    9000005    1    1    2    0    0  0.42038836692E+02  0.36336873738E+02  0.19539792159E+02  0.58910403674E+02  0.10000000000E+01 0.  0.
    9000005    1    1    2    0    0 -0.42038836692E+02 -0.36336873738E+02  0.97708944715E+02  0.11240849639E+03  0.10000000000E+01 0.  0.
<mgrwt>
<rscale>  0 0.12491157E+03</rscale>
<asrwt>0</asrwt>
<pdfrwt beam="2">  1        4 0.41592434E-02 0.12491157E+03</pdfrwt>
<pdfrwt beam="1">  1       -4 0.22197510E-01 0.12491157E+03</pdfrwt>
<totfact> 0.95392573E+03</totfact>
</mgrwt>
</event>
<event>
 5    1  0.3331626E-002  0.1249991E+03  0.7818608E-02  0.1235071E+00
          4   -1    0    0  501    0  0.00000000000E+00  0.00000000000E+00  0.80344873278E+03  0.80344973652E+03  0.12700000000E+01 0. -1.
         -4   -1    0    0    0  501 -0.00000000000E+00 -0.00000000000E+00 -0.47778254343E+01  0.49437350132E+01  0.12700000000E+01 0. -1.
         25    2    1    2    0    0  0.00000000000E+00  0.00000000000E+00  0.79867090735E+03  0.80839347153E+03  0.12499914627E+03 0.  0.
    9000005    1    3    3    0    0 -0.25327966748E+02  0.29180787629E+02  0.81706619521E+02  0.90388029848E+02  0.10000000000E+01 0.  0.
    9000005    1    3    3    0    0  0.25327966748E+02 -0.29180787629E+02  0.71696428783E+03  0.71800544168E+03  0.10000000000E+01 0.  0.
<mgrwt>
<rscale>  0 0.12499915E+03</rscale>
<asrwt>0</asrwt>
<pdfrwt beam="1">  1        4 0.12362035E+00 0.12499915E+03</pdfrwt>
<pdfrwt beam="2">  1       -4 0.74788949E-03 0.12499915E+03</pdfrwt>
<totfact> 0.37893458E+03</totfact>
</mgrwt>
</event>
<event>
 5    1  0.3331626E-002  0.1249986E+03  0.7818608E-02  0.1235072E+00
          4   -1    0    0  501    0  0.00000000000E+00  0.00000000000E+00  0.35522960052E+02  0.35545655021E+02  0.12700000000E+01 0.  1.
         -4   -1    0    0    0  501 -0.00000000000E+00 -0.00000000000E+00 -0.10990006015E+03  0.10990739793E+03  0.12700000000E+01 0.  1.
         25    2    1    2    0    0  0.00000000000E+00  0.00000000000E+00 -0.74377100096E+02  0.14545305296E+03  0.12499855037E+03 0.  0.
    9000005    1    3    3    0    0  0.19668792906E+02 -0.29072332200E+02  0.22973865270E+02  0.41962607157E+02  0.10000000000E+01 0.  0.
    9000005    1    3    3    0    0 -0.19668792906E+02  0.29072332200E+02 -0.97350965366E+02  0.10349044580E+03  0.10000000000E+01 0.  0.
<mgrwt>
<rscale>  0 0.12499855E+03</rscale>
<asrwt>0</asrwt>
<pdfrwt beam="1">  1        4 0.54673810E-02 0.12499855E+03</pdfrwt>
<pdfrwt beam="2">  1       -4 0.16910012E-01 0.12499855E+03</pdfrwt>
<totfact> 0.10022119E+04</totfact>
</mgrwt>
</event>
<event>
 5    1  0.3331626E-002  0.1249797E+03  0.7818608E-02  0.1235101E+00
          4   -1    0    0  501    0  0.00000000000E+00  0.00000000000E+00  0.26309736251E+02  0.26340370566E+02  0.12700000000E+01 0.  1.
         -4   -1    0    0    0  501 -0.00000000000E+00 -0.00000000000E+00 -0.14830360222E+03  0.14830903995E+03  0.12700000000E+01 0.  1.
         25    2    1    2    0    0  0.00000000000E+00  0.00000000000E+00 -0.12199386597E+03  0.17464941052E+03  0.12497965139E+03 0.  0.
    9000005    1    3    3    0    0 -0.17725224186E+02  0.56823053079E+02 -0.34448276779E+02  0.68780278472E+02  0.10000000000E+01 0.  0.
    9000005    1    3    3    0    0  0.17725224186E+02 -0.56823053079E+02 -0.87545589191E+02  0.10586913205E+03  0.10000000000E+01 0.  0.
<mgrwt>
<rscale>  0 0.12497965E+03</rscale>
<asrwt>0</asrwt>
<pdfrwt beam="1">  1        4 0.40504266E-02 0.12497965E+03</pdfrwt>
<pdfrwt beam="2">  1       -4 0.22818713E-01 0.12497965E+03</pdfrwt>
<totfact> 0.94632283E+03</totfact>
</mgrwt>
</event>
<event>
 5    1  0.3331626E-002  0.1250117E+03  0.7818608E-02  0.1235051E+00
          4   -1    0    0  501    0  0.00000000000E+00  0.00000000000E+00  0.39526886884E+01  0.41517042124E+01  0.12700000000E+01 0. -1.
         -4   -1    0    0    0  501 -0.00000000000E+00 -0.00000000000E+00 -0.96396415222E+03  0.96396498882E+03  0.12700000000E+01 0. -1.
         25    2    1    2    0    0  0.00000000000E+00  0.00000000000E+00 -0.96001146354E+03  0.96811669303E+03  0.12501168430E+03 0.  0.
    9000005    1    3    3    0    0  0.70750334265E+01 -0.62096024275E+02 -0.48069726421E+03  0.48474408934E+03  0.10000000000E+01 0.  0.
    9000005    1    3    3    0    0 -0.70750334265E+01  0.62096024275E+02 -0.47931419932E+03  0.48337260369E+03  0.10000000000E+01 0.  0.
<mgrwt>
<rscale>  0 0.12501168E+03</rscale>
<asrwt>0</asrwt>
<pdfrwt beam="1">  1        4 0.62347996E-03 0.12501168E+03</pdfrwt>
<pdfrwt beam="2">  1       -4 0.14831737E+00 0.12501168E+03</pdfrwt>
<totfact> 0.31673330E+03</totfact>
</mgrwt>
</event>
<event>
 5    1  0.3331626E-002  0.1249967E+03  0.7818608E-02  0.1235074E+00
         -4   -1    0    0    0  501 -0.00000000000E+00  0.00000000000E+00  0.22945550652E+03  0.22945902112E+03  0.12700000000E+01 0. -1.
          4   -1    0    0  501    0  0.00000000000E+00 -0.00000000000E+00 -0.16995758253E+02  0.17043142275E+02  0.12700000000E+01 0. -1.
         25    2    1    2    0    0  0.00000000000E+00  0.00000000000E+00  0.21245974827E+03  0.24650216340E+03  0.12499668765E+03 0.  0.
    9000005    1    3    3    0    0 -0.75401129016E+01  0.60879265030E+02  0.82737834530E+02  0.10300333721E+03  0.10000000000E+01 0.  0.
    9000005    1    3    3    0    0  0.75401129016E+01 -0.60879265030E+02  0.12972191374E+03  0.14349882619E+03  0.10000000000E+01 0.  0.
<mgrwt>
<rscale>  0 0.12499669E+03</rscale>
<asrwt>0</asrwt>
<pdfrwt beam="2">  1        4 0.26186473E-02 0.12499669E+03</pdfrwt>
<pdfrwt beam="1">  1       -4 0.35304763E-01 0.12499669E+03</pdfrwt>
<totfact> 0.82844530E+03</totfact>
</mgrwt>
</event>
<event>
 5    1  0.3331626E-002  0.1249968E+03  0.7818608E-02  0.1235074E+00
         -4   -1    0    0    0  501 -0.00000000000E+00  0.00000000000E+00  0.35498245537E+01  0.37701663574E+01  0.12700000000E+01 0. -1.
          4   -1    0    0  501    0  0.00000000000E+00 -0.00000000000E+00 -0.10670082241E+04  0.10670089799E+04  0.12700000000E+01 0. -1.
         25    2    1    2    0    0  0.00000000000E+00  0.00000000000E+00 -0.10634583995E+04  0.10707791462E+04  0.12499684998E+03 0.  0.
    9000005    1    3    3    0    0  0.98012309563E+01  0.61319583664E+02 -0.47182671181E+03  0.47589662895E+03  0.10000000000E+01 0.  0.
    9000005    1    3    3    0    0 -0.98012309563E+01 -0.61319583664E+02 -0.59163168771E+03  0.59488251729E+03  0.10000000000E+01 0.  0.
<mgrwt>
<rscale>  0 0.12499685E+03</rscale>
<asrwt>0</asrwt>
<pdfrwt beam="2">  1        4 0.16417187E+00 0.12499685E+03</pdfrwt>
<pdfrwt beam="1">  1       -4 0.56313521E-03 0.12499685E+03</pdfrwt>
<totfact> 0.28356730E+03</totfact>
</mgrwt>
</event>
<event>
 5    1  0.3331626E-002  0.1249967E+03  0.7818608E-02  0.1235074E+00
         -4   -1    0    0    0  501 -0.00000000000E+00  0.00000000000E+00  0.61127793286E+01  0.62433141135E+01  0.12700000000E+01 0. -1.
          4   -1    0    0  501    0  0.00000000000E+00 -0.00000000000E+00 -0.63211417866E+03  0.63211545445E+03  0.12700000000E+01 0. -1.
         25    2    1    2    0    0  0.00000000000E+00  0.00000000000E+00 -0.62600139933E+03  0.63835876857E+03  0.12499666174E+03 0.  0.
    9000005    1    3    3    0    0 -0.40106891036E+02  0.39796842252E+02 -0.17666275388E+03  0.18548067277E+03  0.10000000000E+01 0.  0.
    9000005    1    3    3    0    0  0.40106891036E+02 -0.39796842252E+02 -0.44933864545E+03  0.45287809580E+03  0.10000000000E+01 0.  0.
<mgrwt>
<rscale>  0 0.12499666E+03</rscale>
<asrwt>0</asrwt>
<pdfrwt beam="2">  1        4 0.97258423E-01 0.12499666E+03</pdfrwt>
<pdfrwt beam="1">  1       -4 0.95056736E-03 0.12499666E+03</pdfrwt>
<totfact> 0.46535875E+03</totfact>
</mgrwt>
</event>
<event>
 5    1  0.3331626E-002  0.1250014E+03  0.7818608E-02  0.1235067E+00
         -4   -1    0    0    0  501 -0.00000000000E+00  0.00000000000E+00  0.10754800059E+03  0.10755549884E+03  0.12700000000E+01 0. -1.
          4   -1    0    0  501    0  0.00000000000E+00 -0.00000000000E+00 -0.36301943514E+02  0.36324151785E+02  0.12700000000E+01 0. -1.
         25    2    1    2    0    0  0.00000000000E+00  0.00000000000E+00  0.71246057074E+02  0.14387965062E+03  0.12500141285E+03 0.  0.
    9000005    1    3    3    0    0  0.27737999274E+02  0.54812343338E+02  0.48824664798E+02  0.78476986936E+02  0.10000000000E+01 0.  0.
    9000005    1    3    3    0    0 -0.27737999274E+02 -0.54812343338E+02  0.22421392276E+02  0.65402663688E+02  0.10000000000E+01 0.  0.
<mgrwt>
<rscale>  0 0.12500141E+03</rscale>
<asrwt>0</asrwt>
<pdfrwt beam="2">  1        4 0.55871995E-02 0.12500141E+03</pdfrwt>
<pdfrwt beam="1">  1       -4 0.16548131E-01 0.12500141E+03</pdfrwt>
<totfact> 0.10053481E+04</totfact>
</mgrwt>
</event>
<event>
 5    1  0.3331626E-002  0.1250010E+03  0.7818608E-02  0.1235068E+00
         -4   -1    0    0    0  501 -0.00000000000E+00  0.00000000000E+00  0.11585474910E+03  0.11586170976E+03  0.12700000000E+01 0.  1.
          4   -1    0    0  501    0  0.00000000000E+00 -0.00000000000E+00 -0.33697406493E+02  0.33721330110E+02  0.12700000000E+01 0.  1.
         25    2    1    2    0    0  0.00000000000E+00  0.00000000000E+00  0.82157342609E+02  0.14958303987E+03  0.12500102749E+03 0.  0.
    9000005    1    3    3    0    0  0.43235792076E+02  0.45070337866E+02  0.38499569524E+02  0.73374967975E+02  0.10000000000E+01 0.  0.
    9000005    1    3    3    0    0 -0.43235792076E+02 -0.45070337866E+02  0.43657773085E+02  0.76208071899E+02  0.10000000000E+01 0.  0.
<mgrwt>
<rscale>  0 0.12500103E+03</rscale>
<asrwt>0</asrwt>
<pdfrwt beam="2">  1        4 0.51865920E-02 0.12500103E+03</pdfrwt>
<pdfrwt beam="1">  1       -4 0.17826183E-01 0.12500103E+03</pdfrwt>
<totfact> 0.99384579E+03</totfact>
</mgrwt>
</event>
<event>
 5    1  0.3331626E-002  0.1249997E+03  0.7818608E-02  0.1235070E+00
          4   -1    0    0  501    0  0.00000000000E+00  0.00000000000E+00  0.23966996725E+03  0.23967333206E+03  0.12700000000E+01 0. -1.
         -4   -1    0    0    0  501 -0.00000000000E+00 -0.00000000000E+00 -0.16270138643E+02  0.16319629636E+02  0.12700000000E+01 0. -1.
         25    2    1    2    0    0  0.00000000000E+00  0.00000000000E+00  0.22339982861E+03  0.25599296170E+03  0.12499965207E+03 0.  0.
    9000005    1    3    3    0    0  0.36732238078E+02  0.19385378838E+02  0.16076290056E+02  0.44547697234E+02  0.10000000000E+01 0.  0.
    9000005    1    3    3    0    0 -0.36732238078E+02 -0.19385378838E+02  0.20732353855E+03  0.21144526446E+03  0.10000000000E+01 0.  0.
<mgrwt>
<rscale>  0 0.12499965E+03</rscale>
<asrwt>0</asrwt>
<pdfrwt beam="1">  1        4 0.36876364E-01 0.12499965E+03</pdfrwt>
<pdfrwt beam="2">  1       -4 0.25071644E-02 0.12499965E+03</pdfrwt>
<totfact> 0.81472335E+03</totfact>
</mgrwt>
</event>
<event>
 5    1  0.3331626E-002  0.1249956E+03  0.7818608E-02  0.1235076E+00
          4   -1    0    0  501    0  0.00000000000E+00  0.00000000000E+00  0.33628288701E+03  0.33628528513E+03  0.12700000000E+01 0.  1.
         -4   -1    0    0    0  501 -0.00000000000E+00 -0.00000000000E+00 -0.11577984542E+02  0.11647430019E+02  0.12700000000E+01 0.  1.
         25    2    1    2    0    0  0.00000000000E+00  0.00000000000E+00  0.32470490247E+03  0.34793271515E+03  0.12499560226E+03 0.  0.
    9000005    1    3    3    0    0  0.37724100562E+02  0.68254895987E+01  0.24987799169E+02  0.45772100441E+02  0.10000000000E+01 0.  0.
    9000005    1    3    3    0    0 -0.37724100562E+02 -0.68254895987E+01  0.29971710330E+03  0.30216061471E+03  0.10000000000E+01 0.  0.
<mgrwt>
<rscale>  0 0.12499560E+03</rscale>
<asrwt>0</asrwt>
<pdfrwt beam="1">  1        4 0.51741359E-01 0.12499560E+03</pdfrwt>
<pdfrwt beam="2">  1       -4 0.17867547E-02 0.12499560E+03</pdfrwt>
<totfact> 0.69959388E+03</totfact>
</mgrwt>
</event>
<event>
 5    1  0.3331626E-002  0.1250011E+03  0.7818608E-02  0.1235068E+00
          4   -1    0    0  501    0  0.00000000000E+00  0.00000000000E+00  0.32421805193E+02  0.32446669351E+02  0.12700000000E+01 0.  1.
         -4   -1    0    0    0  501 -0.00000000000E+00 -0.00000000000E+00 -0.12040982262E+03  0.12041651997E+03  0.12700000000E+01 0.  1.
         25    2    1    2    0    0  0.00000000000E+00  0.00000000000E+00 -0.87988017422E+02  0.15286318932E+03  0.12500105376E+03 0.  0.
    9000005    1    3    3    0    0 -0.20394080528E+01  0.54276430261E+02 -0.81789697358E+02  0.98186784554E+02  0.10000000000E+01 0.  0.
    9000005    1    3    3    0    0  0.20394080528E+01 -0.54276430261E+02 -0.61983200641E+01  0.54676404771E+02  0.10000000000E+01 0.  0.
<mgrwt>
<rscale>  0 0.12500105E+03</rscale>
<asrwt>0</asrwt>
<pdfrwt beam="1">  1        4 0.49903979E-02 0.12500105E+03</pdfrwt>
<pdfrwt beam="2">  1       -4 0.18527016E-01 0.12500105E+03</pdfrwt>
<totfact> 0.98733655E+03</totfact>
</mgrwt>
</event>
<event>
 5    1  0.3331626E-002  0.1249829E+03  0.7818608E-02  0.1235096E+00
          4   -1    0    0  501    0  0.00000000000E+00  0.00000000000E+00  0.20076544697E+04  0.20076548714E+04  0.12700000000E+01 0. -1.
         -4   -1    0    0    0  501 -0.00000000000E+00 -0.00000000000E+00 -0.17374043815E+01  0.21520859613E+01  0.12700000000E+01 0. -1.
         25    2    1    2    0    0  0.00000000000E+00  0.00000000000E+00  0.20059170654E+04  0.20098069574E+04  0.12498293033E+03 0.  0.
    9000005    1    3    3    0    0  0.52213466730E+02  0.30866383326E+02  0.76163970812E+03  0.76405171599E+03  0.10000000000E+01 0.  0.
    9000005    1    3    3    0    0 -0.52213466730E+02 -0.30866383326E+02  0.12442773573E+04  0.12457552414E+04  0.10000000000E+01 0.  0.
<mgrwt>
<rscale>  0 0.12498293E+03</rscale>
<asrwt>0</asrwt>
<pdfrwt beam="1">  1        4 0.30890274E+00 0.12498293E+03</pdfrwt>
<pdfrwt beam="2">  1       -4 0.29922160E-03 0.12498293E+03</pdfrwt>
<totfact> 0.97373113E+02</totfact>
</mgrwt>
</event>
<event>
 5    1  0.3331626E-002  0.1249749E+03  0.7818608E-02  0.1235109E+00
          4   -1    0    0  501    0  0.00000000000E+00  0.00000000000E+00  0.66071423057E+01  0.67280925564E+01  0.12700000000E+01 0.  1.
         -4   -1    0    0    0  501 -0.00000000000E+00 -0.00000000000E+00 -0.58549680315E+03  0.58549818052E+03  0.12700000000E+01 0.  1.
         25    2    1    2    0    0  0.00000000000E+00  0.00000000000E+00 -0.57888966084E+03  0.59222627308E+03  0.12497487386E+03 0.  0.
    9000005    1    3    3    0    0  0.45110061508E+02  0.39283568367E+02 -0.37494810317E+03  0.37969092228E+03  0.10000000000E+01 0.  0.
    9000005    1    3    3    0    0 -0.45110061508E+02 -0.39283568367E+02 -0.20394155767E+03  0.21253535080E+03  0.10000000000E+01 0.  0.
<mgrwt>
<rscale>  0 0.12497487E+03</rscale>
<asrwt>0</asrwt>
<pdfrwt beam="1">  1        4 0.10258937E-02 0.12497487E+03</pdfrwt>
<pdfrwt beam="2">  1       -4 0.90085801E-01 0.12497487E+03</pdfrwt>
<totfact> 0.49389243E+03</totfact>
</mgrwt>
</event>
<event>
 5    1  0.3331626E-002  0.1250009E+03  0.7818608E-02  0.1235068E+00
          4   -1    0    0  501    0  0.00000000000E+00  0.00000000000E+00  0.26004312072E+02  0.26035305766E+02  0.12700000000E+01 0.  1.
         -4   -1    0    0    0  501 -0.00000000000E+00 -0.00000000000E+00 -0.15009444696E+03  0.15009981982E+03  0.12700000000E+01 0.  1.
         25    2    1    2    0    0  0.00000000000E+00  0.00000000000E+00 -0.12409013489E+03  0.17613512558E+03  0.12500088354E+03 0.  0.
    9000005    1    3    3    0    0 -0.53071175803E+01  0.50041015009E+02 -0.98326335511E+01  0.51283031918E+02  0.10000000000E+01 0.  0.
    9000005    1    3    3    0    0  0.53071175803E+01 -0.50041015009E+02 -0.11425750134E+03  0.12485209366E+03  0.10000000000E+01 0.  0.
<mgrwt>
<rscale>  0 0.12500088E+03</rscale>
<asrwt>0</asrwt>
<pdfrwt beam="1">  1        4 0.40034609E-02 0.12500088E+03</pdfrwt>
<pdfrwt beam="2">  1       -4 0.23094250E-01 0.12500088E+03</pdfrwt>
<totfact> 0.94315486E+03</totfact>
</mgrwt>
</event>
<event>
 5    1  0.3331626E-002  0.1249966E+03  0.7818608E-02  0.1235075E+00
         -4   -1    0    0    0  501 -0.00000000000E+00  0.00000000000E+00  0.30137423256E+03  0.30137690846E+03  0.12700000000E+01 0. -1.
          4   -1    0    0  501    0  0.00000000000E+00 -0.00000000000E+00 -0.12926905847E+02  0.12989141418E+02  0.12700000000E+01 0. -1.
         25    2    1    2    0    0  0.00000000000E+00  0.00000000000E+00  0.28844732671E+03  0.31436604988E+03  0.12499661206E+03 0.  0.
    9000005    1    3    3    0    0  0.49740313518E+02  0.37723833473E+02  0.15127097631E+03  0.16364930393E+03  0.10000000000E+01 0.  0.
    9000005    1    3    3    0    0 -0.49740313518E+02 -0.37723833473E+02  0.13717635040E+03  0.15071674595E+03  0.10000000000E+01 0.  0.
<mgrwt>
<rscale>  0 0.12499661E+03</rscale>
<asrwt>0</asrwt>
<pdfrwt beam="2">  1        4 0.19937480E-02 0.12499661E+03</pdfrwt>
<pdfrwt beam="1">  1       -4 0.46370257E-01 0.12499661E+03</pdfrwt>
<totfact> 0.73836805E+03</totfact>
</mgrwt>
</event>
<event>
 5    1  0.3331626E-002  0.1250011E+03  0.7818608E-02  0.1235068E+00
         -4   -1    0    0    0  501 -0.00000000000E+00  0.00000000000E+00  0.46039198702E+02  0.46056711966E+02  0.12700000000E+01 0.  1.
          4   -1    0    0  501    0  0.00000000000E+00 -0.00000000000E+00 -0.84809209081E+02  0.84818717539E+02  0.12700000000E+01 0.  1.
         25    2    1    2    0    0  0.00000000000E+00  0.00000000000E+00 -0.38770010378E+02  0.13087542951E+03  0.12500105737E+03 0.  0.
    9000005    1    3    3    0    0 -0.19022324014E+02 -0.59526053594E+02 -0.19741934334E+02  0.65543450005E+02  0.10000000000E+01 0.  0.
    9000005    1    3    3    0    0  0.19022324014E+02  0.59526053594E+02 -0.19028076045E+02  0.65331979500E+02  0.10000000000E+01 0.  0.
<mgrwt>
<rscale>  0 0.12500106E+03</rscale>
<asrwt>0</asrwt>
<pdfrwt beam="2">  1        4 0.13049649E-01 0.12500106E+03</pdfrwt>
<pdfrwt beam="1">  1       -4 0.70850322E-02 0.12500106E+03</pdfrwt>
<totfact> 0.10325514E+04</totfact>
</mgrwt>
</event>
<event>
 5    1  0.3331626E-002  0.1249998E+03  0.7818608E-02  0.1235070E+00
          4   -1    0    0  501    0  0.00000000000E+00  0.00000000000E+00  0.31099787854E+03  0.31100047163E+03  0.12700000000E+01 0.  1.
         -4   -1    0    0    0  501 -0.00000000000E+00 -0.00000000000E+00 -0.12525585614E+02  0.12589805200E+02  0.12700000000E+01 0.  1.
         25    2    1    2    0    0  0.00000000000E+00  0.00000000000E+00  0.29847229292E+03  0.32359027683E+03  0.12499983047E+03 0.  0.
    9000005    1    3    3    0    0  0.32942912280E+02  0.19340982771E+02  0.27726506585E+03  0.27988609437E+03  0.10000000000E+01 0.  0.
    9000005    1    3    3    0    0 -0.32942912280E+02 -0.19340982771E+02  0.21207227075E+02  0.43704182457E+02  0.10000000000E+01 0.  0.
<mgrwt>
<rscale>  0 0.12499983E+03</rscale>
<asrwt>0</asrwt>
<pdfrwt beam="1">  1        4 0.47850968E-01 0.12499983E+03</pdfrwt>
<pdfrwt beam="2">  1       -4 0.19321525E-02 0.12499983E+03</pdfrwt>
<totfact> 0.72731405E+03</totfact>
</mgrwt>
</event>
<event>
 5    1  0.3331626E-002  0.1249970E+03  0.7818608E-02  0.1235074E+00
          4   -1    0    0  501    0  0.00000000000E+00  0.00000000000E+00  0.62296474040E+02  0.62309418051E+02  0.12700000000E+01 0. -1.
         -4   -1    0    0    0  501 -0.00000000000E+00 -0.00000000000E+00 -0.62675291471E+02  0.62688157262E+02  0.12700000000E+01 0. -1.
         25    2    1    2    0    0  0.00000000000E+00  0.00000000000E+00 -0.37881743062E+00  0.12499757531E+03  0.12499700129E+03 0.  0.
    9000005    1    3    3    0    0  0.28737593304E+02  0.53814415242E+02 -0.13725423970E+02  0.62539809880E+02  0.10000000000E+01 0.  0.
    9000005    1    3    3    0    0 -0.28737593304E+02 -0.53814415242E+02  0.13346606539E+02  0.62457765432E+02  0.10000000000E+01 0.  0.
<mgrwt>
<rscale>  0 0.12499700E+03</rscale>
<asrwt>0</asrwt>
<pdfrwt beam="1">  1        4 0.95860582E-02 0.12499700E+03</pdfrwt>
<pdfrwt beam="2">  1       -4 0.96443380E-02 0.12499700E+03</pdfrwt>
<totfact> 0.10453624E+04</totfact>
</mgrwt>
</event>
<event>
 5    1  0.3331626E-002  0.1250003E+03  0.7818608E-02  0.1235069E+00
         -4   -1    0    0    0  501 -0.00000000000E+00  0.00000000000E+00  0.26547719599E+03  0.26548023371E+03  0.12700000000E+01 0. -1.
          4   -1    0    0  501    0  0.00000000000E+00 -0.00000000000E+00 -0.14683614227E+02  0.14738433661E+02  0.12700000000E+01 0. -1.
         25    2    1    2    0    0  0.00000000000E+00  0.00000000000E+00  0.25079358176E+03  0.28021866737E+03  0.12500032356E+03 0.  0.
    9000005    1    3    3    0    0  0.56685692007E+02 -0.26110075342E+02  0.13257964980E+03  0.14653793793E+03  0.10000000000E+01 0.  0.
    9000005    1    3    3    0    0 -0.56685692007E+02  0.26110075342E+02  0.11821393197E+03  0.13368072944E+03  0.10000000000E+01 0.  0.
<mgrwt>
<rscale>  0 0.12500032E+03</rscale>
<asrwt>0</asrwt>
<pdfrwt beam="2">  1        4 0.22634684E-02 0.12500032E+03</pdfrwt>
<pdfrwt beam="1">  1       -4 0.40847092E-01 0.12500032E+03</pdfrwt>
<totfact> 0.78148561E+03</totfact>
</mgrwt>
</event>
<event>
 5    1  0.3331626E-002  0.1249979E+03  0.7818608E-02  0.1235072E+00
         -4   -1    0    0    0  501 -0.00000000000E+00  0.00000000000E+00  0.84175346298E+01  0.85128014921E+01  0.12700000000E+01 0.  1.
          4   -1    0    0  501    0  0.00000000000E+00 -0.00000000000E+00 -0.46133845097E+03  0.46134019903E+03  0.12700000000E+01 0.  1.
         25    2    1    2    0    0  0.00000000000E+00  0.00000000000E+00 -0.45292091634E+03  0.46985300053E+03  0.12499794256E+03 0.  0.
    9000005    1    3    3    0    0 -0.53290915326E+02 -0.76368195898E+01 -0.34573499141E+03  0.34990273928E+03  0.10000000000E+01 0.  0.
    9000005    1    3    3    0    0  0.53290915326E+02  0.76368195898E+01 -0.10718592493E+03  0.11995026125E+03  0.10000000000E+01 0.  0.
<mgrwt>
<rscale>  0 0.12499794E+03</rscale>
<asrwt>0</asrwt>
<pdfrwt beam="2">  1        4 0.70982590E-01 0.12499794E+03</pdfrwt>
<pdfrwt beam="1">  1       -4 0.13024684E-02 0.12499794E+03</pdfrwt>
<totfact> 0.58284348E+03</totfact>
</mgrwt>
</event>
<event>
 5    1  0.3331626E-002  0.1249878E+03  0.7818608E-02  0.1235088E+00
          4   -1    0    0  501    0  0.00000000000E+00  0.00000000000E+00  0.56209937802E+02  0.56224283079E+02  0.12700000000E+01 0.  1.
         -4   -1    0    0    0  501 -0.00000000000E+00 -0.00000000000E+00 -0.69451367531E+02  0.69462978283E+02  0.12700000000E+01 0.  1.
         25    2    1    2    0    0  0.00000000000E+00  0.00000000000E+00 -0.13241429729E+02  0.12568726136E+03  0.12498780823E+03 0.  0.
    9000005    1    3    3    0    0  0.10304526951E+02  0.45055848621E+02 -0.48906904095E+02  0.67298573824E+02  0.10000000000E+01 0.  0.
    9000005    1    3    3    0    0 -0.10304526951E+02 -0.45055848621E+02  0.35665474366E+02  0.58388687537E+02  0.10000000000E+01 0.  0.
<mgrwt>
<rscale>  0 0.12498781E+03</rscale>
<asrwt>0</asrwt>
<pdfrwt beam="1">  1        4 0.86496793E-02 0.12498781E+03</pdfrwt>
<pdfrwt beam="2">  1       -4 0.10686822E-01 0.12498781E+03</pdfrwt>
<totfact> 0.10440696E+04</totfact>
</mgrwt>
</event>
<event>
 5    1  0.3331626E-002  0.1250077E+03  0.7818608E-02  0.1235057E+00
         -4   -1    0    0    0  501 -0.00000000000E+00  0.00000000000E+00  0.46533637622E+02  0.46550964870E+02  0.12700000000E+01 0. -1.
          4   -1    0    0  501    0  0.00000000000E+00 -0.00000000000E+00 -0.83917233400E+02  0.83926842914E+02  0.12700000000E+01 0. -1.
         25    2    1    2    0    0  0.00000000000E+00  0.00000000000E+00 -0.37383595778E+02  0.13047780778E+03  0.12500770013E+03 0.  0.
    9000005    1    3    3    0    0  0.61532345414E+02 -0.10803287375E+02 -0.16948152329E+02  0.64739326670E+02  0.10000000000E+01 0.  0.
    9000005    1    3    3    0    0 -0.61532345414E+02  0.10803287375E+02 -0.20435443449E+02  0.65738481115E+02  0.10000000000E+01 0.  0.
<mgrwt>
<rscale>  0 0.12500770E+03</rscale>
<asrwt>0</asrwt>
<pdfrwt beam="2">  1        4 0.12912416E-01 0.12500770E+03</pdfrwt>
<pdfrwt beam="1">  1       -4 0.71610932E-02 0.12500770E+03</pdfrwt>
<totfact> 0.10332501E+04</totfact>
</mgrwt>
</event>
<event>
 5    1  0.3331626E-002  0.1249952E+03  0.7818608E-02  0.1235077E+00
         -4   -1    0    0    0  501 -0.00000000000E+00  0.00000000000E+00  0.96350782861E+01  0.97184172363E+01  0.12700000000E+01 0.  1.
          4   -1    0    0  501    0  0.00000000000E+00 -0.00000000000E+00 -0.40355868154E+03  0.40356067988E+03  0.12700000000E+01 0.  1.
         25    2    1    2    0    0  0.00000000000E+00  0.00000000000E+00 -0.39392360325E+03  0.41327909712E+03  0.12499522756E+03 0.  0.
    9000005    1    3    3    0    0  0.24793151971E+02 -0.57051143542E+02 -0.21663904509E+03  0.22539522892E+03  0.10000000000E+01 0.  0.
    9000005    1    3    3    0    0 -0.24793151971E+02  0.57051143542E+02 -0.17728455816E+03  0.18788386819E+03  0.10000000000E+01 0.  0.
<mgrwt>
<rscale>  0 0.12499523E+03</rscale>
<asrwt>0</asrwt>
<pdfrwt beam="2">  1        4 0.62092502E-01 0.12499523E+03</pdfrwt>
<pdfrwt beam="1">  1       -4 0.14888845E-02 0.12499523E+03</pdfrwt>
<totfact> 0.63288120E+03</totfact>
</mgrwt>
</event>
<event>
 5    1  0.3331626E-002  0.1250002E+03  0.7818608E-02  0.1235069E+00
         -4   -1    0    0    0  501 -0.00000000000E+00  0.00000000000E+00  0.24997030545E+03  0.24997353161E+03  0.12700000000E+01 0. -1.
          4   -1    0    0  501    0  0.00000000000E+00 -0.00000000000E+00 -0.15597775652E+02  0.15649393128E+02  0.12700000000E+01 0. -1.
         25    2    1    2    0    0  0.00000000000E+00  0.00000000000E+00  0.23437252979E+03  0.26562292474E+03  0.12500022169E+03 0.  0.
    9000005    1    3    3    0    0 -0.25638332946E+02 -0.52484865090E+02  0.69990726805E+02  0.91168454076E+02  0.10000000000E+01 0.  0.
    9000005    1    3    3    0    0  0.25638332946E+02  0.52484865090E+02  0.16438180299E+03  0.17445447066E+03  0.10000000000E+01 0.  0.
<mgrwt>
<rscale>  0 0.12500022E+03</rscale>
<asrwt>0</asrwt>
<pdfrwt beam="2">  1        4 0.24038768E-02 0.12500022E+03</pdfrwt>
<pdfrwt beam="1">  1       -4 0.38461185E-01 0.12500022E+03</pdfrwt>
<totfact> 0.80122989E+03</totfact>
</mgrwt>
</event>
<event>
 4    1  0.3331626E-002  0.1249199E+03  0.7818608E-02  0.1235195E+00
          4   -1    0    0  501    0  0.00000000000E+00  0.00000000000E+00  0.76768150548E+02  0.76778654837E+02  0.12700000000E+01 0.  1.
         -4   -1    0    0    0  501 -0.00000000000E+00 -0.00000000000E+00 -0.50796611922E+02  0.50812485501E+02  0.12700000000E+01 0.  1.
    9000005    1    1    2    0    0 -0.26832640135E+02  0.27052016980E+02  0.63525611075E+02  0.74083098354E+02  0.10000000000E+01 0.  0.
    9000005    1    1    2    0    0  0.26832640135E+02 -0.27052016980E+02 -0.37554072450E+02  0.53508041983E+02  0.10000000000E+01 0.  0.
<mgrwt>
<rscale>  0 0.12491989E+03</rscale>
<asrwt>0</asrwt>
<pdfrwt beam="1">  1        4 0.11812514E-01 0.12491989E+03</pdfrwt>
<pdfrwt beam="2">  1       -4 0.78168925E-02 0.12491989E+03</pdfrwt>
<totfact> 0.10415151E+04</totfact>
</mgrwt>
</event>
<event>
 5    1  0.3331626E-002  0.1250012E+03  0.7818608E-02  0.1235067E+00
          4   -1    0    0  501    0  0.00000000000E+00  0.00000000000E+00  0.86301688524E+02  0.86311032563E+02  0.12700000000E+01 0. -1.
         -4   -1    0    0    0  501 -0.00000000000E+00 -0.00000000000E+00 -0.45242877490E+02  0.45260698885E+02  0.12700000000E+01 0. -1.
         25    2    1    2    0    0  0.00000000000E+00  0.00000000000E+00  0.41058811034E+02  0.13157173145E+03  0.12500117821E+03 0.  0.
    9000005    1    3    3    0    0 -0.42307007079E+02  0.29566505996E+02 -0.16554059174E+02  0.54213448515E+02  0.10000000000E+01 0.  0.
    9000005    1    3    3    0    0  0.42307007079E+02 -0.29566505996E+02  0.57612870208E+02  0.77358282933E+02  0.10000000000E+01 0.  0.
<mgrwt>
<rscale>  0 0.12500118E+03</rscale>
<asrwt>0</asrwt>
<pdfrwt beam="1">  1        4 0.13279272E-01 0.12500118E+03</pdfrwt>
<pdfrwt beam="2">  1       -4 0.69625324E-02 0.12500118E+03</pdfrwt>
<totfact> 0.10310574E+04</totfact>
</mgrwt>
</event>
<event>
 5    1  0.3331626E-002  0.1249995E+03  0.7818608E-02  0.1235070E+00
         -4   -1    0    0    0  501 -0.00000000000E+00  0.00000000000E+00  0.14832274428E+02  0.14886546433E+02  0.12700000000E+01 0.  1.
          4   -1    0    0  501    0  0.00000000000E+00 -0.00000000000E+00 -0.26282259401E+03  0.26282566241E+03  0.12700000000E+01 0.  1.
         25    2    1    2    0    0  0.00000000000E+00  0.00000000000E+00 -0.24799031958E+03  0.27771220884E+03  0.12499948934E+03 0.  0.
    9000005    1    3    3    0    0  0.35738515069E+02  0.10921562442E+02 -0.12716788354E+02  0.39487196552E+02  0.10000000000E+01 0.  0.
    9000005    1    3    3    0    0 -0.35738515069E+02 -0.10921562442E+02 -0.23527353123E+03  0.23822501229E+03  0.10000000000E+01 0.  0.
<mgrwt>
<rscale>  0 0.12499949E+03</rscale>
<asrwt>0</asrwt>
<pdfrwt beam="2">  1        4 0.40438653E-01 0.12499949E+03</pdfrwt>
<pdfrwt beam="1">  1       -4 0.22862994E-02 0.12499949E+03</pdfrwt>
<totfact> 0.78483323E+03</totfact>
</mgrwt>
</event>
<event>
 5    1  0.3331626E-002  0.1250003E+03  0.7818608E-02  0.1235069E+00
         -4   -1    0    0    0  501 -0.00000000000E+00  0.00000000000E+00  0.38912535435E+02  0.38933254603E+02  0.12700000000E+01 0. -1.
          4   -1    0    0  501    0  0.00000000000E+00 -0.00000000000E+00 -0.10033436847E+03  0.10034240578E+03  0.12700000000E+01 0. -1.
         25    2    1    2    0    0  0.00000000000E+00  0.00000000000E+00 -0.61421833039E+02  0.13927566038E+03  0.12500027200E+03 0.  0.
    9000005    1    3    3    0    0  0.16917587021E+02 -0.16851356367E+02 -0.95056435839E+02  0.98014789478E+02  0.10000000000E+01 0.  0.
    9000005    1    3    3    0    0 -0.16917587021E+02  0.16851356367E+02  0.33634602801E+02  0.41260870902E+02  0.10000000000E+01 0.  0.
<mgrwt>
<rscale>  0 0.12500027E+03</rscale>
<asrwt>0</asrwt>
<pdfrwt beam="2">  1        4 0.15438269E-01 0.12500027E+03</pdfrwt>
<pdfrwt beam="1">  1       -4 0.59887560E-02 0.12500027E+03</pdfrwt>
<totfact> 0.10148558E+04</totfact>
</mgrwt>
</event>
<event>
 5    1  0.3331626E-002  0.1250020E+03  0.7818608E-02  0.1235066E+00
         -4   -1    0    0    0  501 -0.00000000000E+00  0.00000000000E+00  0.55887253798E+02  0.55901681880E+02  0.12700000000E+01 0. -1.
          4   -1    0    0  501    0  0.00000000000E+00 -0.00000000000E+00 -0.69868242909E+02  0.69879784396E+02  0.12700000000E+01 0. -1.
         25    2    1    2    0    0  0.00000000000E+00  0.00000000000E+00 -0.13980989111E+02  0.12578146628E+03  0.12500203679E+03 0.  0.
    9000005    1    3    3    0    0 -0.48593475618E+02  0.38421352698E+02 -0.15279033096E+02  0.63812029180E+02  0.10000000000E+01 0.  0.
    9000005    1    3    3    0    0  0.48593475618E+02 -0.38421352698E+02  0.12980439845E+01  0.61969437096E+02  0.10000000000E+01 0.  0.
<mgrwt>
<rscale>  0 0.12500204E+03</rscale>
<asrwt>0</asrwt>
<pdfrwt beam="2">  1        4 0.10750958E-01 0.12500204E+03</pdfrwt>
<pdfrwt beam="1">  1       -4 0.86000367E-02 0.12500204E+03</pdfrwt>
<totfact> 0.10435273E+04</totfact>
</mgrwt>
</event>
<event>
 5    1  0.3331626E-002  0.1250002E+03  0.7818608E-02  0.1235069E+00
         -4   -1    0    0    0  501 -0.00000000000E+00  0.00000000000E+00  0.75457157981E+01  0.76518446734E+01  0.12700000000E+01 0.  1.
          4   -1    0    0  501    0  0.00000000000E+00 -0.00000000000E+00 -0.51395744419E+03  0.51395901329E+03  0.12700000000E+01 0.  1.
         25    2    1    2    0    0  0.00000000000E+00  0.00000000000E+00 -0.50641172839E+03  0.52161085796E+03  0.12500019396E+03 0.  0.
    9000005    1    3    3    0    0  0.40454241037E+02 -0.43730046772E+02 -0.33198378018E+03  0.33728784875E+03  0.10000000000E+01 0.  0.
    9000005    1    3    3    0    0 -0.40454241037E+02  0.43730046772E+02 -0.17442794821E+03  0.18432300921E+03  0.10000000000E+01 0.  0.
<mgrwt>
<rscale>  0 0.12500019E+03</rscale>
<asrwt>0</asrwt>
<pdfrwt beam="2">  1        4 0.79078633E-01 0.12500019E+03</pdfrwt>
<pdfrwt beam="1">  1       -4 0.11691642E-02 0.12500019E+03</pdfrwt>
<totfact> 0.54225549E+03</totfact>
</mgrwt>
</event>
<event>
 5    1  0.3331626E-002  0.1250024E+03  0.7818608E-02  0.1235065E+00
          4   -1    0    0  501    0  0.00000000000E+00  0.00000000000E+00  0.31204400895E+02  0.31230234312E+02  0.12700000000E+01 0.  1.
         -4   -1    0    0    0  501 -0.00000000000E+00 -0.00000000000E+00 -0.12510667978E+03  0.12511312572E+03  0.12700000000E+01 0.  1.
         25    2    1    2    0    0  0.00000000000E+00  0.00000000000E+00 -0.93902278888E+02  0.15634336003E+03  0.12500243295E+03 0.  0.
    9000005    1    3    3    0    0  0.16645532417E+02  0.28731327679E+02 -0.11316670012E+03  0.11794178630E+03  0.10000000000E+01 0.  0.
    9000005    1    3    3    0    0 -0.16645532417E+02 -0.28731327679E+02  0.19264421229E+02  0.38401573730E+02  0.10000000000E+01 0.  0.
<mgrwt>
<rscale>  0 0.12500243E+03</rscale>
<asrwt>0</asrwt>
<pdfrwt beam="1">  1        4 0.48031602E-02 0.12500243E+03</pdfrwt>
<pdfrwt beam="2">  1       -4 0.19249664E-01 0.12500243E+03</pdfrwt>
<totfact> 0.98047060E+03</totfact>
</mgrwt>
</event>
<event>
 5    1  0.3331626E-002  0.1250016E+03  0.7818608E-02  0.1235067E+00
          4   -1    0    0  501    0  0.00000000000E+00  0.00000000000E+00  0.85049738656E+02  0.85059220226E+02  0.12700000000E+01 0. -1.
         -4   -1    0    0    0  501 -0.00000000000E+00 -0.00000000000E+00 -0.45909364385E+02  0.45926927159E+02  0.12700000000E+01 0. -1.
         25    2    1    2    0    0  0.00000000000E+00  0.00000000000E+00  0.39140374271E+02  0.13098614739E+03  0.12500160762E+03 0.  0.
    9000005    1    3    3    0    0  0.27735100412E+02  0.39054621793E+02 -0.22486734631E+02  0.52925915321E+02  0.10000000000E+01 0.  0.
    9000005    1    3    3    0    0 -0.27735100412E+02 -0.39054621793E+02  0.61627108902E+02  0.78060232064E+02  0.10000000000E+01 0.  0.
<mgrwt>
<rscale>  0 0.12500161E+03</rscale>
<asrwt>0</asrwt>
<pdfrwt beam="1">  1        4 0.13086655E-01 0.12500161E+03</pdfrwt>
<pdfrwt beam="2">  1       -4 0.70650595E-02 0.12500161E+03</pdfrwt>
<totfact> 0.10323012E+04</totfact>
</mgrwt>
</event>
<event>
 5    1  0.3331626E-002  0.1250041E+03  0.7818608E-02  0.1235063E+00
         -4   -1    0    0    0  501 -0.00000000000E+00  0.00000000000E+00  0.69140798597E+02  0.69152461494E+02  0.12700000000E+01 0.  1.
          4   -1    0    0  501    0  0.00000000000E+00 -0.00000000000E+00 -0.56477140671E+02  0.56491418095E+02  0.12700000000E+01 0.  1.
         25    2    1    2    0    0  0.00000000000E+00  0.00000000000E+00  0.12663657926E+02  0.12564387959E+03  0.12500406492E+03 0.  0.
    9000005    1    3    3    0    0  0.58757713213E+02 -0.19891437938E+02 -0.12809653155E+01  0.62054645574E+02  0.10000000000E+01 0.  0.
    9000005    1    3    3    0    0 -0.58757713213E+02  0.19891437938E+02  0.13944623242E+02  0.63589234015E+02  0.10000000000E+01 0.  0.
<mgrwt>
<rscale>  0 0.12500406E+03</rscale>
<asrwt>0</asrwt>
<pdfrwt beam="2">  1        4 0.86907863E-02 0.12500406E+03</pdfrwt>
<pdfrwt beam="1">  1       -4 0.10639041E-01 0.12500406E+03</pdfrwt>
<totfact> 0.10437823E+04</totfact>
</mgrwt>
</event>
<event>
 5    1  0.3331626E-002  0.1249766E+03  0.7818608E-02  0.1235106E+00
          4   -1    0    0  501    0  0.00000000000E+00  0.00000000000E+00  0.97054674180E+02  0.97062983059E+02  0.12700000000E+01 0. -1.
         -4   -1    0    0    0  501 -0.00000000000E+00 -0.00000000000E+00 -0.40212816971E+02  0.40232866524E+02  0.12700000000E+01 0. -1.
         25    2    1    2    0    0  0.00000000000E+00  0.00000000000E+00  0.56841857209E+02  0.13729584958E+03  0.12497661214E+03 0.  0.
    9000005    1    3    3    0    0 -0.58460976906E+02 -0.19329086145E+02  0.16769378806E+02  0.63824066445E+02  0.10000000000E+01 0.  0.
    9000005    1    3    3    0    0  0.58460976906E+02  0.19329086145E+02  0.40072478403E+02  0.73471783137E+02  0.10000000000E+01 0.  0.
<mgrwt>
<rscale>  0 0.12497661E+03</rscale>
<asrwt>0</asrwt>
<pdfrwt beam="1">  1        4 0.14933670E-01 0.12497661E+03</pdfrwt>
<pdfrwt beam="2">  1       -4 0.61887687E-02 0.12497661E+03</pdfrwt>
<totfact> 0.10195279E+04</totfact>
</mgrwt>
</event>
<event>
 5    1  0.3331626E-002  0.1249981E+03  0.7818608E-02  0.1235072E+00
          4   -1    0    0  501    0  0.00000000000E+00  0.00000000000E+00  0.13069090834E+01  0.18223367834E+01  0.12700000000E+01 0. -1.
         -4   -1    0    0    0  501 -0.00000000000E+00 -0.00000000000E+00 -0.24960150795E+04  0.24960154026E+04  0.12700000000E+01 0. -1.
         25    2    1    2    0    0  0.00000000000E+00  0.00000000000E+00 -0.24947081704E+04  0.24978377394E+04  0.12499806686E+03 0.  0.
    9000005    1    3    3    0    0  0.58996703113E+01  0.34812047558E+02 -0.21702794465E+03  0.21988363633E+03  0.10000000000E+01 0.  0.
    9000005    1    3    3    0    0 -0.58996703113E+01 -0.34812047558E+02 -0.22776802258E+04  0.22779541031E+04  0.10000000000E+01 0.  0.
<mgrwt>
<rscale>  0 0.12499807E+03</rscale>
<asrwt>0</asrwt>
<pdfrwt beam="1">  1        4 0.24073807E-03 0.12499807E+03</pdfrwt>
<pdfrwt beam="2">  1       -4 0.38403881E+00 0.12499807E+03</pdfrwt>
<totfact> 0.46867216E+02</totfact>
</mgrwt>
</event>
<event>
 5    1  0.3331626E-002  0.1249942E+03  0.7818608E-02  0.1235078E+00
          4   -1    0    0  501    0  0.00000000000E+00  0.00000000000E+00  0.37427052886E+01  0.39523085504E+01  0.12700000000E+01 0.  1.
         -4   -1    0    0    0  501 -0.00000000000E+00 -0.00000000000E+00 -0.10149635290E+04  0.10149643236E+04  0.12700000000E+01 0.  1.
         25    2    1    2    0    0  0.00000000000E+00  0.00000000000E+00 -0.10112208237E+04  0.10189166321E+04  0.12499419540E+03 0.  0.
    9000005    1    3    3    0    0 -0.14709056785E+02  0.55603120957E+02 -0.70475654419E+03  0.70710031112E+03  0.10000000000E+01 0.  0.
    9000005    1    3    3    0    0  0.14709056785E+02 -0.55603120957E+02 -0.30646427952E+03  0.31181632099E+03  0.10000000000E+01 0.  0.
<mgrwt>
<rscale>  0 0.12499420E+03</rscale>
<asrwt>0</asrwt>
<pdfrwt beam="1">  1        4 0.59198607E-03 0.12499420E+03</pdfrwt>
<pdfrwt beam="2">  1       -4 0.15616421E+00 0.12499420E+03</pdfrwt>
<totfact> 0.29989325E+03</totfact>
</mgrwt>
</event>
<event>
 5    1  0.3331626E-002  0.1250006E+03  0.7818608E-02  0.1235068E+00
          4   -1    0    0  501    0  0.00000000000E+00  0.00000000000E+00  0.37197201795E+03  0.37197418598E+03  0.12700000000E+01 0.  1.
         -4   -1    0    0    0  501 -0.00000000000E+00 -0.00000000000E+00 -0.10460966677E+02  0.10537776038E+02  0.12700000000E+01 0.  1.
         25    2    1    2    0    0  0.00000000000E+00  0.00000000000E+00  0.36151105127E+03  0.38251196202E+03  0.12500064359E+03 0.  0.
    9000005    1    3    3    0    0  0.19317234790E+02  0.51013295024E+02  0.27406430266E+03  0.27944186125E+03  0.10000000000E+01 0.  0.
    9000005    1    3    3    0    0 -0.19317234790E+02 -0.51013295024E+02  0.87446748616E+02  0.10307010077E+03  0.10000000000E+01 0.  0.
<mgrwt>
<rscale>  0 0.12500064E+03</rscale>
<asrwt>0</asrwt>
<pdfrwt beam="1">  1        4 0.57232546E-01 0.12500064E+03</pdfrwt>
<pdfrwt beam="2">  1       -4 0.16154545E-02 0.12500064E+03</pdfrwt>
<totfact> 0.66289003E+03</totfact>
</mgrwt>
</event>
<event>
 5    1  0.3331626E-002  0.1250078E+03  0.7818608E-02  0.1235057E+00
         -4   -1    0    0    0  501 -0.00000000000E+00  0.00000000000E+00  0.77296548483E+02  0.77306980974E+02  0.12700000000E+01 0. -1.
          4   -1    0    0  501    0  0.00000000000E+00 -0.00000000000E+00 -0.50520343451E+02  0.50536303806E+02  0.12700000000E+01 0. -1.
         25    2    1    2    0    0  0.00000000000E+00  0.00000000000E+00  0.26776205032E+02  0.12784328478E+03  0.12500776099E+03 0.  0.
    9000005    1    3    3    0    0 -0.56200042365E+02  0.25287107058E+02  0.24008875260E+02  0.66146115808E+02  0.10000000000E+01 0.  0.
    9000005    1    3    3    0    0  0.56200042365E+02 -0.25287107058E+02  0.27673297718E+01  0.61697168973E+02  0.10000000000E+01 0.  0.
<mgrwt>
<rscale>  0 0.12500776E+03</rscale>
<asrwt>0</asrwt>
<pdfrwt beam="2">  1        4 0.77743908E-02 0.12500776E+03</pdfrwt>
<pdfrwt beam="1">  1       -4 0.11893807E-01 0.12500776E+03</pdfrwt>
<totfact> 0.10389053E+04</totfact>
</mgrwt>
</event>
<event>
 5    1  0.3331626E-002  0.1250006E+03  0.7818608E-02  0.1235068E+00
          4   -1    0    0  501    0  0.00000000000E+00  0.00000000000E+00  0.16275964922E+02  0.16325438252E+02  0.12700000000E+01 0.  1.
         -4   -1    0    0    0  501 -0.00000000000E+00 -0.00000000000E+00 -0.23958793387E+03  0.23959129983E+03  0.12700000000E+01 0.  1.
         25    2    1    2    0    0  0.00000000000E+00  0.00000000000E+00 -0.22331196895E+03  0.25591673809E+03  0.12500056543E+03 0.  0.
    9000005    1    3    3    0    0 -0.17222137042E+02  0.38562284022E+02 -0.20595820192E+03  0.21024612409E+03  0.10000000000E+01 0.  0.
    9000005    1    3    3    0    0  0.17222137042E+02 -0.38562284022E+02 -0.17353767025E+02  0.45670614001E+02  0.10000000000E+01 0.  0.
<mgrwt>
<rscale>  0 0.12500057E+03</rscale>
<asrwt>0</asrwt>
<pdfrwt beam="1">  1        4 0.25080593E-02 0.12500057E+03</pdfrwt>
<pdfrwt beam="2">  1       -4 0.36863744E-01 0.12500057E+03</pdfrwt>
<totfact> 0.81481501E+03</totfact>
</mgrwt>
</event>
<event>
 5    1  0.3331626E-002  0.1249974E+03  0.7818608E-02  0.1235073E+00
          4   -1    0    0  501    0  0.00000000000E+00  0.00000000000E+00  0.21853893110E+03  0.21854262126E+03  0.12700000000E+01 0.  1.
         -4   -1    0    0    0  501 -0.00000000000E+00 -0.00000000000E+00 -0.17847249381E+02  0.17892378558E+02  0.12700000000E+01 0.  1.
         25    2    1    2    0    0  0.00000000000E+00  0.00000000000E+00  0.20069168172E+03  0.23643499981E+03  0.12499743208E+03 0.  0.
    9000005    1    3    3    0    0 -0.18140051206E+02 -0.58841936291E+02  0.12051111593E+03  0.13533426760E+03  0.10000000000E+01 0.  0.
    9000005    1    3    3    0    0  0.18140051206E+02  0.58841936291E+02  0.80180565792E+02  0.10110073222E+03  0.10000000000E+01 0.  0.
<mgrwt>
<rscale>  0 0.12499743E+03</rscale>
<asrwt>0</asrwt>
<pdfrwt beam="1">  1        4 0.33625130E-01 0.12499743E+03</pdfrwt>
<pdfrwt beam="2">  1       -4 0.27494859E-02 0.12499743E+03</pdfrwt>
<totfact> 0.84336019E+03</totfact>
</mgrwt>
</event>
<event>
 4    1  0.3331626E-002  0.1250892E+03  0.7818608E-02  0.1234930E+00
          4   -1    0    0  501    0  0.00000000000E+00  0.00000000000E+00  0.31566201783E+02  0.31591739347E+02  0.12700000000E+01 0.  1.
         -4   -1    0    0    0  501 -0.00000000000E+00 -0.00000000000E+00 -0.12384569866E+03  0.12385221022E+03  0.12700000000E+01 0.  1.
    9000005    1    1    2    0    0  0.59550973633E+02 -0.82729059744E+01 -0.67521868546E+02  0.90415497377E+02  0.10000000000E+01 0.  0.
    9000005    1    1    2    0    0 -0.59550973633E+02  0.82729059744E+01 -0.24757628333E+02  0.65028452193E+02  0.10000000000E+01 0.  0.
<mgrwt>
<rscale>  0 0.12508923E+03</rscale>
<asrwt>0</asrwt>
<pdfrwt beam="1">  1        4 0.48588041E-02 0.12508923E+03</pdfrwt>
<pdfrwt beam="2">  1       -4 0.19055650E-01 0.12508923E+03</pdfrwt>
<totfact> 0.98031560E+03</totfact>
</mgrwt>
</event>
<event>
 5    1  0.3331626E-002  0.1250000E+03  0.7818608E-02  0.1235069E+00
          4   -1    0    0  501    0  0.00000000000E+00  0.00000000000E+00  0.24795000019E+02  0.24827503418E+02  0.12700000000E+01 0. -1.
         -4   -1    0    0    0  501 -0.00000000000E+00 -0.00000000000E+00 -0.15740366041E+03  0.15740878378E+03  0.12700000000E+01 0. -1.
         25    2    1    2    0    0  0.00000000000E+00  0.00000000000E+00 -0.13260866039E+03  0.18223628719E+03  0.12500003024E+03 0.  0.
    9000005    1    3    3    0    0  0.26530418065E+02  0.46108800726E+02 -0.11411261405E+03  0.12590700247E+03  0.10000000000E+01 0.  0.
    9000005    1    3    3    0    0 -0.26530418065E+02 -0.46108800726E+02 -0.18496046343E+02  0.56329284723E+02  0.10000000000E+01 0.  0.
<mgrwt>
<rscale>  0 0.12500003E+03</rscale>
<asrwt>0</asrwt>
<pdfrwt beam="1">  1        4 0.38175098E-02 0.12500003E+03</pdfrwt>
<pdfrwt beam="2">  1       -4 0.24218842E-01 0.12500003E+03</pdfrwt>
<totfact> 0.93215943E+03</totfact>
</mgrwt>
</event>
<event>
 5    1  0.3331626E-002  0.1249908E+03  0.7818608E-02  0.1235084E+00
         -4   -1    0    0    0  501 -0.00000000000E+00  0.00000000000E+00  0.11151262232E+03  0.11151985400E+03  0.12700000000E+01 0.  1.
          4   -1    0    0  501    0  0.00000000000E+00 -0.00000000000E+00 -0.35004615143E+02  0.35027645958E+02  0.12700000000E+01 0.  1.
         25    2    1    2    0    0  0.00000000000E+00  0.00000000000E+00  0.76508007174E+02  0.14654749996E+03  0.12499077799E+03 0.  0.
    9000005    1    3    3    0    0  0.50328335044E+02 -0.21894863946E+02  0.32298706746E+01  0.54988711934E+02  0.10000000000E+01 0.  0.
    9000005    1    3    3    0    0 -0.50328335044E+02  0.21894863946E+02  0.73278136500E+02  0.91558788024E+02  0.10000000000E+01 0.  0.
<mgrwt>
<rscale>  0 0.12499078E+03</rscale>
<asrwt>0</asrwt>
<pdfrwt beam="2">  1        4 0.53876534E-02 0.12499078E+03</pdfrwt>
<pdfrwt beam="1">  1       -4 0.17158116E-01 0.12499078E+03</pdfrwt>
<totfact> 0.10001717E+04</totfact>
</mgrwt>
</event>
<event>
 5    1  0.3331626E-002  0.1249983E+03  0.7818608E-02  0.1235072E+00
          4   -1    0    0  501    0  0.00000000000E+00  0.00000000000E+00  0.13308421410E+03  0.13309027366E+03  0.12700000000E+01 0. -1.
         -4   -1    0    0    0  501 -0.00000000000E+00 -0.00000000000E+00 -0.29330450617E+02  0.29357933057E+02  0.12700000000E+01 0. -1.
         25    2    1    2    0    0  0.00000000000E+00  0.00000000000E+00  0.10375376348E+03  0.16244820671E+03  0.12499830570E+03 0.  0.
    9000005    1    3    3    0    0 -0.12731026309E+01  0.62426160981E+02  0.48564106115E+02  0.79108272436E+02  0.10000000000E+01 0.  0.
    9000005    1    3    3    0    0  0.12731026309E+01 -0.62426160981E+02  0.55189657367E+02  0.83339934278E+02  0.10000000000E+01 0.  0.
<mgrwt>
<rscale>  0 0.12499831E+03</rscale>
<asrwt>0</asrwt>
<pdfrwt beam="1">  1        4 0.20477074E-01 0.12499831E+03</pdfrwt>
<pdfrwt beam="2">  1       -4 0.45149573E-02 0.12499831E+03</pdfrwt>
<totfact> 0.96876545E+03</totfact>
</mgrwt>
</event>
<event>
 5    1  0.3331626E-002  0.1249970E+03  0.7818608E-02  0.1235074E+00
         -4   -1    0    0    0  501 -0.00000000000E+00  0.00000000000E+00  0.12837094347E+03  0.12837722550E+03  0.12700000000E+01 0.  1.
          4   -1    0    0  501    0  0.00000000000E+00 -0.00000000000E+00 -0.30407665490E+02  0.30434175207E+02  0.12700000000E+01 0.  1.
         25    2    1    2    0    0  0.00000000000E+00  0.00000000000E+00  0.97963277979E+02  0.15881140071E+03  0.12499702861E+03 0.  0.
    9000005    1    3    3    0    0  0.39076648812E+01  0.62336440064E+02  0.46452476038E+02  0.77845578775E+02  0.10000000000E+01 0.  0.
    9000005    1    3    3    0    0 -0.39076648812E+01 -0.62336440064E+02  0.51510801941E+02  0.80965821933E+02  0.10000000000E+01 0.  0.
<mgrwt>
<rscale>  0 0.12499703E+03</rscale>
<asrwt>0</asrwt>
<pdfrwt beam="2">  1        4 0.46806248E-02 0.12499703E+03</pdfrwt>
<pdfrwt beam="1">  1       -4 0.19751898E-01 0.12499703E+03</pdfrwt>
<totfact> 0.97578946E+03</totfact>
</mgrwt>
</event>
<event>
 5    1  0.3331626E-002  0.1249974E+03  0.7818608E-02  0.1235073E+00
         -4   -1    0    0    0  501 -0.00000000000E+00  0.00000000000E+00  0.15832712168E+02  0.15883566180E+02  0.12700000000E+01 0. -1.
          4   -1    0    0  501    0  0.00000000000E+00 -0.00000000000E+00 -0.24626185214E+03  0.24626512689E+03  0.12700000000E+01 0. -1.
         25    2    1    2    0    0  0.00000000000E+00  0.00000000000E+00 -0.23042913998E+03  0.26214869307E+03  0.12499739488E+03 0.  0.
    9000005    1    3    3    0    0  0.43233454183E+02  0.21464611219E+02 -0.31977231974E+02  0.57908587101E+02  0.10000000000E+01 0.  0.
    9000005    1    3    3    0    0 -0.43233454183E+02 -0.21464611219E+02 -0.19845190800E+03  0.20424010597E+03  0.10000000000E+01 0.  0.
<mgrwt>
<rscale>  0 0.12499739E+03</rscale>
<asrwt>0</asrwt>
<pdfrwt beam="2">  1        4 0.37890600E-01 0.12499739E+03</pdfrwt>
<pdfrwt beam="1">  1       -4 0.24399658E-02 0.12499739E+03</pdfrwt>
<totfact> 0.80610140E+03</totfact>
</mgrwt>
</event>
<event>
 5    1  0.3331626E-002  0.1249838E+03  0.7818608E-02  0.1235095E+00
         -4   -1    0    0    0  501 -0.00000000000E+00  0.00000000000E+00  0.53223802505E+01  0.54718033161E+01  0.12700000000E+01 0. -1.
          4   -1    0    0  501    0  0.00000000000E+00 -0.00000000000E+00 -0.72343211011E+03  0.72343322487E+03  0.12700000000E+01 0. -1.
         25    2    1    2    0    0  0.00000000000E+00  0.00000000000E+00 -0.71810972986E+03  0.72890502818E+03  0.12498382291E+03 0.  0.
    9000005    1    3    3    0    0  0.87416236015E+01 -0.10109905577E+02 -0.30827313679E+01  0.13752432754E+02  0.10000000000E+01 0.  0.
    9000005    1    3    3    0    0 -0.87416236015E+01  0.10109905577E+02 -0.71502699849E+03  0.71515259543E+03  0.10000000000E+01 0.  0.
<mgrwt>
<rscale>  0 0.12498382E+03</rscale>
<asrwt>0</asrwt>
<pdfrwt beam="2">  1        4 0.11130875E+00 0.12498382E+03</pdfrwt>
<pdfrwt beam="1">  1       -4 0.83040814E-03 0.12498382E+03</pdfrwt>
<totfact> 0.41618744E+03</totfact>
</mgrwt>
</event>
<event>
 5    1  0.3331626E-002  0.1249991E+03  0.7818608E-02  0.1235071E+00
          4   -1    0    0  501    0  0.00000000000E+00  0.00000000000E+00  0.29856853559E+02  0.29883851901E+02  0.12700000000E+01 0. -1.
         -4   -1    0    0    0  501 -0.00000000000E+00 -0.00000000000E+00 -0.13074161449E+03  0.13074778262E+03  0.12700000000E+01 0. -1.
         25    2    1    2    0    0  0.00000000000E+00  0.00000000000E+00 -0.10088476093E+03  0.16063163452E+03  0.12499914808E+03 0.  0.
    9000005    1    3    3    0    0  0.51513398449E+02 -0.33672302535E+02 -0.36498270647E+02  0.71558213630E+02  0.10000000000E+01 0.  0.
    9000005    1    3    3    0    0 -0.51513398449E+02  0.33672302535E+02 -0.64386490287E+02  0.89073420891E+02  0.10000000000E+01 0.  0.
<mgrwt>
<rscale>  0 0.12499915E+03</rscale>
<asrwt>0</asrwt>
<pdfrwt beam="1">  1        4 0.45959134E-02 0.12499915E+03</pdfrwt>
<pdfrwt beam="2">  1       -4 0.20116645E-01 0.12499915E+03</pdfrwt>
<totfact> 0.97223011E+03</totfact>
</mgrwt>
</event>
<event>
 5    1  0.3331626E-002  0.1249994E+03  0.7818608E-02  0.1235070E+00
          4   -1    0    0  501    0  0.00000000000E+00  0.00000000000E+00  0.16305923779E+02  0.16355306487E+02  0.12700000000E+01 0. -1.
         -4   -1    0    0    0  501 -0.00000000000E+00 -0.00000000000E+00 -0.23914475735E+03  0.23914812955E+03  0.12700000000E+01 0. -1.
         25    2    1    2    0    0  0.00000000000E+00  0.00000000000E+00 -0.22283883357E+03  0.25550343604E+03  0.12499944032E+03 0.  0.
    9000005    1    3    3    0    0  0.18426931854E+02  0.58722397583E+01 -0.23288370364E+03  0.23368751451E+03  0.10000000000E+01 0.  0.
    9000005    1    3    3    0    0 -0.18426931854E+02 -0.58722397583E+01  0.10044870070E+02  0.21815921527E+02  0.10000000000E+01 0.  0.
<mgrwt>
<rscale>  0 0.12499944E+03</rscale>
<asrwt>0</asrwt>
<pdfrwt beam="1">  1        4 0.25126619E-02 0.12499944E+03</pdfrwt>
<pdfrwt beam="2">  1       -4 0.36795556E-01 0.12499944E+03</pdfrwt>
<totfact> 0.81542278E+03</totfact>
</mgrwt>
</event>
<event>
 5    1  0.3331626E-002  0.1250432E+03  0.7818608E-02  0.1235002E+00
          4   -1    0    0  501    0  0.00000000000E+00  0.00000000000E+00  0.32997507587E+02  0.33021938268E+02  0.12700000000E+01 0. -1.
         -4   -1    0    0    0  501 -0.00000000000E+00 -0.00000000000E+00 -0.11839024123E+03  0.11839705283E+03  0.12700000000E+01 0. -1.
         25    2    1    2    0    0  0.00000000000E+00  0.00000000000E+00 -0.85392733648E+02  0.15141899110E+03  0.12504316017E+03 0.  0.
    9000005    1    3    3    0    0  0.27305491369E+02  0.40597253418E+02  0.44246939643E+01  0.49135575306E+02  0.10000000000E+01 0.  0.
    9000005    1    3    3    0    0 -0.27305491369E+02 -0.40597253418E+02 -0.89817427612E+02  0.10228341580E+03  0.10000000000E+01 0.  0.
<mgrwt>
<rscale>  0 0.12504316E+03</rscale>
<asrwt>0</asrwt>
<pdfrwt beam="1">  1        4 0.50789429E-02 0.12504316E+03</pdfrwt>
<pdfrwt beam="2">  1       -4 0.18216286E-01 0.12504316E+03</pdfrwt>
<totfact> 0.98925485E+03</totfact>
</mgrwt>
</event>
<event>
 5    1  0.3331626E-002  0.1250006E+03  0.7818608E-02  0.1235068E+00
          4   -1    0    0  501    0  0.00000000000E+00  0.00000000000E+00  0.12515358881E+02  0.12579630675E+02  0.12700000000E+01 0.  1.
         -4   -1    0    0    0  501 -0.00000000000E+00 -0.00000000000E+00 -0.31125442516E+03  0.31125701611E+03  0.12700000000E+01 0.  1.
         25    2    1    2    0    0  0.00000000000E+00  0.00000000000E+00 -0.29873906627E+03  0.32383664679E+03  0.12500057633E+03 0.  0.
    9000005    1    3    3    0    0 -0.28017410833E+02  0.55242614800E+02 -0.17082128438E+03  0.18170754799E+03  0.10000000000E+01 0.  0.
    9000005    1    3    3    0    0  0.28017410833E+02 -0.55242614800E+02 -0.12791778190E+03  0.14212909880E+03  0.10000000000E+01 0.  0.
<mgrwt>
<rscale>  0 0.12500058E+03</rscale>
<asrwt>0</asrwt>
<pdfrwt beam="1">  1        4 0.19305834E-02 0.12500058E+03</pdfrwt>
<pdfrwt beam="2">  1       -4 0.47890434E-01 0.12500058E+03</pdfrwt>
<totfact> 0.72701193E+03</totfact>
</mgrwt>
</event>
<event>
 5    1  0.3331626E-002  0.1249971E+03  0.7818608E-02  0.1235074E+00
          4   -1    0    0  501    0  0.00000000000E+00  0.00000000000E+00  0.19208980102E+03  0.19209399927E+03  0.12700000000E+01 0. -1.
         -4   -1    0    0    0  501 -0.00000000000E+00 -0.00000000000E+00 -0.20310356353E+02  0.20350023961E+02  0.12700000000E+01 0. -1.
         25    2    1    2    0    0  0.00000000000E+00  0.00000000000E+00  0.17177944466E+03  0.21244402323E+03  0.12499714155E+03 0.  0.
    9000005    1    3    3    0    0 -0.20730477267E+02  0.32559145854E+02  0.16941594571E+03  0.17376021791E+03  0.10000000000E+01 0.  0.
    9000005    1    3    3    0    0  0.20730477267E+02 -0.32559145854E+02  0.23634989482E+01  0.38683805316E+02  0.10000000000E+01 0.  0.
<mgrwt>
<rscale>  0 0.12499714E+03</rscale>
<asrwt>0</asrwt>
<pdfrwt beam="1">  1        4 0.29555652E-01 0.12499714E+03</pdfrwt>
<pdfrwt beam="2">  1       -4 0.31280444E-02 0.12499714E+03</pdfrwt>
<totfact> 0.88083915E+03</totfact>
</mgrwt>
</event>
<event>
 5    1  0.3331626E-002  0.1250029E+03  0.7818608E-02  0.1235065E+00
         -4   -1    0    0    0  501 -0.00000000000E+00  0.00000000000E+00  0.23634273191E+02  0.23668370651E+02  0.12700000000E+01 0.  1.
          4   -1    0    0  501    0  0.00000000000E+00 -0.00000000000E+00 -0.16513103595E+03  0.16513591957E+03  0.12700000000E+01 0.  1.
         25    2    1    2    0    0  0.00000000000E+00  0.00000000000E+00 -0.14149676275E+03  0.18880429022E+03  0.12500290451E+03 0.  0.
    9000005    1    3    3    0    0 -0.25342451405E+02 -0.52933991557E+02 -0.10318450732E+03  0.11871095087E+03  0.10000000000E+01 0.  0.
    9000005    1    3    3    0    0  0.25342451405E+02  0.52933991557E+02 -0.38312255439E+02  0.70093339357E+02  0.10000000000E+01 0.  0.
<mgrwt>
<rscale>  0 0.12500290E+03</rscale>
<asrwt>0</asrwt>
<pdfrwt beam="2">  1        4 0.25407773E-01 0.12500290E+03</pdfrwt>
<pdfrwt beam="1">  1       -4 0.36390407E-02 0.12500290E+03</pdfrwt>
<totfact> 0.92049792E+03</totfact>
</mgrwt>
</event>
<event>
 5    1  0.3331626E-002  0.1250009E+03  0.7818608E-02  0.1235068E+00
         -4   -1    0    0    0  501 -0.00000000000E+00  0.00000000000E+00  0.21061710565E+03  0.21062093460E+03  0.12700000000E+01 0.  1.
          4   -1    0    0  501    0  0.00000000000E+00 -0.00000000000E+00 -0.18521204099E+02  0.18564695022E+02  0.12700000000E+01 0.  1.
         25    2    1    2    0    0  0.00000000000E+00  0.00000000000E+00  0.19209590155E+03  0.22918562962E+03  0.12500086973E+03 0.  0.
    9000005    1    3    3    0    0 -0.53723190131E+02 -0.31749851917E+02  0.10214823670E+03  0.11970587503E+03  0.10000000000E+01 0.  0.
    9000005    1    3    3    0    0  0.53723190131E+02  0.31749851917E+02  0.89947664843E+02  0.10947975459E+03  0.10000000000E+01 0.  0.
<mgrwt>
<rscale>  0 0.12500087E+03</rscale>
<asrwt>0</asrwt>
<pdfrwt beam="2">  1        4 0.28530561E-02 0.12500087E+03</pdfrwt>
<pdfrwt beam="1">  1       -4 0.32406271E-01 0.12500087E+03</pdfrwt>
<totfact> 0.85433143E+03</totfact>
</mgrwt>
</event>
<event>
 5    1  0.3331626E-002  0.1250009E+03  0.7818608E-02  0.1235068E+00
         -4   -1    0    0    0  501 -0.00000000000E+00  0.00000000000E+00  0.36516231728E+02  0.36538309753E+02  0.12700000000E+01 0.  1.
          4   -1    0    0  501    0  0.00000000000E+00 -0.00000000000E+00 -0.10691633344E+03  0.10692387599E+03  0.12700000000E+01 0.  1.
         25    2    1    2    0    0  0.00000000000E+00  0.00000000000E+00 -0.70400101711E+02  0.14346218574E+03  0.12500089766E+03 0.  0.
    9000005    1    3    3    0    0  0.34960421588E+02 -0.33071503222E+02 -0.80954589482E+02  0.94183867839E+02  0.10000000000E+01 0.  0.
    9000005    1    3    3    0    0 -0.34960421588E+02  0.33071503222E+02  0.10554487771E+02  0.49278317900E+02  0.10000000000E+01 0.  0.
<mgrwt>
<rscale>  0 0.12500090E+03</rscale>
<asrwt>0</asrwt>
<pdfrwt beam="2">  1        4 0.16450945E-01 0.12500090E+03</pdfrwt>
<pdfrwt beam="1">  1       -4 0.56201604E-02 0.12500090E+03</pdfrwt>
<totfact> 0.10062124E+04</totfact>
</mgrwt>
</event>
<event>
 5    1  0.3331626E-002  0.1249955E+03  0.7818608E-02  0.1235076E+00
          4   -1    0    0  501    0  0.00000000000E+00  0.00000000000E+00  0.30707755520E+03  0.30708018140E+03  0.12700000000E+01 0.  1.
         -4   -1    0    0    0  501 -0.00000000000E+00 -0.00000000000E+00 -0.12685416892E+02  0.12748831386E+02  0.12700000000E+01 0.  1.
         25    2    1    2    0    0  0.00000000000E+00  0.00000000000E+00  0.29439213831E+03  0.31982901279E+03  0.12499546520E+03 0.  0.
    9000005    1    3    3    0    0 -0.83170388359E+01 -0.48365150704E+02  0.48209268090E+02  0.68800395838E+02  0.10000000000E+01 0.  0.
    9000005    1    3    3    0    0  0.83170388359E+01  0.48365150704E+02  0.24618287022E+03  0.25102861695E+03  0.10000000000E+01 0.  0.
<mgrwt>
<rscale>  0 0.12499547E+03</rscale>
<asrwt>0</asrwt>
<pdfrwt beam="1">  1        4 0.47247775E-01 0.12499547E+03</pdfrwt>
<pdfrwt beam="2">  1       -4 0.19566829E-02 0.12499547E+03</pdfrwt>
<totfact> 0.73183825E+03</totfact>
</mgrwt>
</event>
<event>
 5    1  0.3331626E-002  0.1250153E+03  0.7818608E-02  0.1235045E+00
          4   -1    0    0  501    0  0.00000000000E+00  0.00000000000E+00  0.65456873927E+03  0.65456997130E+03  0.12700000000E+01 0.  1.
         -4   -1    0    0    0  501 -0.00000000000E+00 -0.00000000000E+00 -0.59003287539E+01  0.60354601650E+01  0.12700000000E+01 0.  1.
         25    2    1    2    0    0  0.00000000000E+00  0.00000000000E+00  0.64866841052E+03  0.66060543147E+03  0.12501531619E+03 0.  0.
    9000005    1    3    3    0    0 -0.12927074482E+02 -0.56212638494E+02  0.45151079978E+03  0.45518125214E+03  0.10000000000E+01 0.  0.
    9000005    1    3    3    0    0  0.12927074482E+02  0.56212638494E+02  0.19715761074E+03  0.20542417933E+03  0.10000000000E+01 0.  0.
<mgrwt>
<rscale>  0 0.12501532E+03</rscale>
<asrwt>0</asrwt>
<pdfrwt beam="1">  1        4 0.10071337E+00 0.12501532E+03</pdfrwt>
<pdfrwt beam="2">  1       -4 0.91823240E-03 0.12501532E+03</pdfrwt>
<totfact> 0.45234137E+03</totfact>
</mgrwt>
</event>
<event>
 5    1  0.3331626E-002  0.1250006E+03  0.7818608E-02  0.1235068E+00
         -4   -1    0    0    0  501 -0.00000000000E+00  0.00000000000E+00  0.20930511850E+03  0.20930897145E+03  0.12700000000E+01 0. -1.
          4   -1    0    0  501    0  0.00000000000E+00 -0.00000000000E+00 -0.18637497544E+02  0.18680717725E+02  0.12700000000E+01 0. -1.
         25    2    1    2    0    0  0.00000000000E+00  0.00000000000E+00  0.19066762096E+03  0.22798968918E+03  0.12500062676E+03 0.  0.
    9000005    1    3    3    0    0  0.31153932804E+02  0.30452760556E+02  0.17705123625E+03  0.18233507181E+03  0.10000000000E+01 0.  0.
    9000005    1    3    3    0    0 -0.31153932804E+02 -0.30452760556E+02  0.13616384711E+02  0.45654617371E+02  0.10000000000E+01 0.  0.
<mgrwt>
<rscale>  0 0.12500063E+03</rscale>
<asrwt>0</asrwt>
<pdfrwt beam="2">  1        4 0.28709281E-02 0.12500063E+03</pdfrwt>
<pdfrwt beam="1">  1       -4 0.32204411E-01 0.12500063E+03</pdfrwt>
<totfact> 0.85618041E+03</totfact>
</mgrwt>
</event>
<event>
 5    1  0.3331626E-002  0.1250006E+03  0.7818608E-02  0.1235068E+00
          4   -1    0    0  501    0  0.00000000000E+00  0.00000000000E+00  0.53535473299E+02  0.53550535024E+02  0.12700000000E+01 0. -1.
         -4   -1    0    0    0  501 -0.00000000000E+00 -0.00000000000E+00 -0.72935533724E+02  0.72946589911E+02  0.12700000000E+01 0. -1.
         25    2    1    2    0    0  0.00000000000E+00  0.00000000000E+00 -0.19400060425E+02  0.12649712493E+03  0.12500064109E+03 0.  0.
    9000005    1    3    3    0    0  0.34102163132E+02 -0.34944740918E+02  0.29769434192E+02  0.57195381458E+02  0.10000000000E+01 0.  0.
    9000005    1    3    3    0    0 -0.34102163132E+02  0.34944740918E+02 -0.49169494617E+02  0.69301743477E+02  0.10000000000E+01 0.  0.
<mgrwt>
<rscale>  0 0.12500064E+03</rscale>
<asrwt>0</asrwt>
<pdfrwt beam="1">  1        4 0.82382358E-02 0.12500064E+03</pdfrwt>
<pdfrwt beam="2">  1       -4 0.11222860E-01 0.12500064E+03</pdfrwt>
<totfact> 0.10419940E+04</totfact>
</mgrwt>
</event>
<event>
 5    1  0.3331626E-002  0.1249983E+03  0.7818608E-02  0.1235072E+00
         -4   -1    0    0    0  501 -0.00000000000E+00  0.00000000000E+00  0.23324566777E+02  0.23359116321E+02  0.12700000000E+01 0. -1.
          4   -1    0    0  501    0  0.00000000000E+00 -0.00000000000E+00 -0.16730816764E+03  0.16731298772E+03  0.12700000000E+01 0. -1.
         25    2    1    2    0    0  0.00000000000E+00  0.00000000000E+00 -0.14398360087E+03  0.19067210404E+03  0.12499829575E+03 0.  0.
    9000005    1    3    3    0    0 -0.41851490334E+02 -0.44737454233E+02 -0.90807840249E+02  0.10954474385E+03  0.10000000000E+01 0.  0.
    9000005    1    3    3    0    0  0.41851490334E+02  0.44737454233E+02 -0.53175760617E+02  0.81127360191E+02  0.10000000000E+01 0.  0.
<mgrwt>
<rscale>  0 0.12499830E+03</rscale>
<asrwt>0</asrwt>
<pdfrwt beam="2">  1        4 0.25742746E-01 0.12499830E+03</pdfrwt>
<pdfrwt beam="1">  1       -4 0.35914234E-02 0.12499830E+03</pdfrwt>
<totfact> 0.91734004E+03</totfact>
</mgrwt>
</event>
<event>
 5    1  0.3331626E-002  0.1249996E+03  0.7818608E-02  0.1235070E+00
          4   -1    0    0  501    0  0.00000000000E+00  0.00000000000E+00  0.30579409209E+03  0.30579672932E+03  0.12700000000E+01 0. -1.
         -4   -1    0    0    0  501 -0.00000000000E+00 -0.00000000000E+00 -0.12739768795E+02  0.12802914080E+02  0.12700000000E+01 0. -1.
         25    2    1    2    0    0  0.00000000000E+00  0.00000000000E+00  0.29305432330E+03  0.31859964340E+03  0.12499958547E+03 0.  0.
    9000005    1    3    3    0    0  0.21546134480E+02 -0.54206496676E+02  0.20367067260E+03  0.21186156582E+03  0.10000000000E+01 0.  0.
    9000005    1    3    3    0    0 -0.21546134480E+02  0.54206496676E+02  0.89383650701E+02  0.10673807758E+03  0.10000000000E+01 0.  0.
<mgrwt>
<rscale>  0 0.12499959E+03</rscale>
<asrwt>0</asrwt>
<pdfrwt beam="1">  1        4 0.47050308E-01 0.12499959E+03</pdfrwt>
<pdfrwt beam="2">  1       -4 0.19650245E-02 0.12499959E+03</pdfrwt>
<totfact> 0.73323659E+03</totfact>
</mgrwt>
</event>
<event>
 5    1  0.3331626E-002  0.1249973E+03  0.7818608E-02  0.1235073E+00
         -4   -1    0    0    0  501 -0.00000000000E+00  0.00000000000E+00  0.12969446894E+03  0.12970068687E+03  0.12700000000E+01 0.  1.
          4   -1    0    0  501    0  0.00000000000E+00 -0.00000000000E+00 -0.30097237544E+02  0.30124020446E+02  0.12700000000E+01 0.  1.
         25    2    1    2    0    0  0.00000000000E+00  0.00000000000E+00  0.99597231396E+02  0.15982470731E+03  0.12499731423E+03 0.  0.
    9000005    1    3    3    0    0 -0.13701164486E+02 -0.32276938804E+02 -0.16339305325E+02  0.38697488101E+02  0.10000000000E+01 0.  0.
    9000005    1    3    3    0    0  0.13701164486E+02  0.32276938804E+02  0.11593653672E+03  0.12112721921E+03  0.10000000000E+01 0.  0.
<mgrwt>
<rscale>  0 0.12499731E+03</rscale>
<asrwt>0</asrwt>
<pdfrwt beam="2">  1        4 0.46328827E-02 0.12499731E+03</pdfrwt>
<pdfrwt beam="1">  1       -4 0.19955534E-01 0.12499731E+03</pdfrwt>
<totfact> 0.97382469E+03</totfact>
</mgrwt>
</event>
<event>
 5    1  0.3331626E-002  0.1249984E+03  0.7818608E-02  0.1235072E+00
          4   -1    0    0  501    0  0.00000000000E+00  0.00000000000E+00  0.30532297846E+03  0.30532561975E+03  0.12700000000E+01 0.  1.
         -4   -1    0    0    0  501 -0.00000000000E+00 -0.00000000000E+00 -0.12759284417E+02  0.12822333596E+02  0.12700000000E+01 0.  1.
         25    2    1    2    0    0  0.00000000000E+00  0.00000000000E+00  0.29256369404E+03  0.31814795334E+03  0.12499842057E+03 0.  0.
    9000005    1    3    3    0    0  0.45035740598E+02  0.25420180329E+02  0.56990548221E+02  0.76963147582E+02  0.10000000000E+01 0.  0.
    9000005    1    3    3    0    0 -0.45035740598E+02 -0.25420180329E+02  0.23557314582E+03  0.24118480576E+03  0.10000000000E+01 0.  0.
<mgrwt>
<rscale>  0 0.12499842E+03</rscale>
<asrwt>0</asrwt>
<pdfrwt beam="1">  1        4 0.46977814E-01 0.12499842E+03</pdfrwt>
<pdfrwt beam="2">  1       -4 0.19680202E-02 0.12499842E+03</pdfrwt>
<totfact> 0.73379516E+03</totfact>
</mgrwt>
</event>
<event>
 5    1  0.3331626E-002  0.1249949E+03  0.7818608E-02  0.1235077E+00
         -4   -1    0    0    0  501 -0.00000000000E+00  0.00000000000E+00  0.58133293177E+01  0.59504367702E+01  0.12700000000E+01 0. -1.
          4   -1    0    0  501    0  0.00000000000E+00 -0.00000000000E+00 -0.66392339515E+03  0.66392460982E+03  0.12700000000E+01 0. -1.
         25    2    1    2    0    0  0.00000000000E+00  0.00000000000E+00 -0.65811006583E+03  0.66987504659E+03  0.12499487708E+03 0.  0.
    9000005    1    3    3    0    0  0.45523079054E+02 -0.10053619633E+02 -0.10605069314E+03  0.11584979720E+03  0.10000000000E+01 0.  0.
    9000005    1    3    3    0    0 -0.45523079054E+02  0.10053619633E+02 -0.55205937269E+03  0.55402524939E+03  0.10000000000E+01 0.  0.
<mgrwt>
<rscale>  0 0.12499488E+03</rscale>
<asrwt>0</asrwt>
<pdfrwt beam="2">  1        4 0.10215264E+00 0.12499488E+03</pdfrwt>
<pdfrwt beam="1">  1       -4 0.90499904E-03 0.12499488E+03</pdfrwt>
<totfact> 0.44730387E+03</totfact>
</mgrwt>
</event>
<event>
 5    1  0.3331626E-002  0.1250004E+03  0.7818608E-02  0.1235069E+00
          4   -1    0    0  501    0  0.00000000000E+00  0.00000000000E+00  0.22005050727E+03  0.22005417208E+03  0.12700000000E+01 0. -1.
         -4   -1    0    0    0  501 -0.00000000000E+00 -0.00000000000E+00 -0.17725191272E+02  0.17770630423E+02  0.12700000000E+01 0. -1.
         25    2    1    2    0    0  0.00000000000E+00  0.00000000000E+00  0.20232531600E+03  0.23782480250E+03  0.12500041277E+03 0.  0.
    9000005    1    3    3    0    0 -0.16322291859E+02 -0.33314674691E+02  0.19684225617E+03  0.20031015595E+03  0.10000000000E+01 0.  0.
    9000005    1    3    3    0    0  0.16322291859E+02  0.33314674691E+02  0.54830598293E+01  0.37514646558E+02  0.10000000000E+01 0.  0.
<mgrwt>
<rscale>  0 0.12500041E+03</rscale>
<asrwt>0</asrwt>
<pdfrwt beam="1">  1        4 0.33857701E-01 0.12500041E+03</pdfrwt>
<pdfrwt beam="2">  1       -4 0.27307298E-02 0.12500041E+03</pdfrwt>
<totfact> 0.84121620E+03</totfact>
</mgrwt>
</event>
<event>
 5    1  0.3331626E-002  0.1249964E+03  0.7818608E-02  0.1235075E+00
         -4   -1    0    0    0  501 -0.00000000000E+00  0.00000000000E+00  0.99539615879E+02  0.99547717348E+02  0.12700000000E+01 0.  1.
          4   -1    0    0  501    0  0.00000000000E+00 -0.00000000000E+00 -0.39220911899E+02  0.39241468247E+02  0.12700000000E+01 0.  1.
         25    2    1    2    0    0  0.00000000000E+00  0.00000000000E+00  0.60318703980E+02  0.13878918559E+03  0.12499636790E+03 0.  0.
    9000005    1    3    3    0    0 -0.32672536433E+02 -0.43443156474E+02 -0.40677741300E+01  0.54519255935E+02  0.10000000000E+01 0.  0.
    9000005    1    3    3    0    0  0.32672536433E+02  0.43443156474E+02  0.64386478110E+02  0.84269929659E+02  0.10000000000E+01 0.  0.
<mgrwt>
<rscale>  0 0.12499637E+03</rscale>
<asrwt>0</asrwt>
<pdfrwt beam="2">  1        4 0.60361909E-02 0.12499637E+03</pdfrwt>
<pdfrwt beam="1">  1       -4 0.15315992E-01 0.12499637E+03</pdfrwt>
<totfact> 0.10159574E+04</totfact>
</mgrwt>
</event>
<event>
 5    1  0.3331626E-002  0.1249960E+03  0.7818608E-02  0.1235076E+00
          4   -1    0    0  501    0  0.00000000000E+00  0.00000000000E+00  0.26302794343E+02  0.26333436735E+02  0.12700000000E+01 0. -1.
         -4   -1    0    0    0  501 -0.00000000000E+00 -0.00000000000E+00 -0.14838144845E+03  0.14838688333E+03  0.12700000000E+01 0. -1.
         25    2    1    2    0    0  0.00000000000E+00  0.00000000000E+00 -0.12207865411E+03  0.17472032006E+03  0.12499596975E+03 0.  0.
    9000005    1    3    3    0    0  0.30156613741E+02 -0.29541188021E+02  0.33644978345E+01  0.42360630162E+02  0.10000000000E+01 0.  0.
    9000005    1    3    3    0    0 -0.30156613741E+02  0.29541188021E+02 -0.12544315194E+03  0.13235968990E+03  0.10000000000E+01 0.  0.
<mgrwt>
<rscale>  0 0.12499597E+03</rscale>
<asrwt>0</asrwt>
<pdfrwt beam="1">  1        4 0.40493590E-02 0.12499597E+03</pdfrwt>
<pdfrwt beam="2">  1       -4 0.22830690E-01 0.12499597E+03</pdfrwt>
<totfact> 0.94584640E+03</totfact>
</mgrwt>
</event>
<event>
 5    1  0.3331626E-002  0.1249991E+03  0.7818608E-02  0.1235071E+00
          4   -1    0    0  501    0  0.00000000000E+00  0.00000000000E+00  0.12348488272E+03  0.12349141331E+03  0.12700000000E+01 0.  1.
         -4   -1    0    0    0  501 -0.00000000000E+00 -0.00000000000E+00 -0.31612855449E+02  0.31638355356E+02  0.12700000000E+01 0.  1.
         25    2    1    2    0    0  0.00000000000E+00  0.00000000000E+00  0.91872027273E+02  0.15512976866E+03  0.12499910292E+03 0.  0.
    9000005    1    3    3    0    0 -0.27676100617E+02 -0.36345829328E+02  0.98854820047E+02  0.10890482681E+03  0.10000000000E+01 0.  0.
    9000005    1    3    3    0    0  0.27676100617E+02  0.36345829328E+02 -0.69827927737E+01  0.46224941859E+02  0.10000000000E+01 0.  0.
<mgrwt>
<rscale>  0 0.12499910E+03</rscale>
<asrwt>0</asrwt>
<pdfrwt beam="1">  1        4 0.19000138E-01 0.12499910E+03</pdfrwt>
<pdfrwt beam="2">  1       -4 0.48659801E-02 0.12499910E+03</pdfrwt>
<totfact> 0.98292013E+03</totfact>
</mgrwt>
</event>
<event>
 5    1  0.3331626E-002  0.1250025E+03  0.7818608E-02  0.1235065E+00
          4   -1    0    0  501    0  0.00000000000E+00  0.00000000000E+00  0.52844413811E+02  0.52859672446E+02  0.12700000000E+01 0. -1.
         -4   -1    0    0    0  501 -0.00000000000E+00 -0.00000000000E+00 -0.73891417725E+02  0.73902330907E+02  0.12700000000E+01 0. -1.
         25    2    1    2    0    0  0.00000000000E+00  0.00000000000E+00 -0.21047003914E+02  0.12676200335E+03  0.12500251646E+03 0.  0.
    9000005    1    3    3    0    0  0.38122887005E+02 -0.37121527051E+02  0.22710418509E+02  0.57862988110E+02  0.10000000000E+01 0.  0.
    9000005    1    3    3    0    0 -0.38122887005E+02  0.37121527051E+02 -0.43757422423E+02  0.68899015242E+02  0.10000000000E+01 0.  0.
<mgrwt>
<rscale>  0 0.12500252E+03</rscale>
<asrwt>0</asrwt>
<pdfrwt beam="1">  1        4 0.81319230E-02 0.12500252E+03</pdfrwt>
<pdfrwt beam="2">  1       -4 0.11369924E-01 0.12500252E+03</pdfrwt>
<totfact> 0.10413729E+04</totfact>
</mgrwt>
</event>
<event>
 5    1  0.3331626E-002  0.1249973E+03  0.7818608E-02  0.1235073E+00
         -4   -1    0    0    0  501 -0.00000000000E+00  0.00000000000E+00  0.46612826107E+02  0.46630123929E+02  0.12700000000E+01 0. -1.
          4   -1    0    0  501    0  0.00000000000E+00 -0.00000000000E+00 -0.83760801809E+02  0.83770429268E+02  0.12700000000E+01 0. -1.
         25    2    1    2    0    0  0.00000000000E+00  0.00000000000E+00 -0.37147975702E+02  0.13040055320E+03  0.12499732867E+03 0.  0.
    9000005    1    3    3    0    0 -0.57966083770E+02 -0.17664053956E+02 -0.34498062882E+02  0.69736661896E+02  0.10000000000E+01 0.  0.
    9000005    1    3    3    0    0  0.57966083770E+02  0.17664053956E+02 -0.26499128207E+01  0.60663891301E+02  0.10000000000E+01 0.  0.
<mgrwt>
<rscale>  0 0.12499733E+03</rscale>
<asrwt>0</asrwt>
<pdfrwt beam="2">  1        4 0.12888348E-01 0.12499733E+03</pdfrwt>
<pdfrwt beam="1">  1       -4 0.71732752E-02 0.12499733E+03</pdfrwt>
<totfact> 0.10336570E+04</totfact>
</mgrwt>
</event>
<event>
 5    1  0.3331626E-002  0.1250043E+03  0.7818608E-02  0.1235063E+00
          4   -1    0    0  501    0  0.00000000000E+00  0.00000000000E+00  0.21798793786E+03  0.21799163735E+03  0.12700000000E+01 0. -1.
         -4   -1    0    0    0  501 -0.00000000000E+00 -0.00000000000E+00 -0.17894432343E+02  0.17939442825E+02  0.12700000000E+01 0. -1.
         25    2    1    2    0    0  0.00000000000E+00  0.00000000000E+00  0.20009350552E+03  0.23593108017E+03  0.12500425449E+03 0.  0.
    9000005    1    3    3    0    0 -0.13440753737E+02 -0.40959678706E+00  0.21523433898E+03  0.21565630598E+03  0.10000000000E+01 0.  0.
    9000005    1    3    3    0    0  0.13440753737E+02  0.40959678706E+00 -0.15140833466E+02  0.20274774193E+02  0.10000000000E+01 0.  0.
<mgrwt>
<rscale>  0 0.12500425E+03</rscale>
<asrwt>0</asrwt>
<pdfrwt beam="1">  1        4 0.33540353E-01 0.12500425E+03</pdfrwt>
<pdfrwt beam="2">  1       -4 0.27567365E-02 0.12500425E+03</pdfrwt>
<totfact> 0.84399108E+03</totfact>
</mgrwt>
</event>
<event>
 5    1  0.3331626E-002  0.1249956E+03  0.7818608E-02  0.1235076E+00
         -4   -1    0    0    0  501 -0.00000000000E+00  0.00000000000E+00  0.24838043083E+03  0.24838367764E+03  0.12700000000E+01 0. -1.
          4   -1    0    0  501    0  0.00000000000E+00 -0.00000000000E+00 -0.15696779196E+02  0.15748072172E+02  0.12700000000E+01 0. -1.
         25    2    1    2    0    0  0.00000000000E+00  0.00000000000E+00  0.23268365163E+03  0.26413174981E+03  0.12499559801E+03 0.  0.
    9000005    1    3    3    0    0  0.33242718690E+02 -0.22322783057E+02  0.14964726533E+02  0.42758952624E+02  0.10000000000E+01 0.  0.
    9000005    1    3    3    0    0 -0.33242718690E+02  0.22322783057E+02  0.21771892510E+03  0.22137279719E+03  0.10000000000E+01 0.  0.
<mgrwt>
<rscale>  0 0.12499560E+03</rscale>
<asrwt>0</asrwt>
<pdfrwt beam="2">  1        4 0.24190845E-02 0.12499560E+03</pdfrwt>
<pdfrwt beam="1">  1       -4 0.38216569E-01 0.12499560E+03</pdfrwt>
<totfact> 0.80337571E+03</totfact>
</mgrwt>
</event>
<event>
 5    1  0.3331626E-002  0.1250512E+03  0.7818608E-02  0.1234989E+00
          4   -1    0    0  501    0  0.00000000000E+00  0.00000000000E+00  0.86055191210E+01  0.86987274553E+01  0.12700000000E+01 0.  1.
         -4   -1    0    0    0  501 -0.00000000000E+00 -0.00000000000E+00 -0.45175432639E+03  0.45175611154E+03  0.12700000000E+01 0.  1.
         25    2    1    2    0    0  0.00000000000E+00  0.00000000000E+00 -0.44314880727E+03  0.46045483899E+03  0.12505116300E+03 0.  0.
    9000005    1    3    3    0    0 -0.33018102590E+02 -0.37894087479E+02 -0.84675772440E+02  0.98474074775E+02  0.10000000000E+01 0.  0.
    9000005    1    3    3    0    0  0.33018102590E+02  0.37894087479E+02 -0.35847303483E+03  0.36198076422E+03  0.10000000000E+01 0.  0.
<mgrwt>
<rscale>  0 0.12505116E+03</rscale>
<asrwt>0</asrwt>
<pdfrwt beam="1">  1        4 0.13312336E-02 0.12505116E+03</pdfrwt>
<pdfrwt beam="2">  1       -4 0.69507954E-01 0.12505116E+03</pdfrwt>
<totfact> 0.59002189E+03</totfact>
</mgrwt>
</event>
<event>
 5    1  0.3331626E-002  0.1250019E+03  0.7818608E-02  0.1235066E+00
          4   -1    0    0  501    0  0.00000000000E+00  0.00000000000E+00  0.12087611674E+03  0.12088278826E+03  0.12700000000E+01 0. -1.
         -4   -1    0    0    0  501 -0.00000000000E+00 -0.00000000000E+00 -0.32297079449E+02  0.32322039554E+02  0.12700000000E+01 0. -1.
         25    2    1    2    0    0  0.00000000000E+00  0.00000000000E+00  0.88579037286E+02  0.15320482781E+03  0.12500189366E+03 0.  0.
    9000005    1    3    3    0    0 -0.91490067656E+01 -0.61588781962E+02  0.50830928125E+02  0.80384486329E+02  0.10000000000E+01 0.  0.
    9000005    1    3    3    0    0  0.91490067656E+01  0.61588781962E+02  0.37748109161E+02  0.72820341482E+02  0.10000000000E+01 0.  0.
<mgrwt>
<rscale>  0 0.12500189E+03</rscale>
<asrwt>0</asrwt>
<pdfrwt beam="1">  1        4 0.18598759E-01 0.12500189E+03</pdfrwt>
<pdfrwt beam="2">  1       -4 0.49712146E-02 0.12500189E+03</pdfrwt>
<totfact> 0.98664453E+03</totfact>
</mgrwt>
</event>
<event>
 5    1  0.3331626E-002  0.1250057E+03  0.7818608E-02  0.1235060E+00
         -4   -1    0    0    0  501 -0.00000000000E+00  0.00000000000E+00  0.17266300971E+03  0.17266768030E+03  0.12700000000E+01 0. -1.
          4   -1    0    0  501    0  0.00000000000E+00 -0.00000000000E+00 -0.22602796501E+02  0.22638447598E+02  0.12700000000E+01 0. -1.
         25    2    1    2    0    0  0.00000000000E+00  0.00000000000E+00  0.15006021321E+03  0.19530612790E+03  0.12500566390E+03 0.  0.
    9000005    1    3    3    0    0 -0.22009273990E+02 -0.51625894345E+02  0.32072861853E+02  0.64647579815E+02  0.10000000000E+01 0.  0.
    9000005    1    3    3    0    0  0.22009273990E+02  0.51625894345E+02  0.11798735135E+03  0.13065854809E+03  0.10000000000E+01 0.  0.
<mgrwt>
<rscale>  0 0.12500566E+03</rscale>
<asrwt>0</asrwt>
<pdfrwt beam="2">  1        4 0.34804550E-02 0.12500566E+03</pdfrwt>
<pdfrwt beam="1">  1       -4 0.26566642E-01 0.12500566E+03</pdfrwt>
<totfact> 0.90920645E+03</totfact>
</mgrwt>
</event>
<event>
 5    1  0.3331626E-002  0.1249928E+03  0.7818608E-02  0.1235081E+00
          4   -1    0    0  501    0  0.00000000000E+00  0.00000000000E+00  0.26548660657E+01  0.29429940242E+01  0.12700000000E+01 0.  1.
         -4   -1    0    0    0  501 -0.00000000000E+00 -0.00000000000E+00 -0.13951730749E+04  0.13951736530E+04  0.12700000000E+01 0.  1.
         25    2    1    2    0    0  0.00000000000E+00  0.00000000000E+00 -0.13925182089E+04  0.13981166470E+04  0.12499278600E+03 0.  0.
    9000005    1    3    3    0    0 -0.10323029915E+02  0.61175819621E+02 -0.77977972049E+03  0.78224450036E+03  0.10000000000E+01 0.  0.
    9000005    1    3    3    0    0  0.10323029915E+02 -0.61175819621E+02 -0.61273848838E+03  0.61587214663E+03  0.10000000000E+01 0.  0.
<mgrwt>
<rscale>  0 0.12499279E+03</rscale>
<asrwt>0</asrwt>
<pdfrwt beam="1">  1        4 0.43065020E-03 0.12499279E+03</pdfrwt>
<pdfrwt beam="2">  1       -4 0.21466366E+00 0.12499279E+03</pdfrwt>
<totfact> 0.20024609E+03</totfact>
</mgrwt>
</event>
<event>
 5    1  0.3331626E-002  0.1250006E+03  0.7818608E-02  0.1235068E+00
         -4   -1    0    0    0  501 -0.00000000000E+00  0.00000000000E+00  0.63579168223E+02  0.63591851144E+02  0.12700000000E+01 0.  1.
          4   -1    0    0  501    0  0.00000000000E+00 -0.00000000000E+00 -0.61414315631E+02  0.61427445531E+02  0.12700000000E+01 0.  1.
         25    2    1    2    0    0  0.00000000000E+00  0.00000000000E+00  0.21648525916E+01  0.12501929667E+03  0.12500055182E+03 0.  0.
    9000005    1    3    3    0    0  0.36495322605E+02  0.26088740533E+02 -0.42429885115E+02  0.61756182731E+02  0.10000000000E+01 0.  0.
    9000005    1    3    3    0    0 -0.36495322605E+02 -0.26088740533E+02  0.44594737707E+02  0.63263113943E+02  0.10000000000E+01 0.  0.
<mgrwt>
<rscale>  0 0.12500055E+03</rscale>
<asrwt>0</asrwt>
<pdfrwt beam="2">  1        4 0.94503419E-02 0.12500055E+03</pdfrwt>
<pdfrwt beam="1">  1       -4 0.97833961E-02 0.12500055E+03</pdfrwt>
<totfact> 0.10452313E+04</totfact>
</mgrwt>
</event>
<event>
 5    1  0.3331626E-002  0.1250004E+03  0.7818608E-02  0.1235069E+00
         -4   -1    0    0    0  501 -0.00000000000E+00  0.00000000000E+00  0.59730875529E+03  0.59731010543E+03  0.12700000000E+01 0. -1.
          4   -1    0    0  501    0  0.00000000000E+00 -0.00000000000E+00 -0.64767595736E+01  0.66000995882E+01  0.12700000000E+01 0. -1.
         25    2    1    2    0    0  0.00000000000E+00  0.00000000000E+00  0.59083199572E+03  0.60391020502E+03  0.12500035424E+03 0.  0.
    9000005    1    3    3    0    0  0.23602358123E+02  0.26304060927E+02  0.46415934408E+02  0.58347355528E+02  0.10000000000E+01 0.  0.
    9000005    1    3    3    0    0 -0.23602358123E+02 -0.26304060927E+02  0.54441606131E+03  0.54556284949E+03  0.10000000000E+01 0.  0.
<mgrwt>
<rscale>  0 0.12500035E+03</rscale>
<asrwt>0</asrwt>
<pdfrwt beam="2">  1        4 0.10060161E-02 0.12500035E+03</pdfrwt>
<pdfrwt beam="1">  1       -4 0.91903244E-01 0.12500035E+03</pdfrwt>
<totfact> 0.48621336E+03</totfact>
</mgrwt>
</event>
<event>
 4    1  0.3331626E-002  0.1249065E+03  0.7818608E-02  0.1235216E+00
          4   -1    0    0  501    0  0.00000000000E+00  0.00000000000E+00  0.96098258270E+02  0.96106649835E+02  0.12700000000E+01 0.  1.
         -4   -1    0    0    0  501 -0.00000000000E+00 -0.00000000000E+00 -0.40567590519E+02  0.40587464820E+02  0.12700000000E+01 0.  1.
    9000005    1    1    2    0    0  0.49525813848E+02  0.35727881826E+02  0.42039176943E+02  0.74145668621E+02  0.10000000000E+01 0.  0.
    9000005    1    1    2    0    0 -0.49525813848E+02 -0.35727881826E+02  0.13491490807E+02  0.62548446035E+02  0.10000000000E+01 0.  0.
<mgrwt>
<rscale>  0 0.12490647E+03</rscale>
<asrwt>0</asrwt>
<pdfrwt beam="1">  1        4 0.14786522E-01 0.12490647E+03</pdfrwt>
<pdfrwt beam="2">  1       -4 0.62433421E-02 0.12490647E+03</pdfrwt>
<totfact> 0.10224032E+04</totfact>
</mgrwt>
</event>
<event>
 5    1  0.3331626E-002  0.1250038E+03  0.7818608E-02  0.1235063E+00
          4   -1    0    0  501    0  0.00000000000E+00  0.00000000000E+00  0.49409111192E+01  0.51015196450E+01  0.12700000000E+01 0. -1.
         -4   -1    0    0    0  501 -0.00000000000E+00 -0.00000000000E+00 -0.77783478280E+03  0.77783581959E+03  0.12700000000E+01 0. -1.
         25    2    1    2    0    0  0.00000000000E+00  0.00000000000E+00 -0.77289387169E+03  0.78293733924E+03  0.12500376108E+03 0.  0.
    9000005    1    3    3    0    0  0.37147477642E+02  0.45749712422E+02 -0.51670478547E+03  0.52005558031E+03  0.10000000000E+01 0.  0.
    9000005    1    3    3    0    0 -0.37147477642E+02 -0.45749712422E+02 -0.25618908621E+03  0.26288175893E+03  0.10000000000E+01 0.  0.
<mgrwt>
<rscale>  0 0.12500376E+03</rscale>
<asrwt>0</asrwt>
<pdfrwt beam="1">  1        4 0.77257505E-03 0.12500376E+03</pdfrwt>
<pdfrwt beam="2">  1       -4 0.11967923E+00 0.12500376E+03</pdfrwt>
<totfact> 0.39034711E+03</totfact>
</mgrwt>
</event>
<event>
 5    1  0.3331626E-002  0.1249972E+03  0.7818608E-02  0.1235074E+00
         -4   -1    0    0    0  501 -0.00000000000E+00  0.00000000000E+00  0.29704468911E+02  0.29731605629E+02  0.12700000000E+01 0. -1.
          4   -1    0    0  501    0  0.00000000000E+00 -0.00000000000E+00 -0.13140756327E+03  0.13141370014E+03  0.12700000000E+01 0. -1.
         25    2    1    2    0    0  0.00000000000E+00  0.00000000000E+00 -0.10170309436E+03  0.16114530577E+03  0.12499716065E+03 0.  0.
    9000005    1    3    3    0    0  0.58144362327E+02 -0.12449089993E+02 -0.26076051485E+02  0.64936177691E+02  0.10000000000E+01 0.  0.
    9000005    1    3    3    0    0 -0.58144362327E+02  0.12449089993E+02 -0.75627042877E+02  0.96209128082E+02  0.10000000000E+01 0.  0.
<mgrwt>
<rscale>  0 0.12499716E+03</rscale>
<asrwt>0</asrwt>
<pdfrwt beam="2">  1        4 0.20219107E-01 0.12499716E+03</pdfrwt>
<pdfrwt beam="1">  1       -4 0.45724779E-02 0.12499716E+03</pdfrwt>
<totfact> 0.97128631E+03</totfact>
</mgrwt>
</event>
<event>
 5    1  0.3331626E-002  0.1250014E+03  0.7818608E-02  0.1235067E+00
         -4   -1    0    0    0  501 -0.00000000000E+00  0.00000000000E+00  0.31028858871E+03  0.31029118773E+03  0.12700000000E+01 0. -1.
          4   -1    0    0  501    0  0.00000000000E+00 -0.00000000000E+00 -0.12554688990E+02  0.12618760464E+02  0.12700000000E+01 0. -1.
         25    2    1    2    0    0  0.00000000000E+00  0.00000000000E+00  0.29773389972E+03  0.32290994819E+03  0.12500143839E+03 0.  0.
    9000005    1    3    3    0    0  0.27372648451E+02  0.31250779272E+02  0.26946534946E+03  0.27265077965E+03  0.10000000000E+01 0.  0.
    9000005    1    3    3    0    0 -0.27372648451E+02 -0.31250779272E+02  0.28268550261E+02  0.50259168538E+02  0.10000000000E+01 0.  0.
<mgrwt>
<rscale>  0 0.12500144E+03</rscale>
<asrwt>0</asrwt>
<pdfrwt beam="2">  1        4 0.19366192E-02 0.12500144E+03</pdfrwt>
<pdfrwt beam="1">  1       -4 0.47741833E-01 0.12500144E+03</pdfrwt>
<totfact> 0.72809035E+03</totfact>
</mgrwt>
</event>
<event>
 5    1  0.3331626E-002  0.1249968E+03  0.7818608E-02  0.1235074E+00
         -4   -1    0    0    0  501 -0.00000000000E+00  0.00000000000E+00  0.29532753402E+03  0.29533026470E+03  0.12700000000E+01 0.  1.
          4   -1    0    0  501    0  0.00000000000E+00 -0.00000000000E+00 -0.13192880675E+02  0.13253867379E+02  0.12700000000E+01 0.  1.
         25    2    1    2    0    0  0.00000000000E+00  0.00000000000E+00  0.28213465334E+03  0.30858413208E+03  0.12499681578E+03 0.  0.
    9000005    1    3    3    0    0 -0.47493250763E+02 -0.34089313492E+02  0.19556775926E+03  0.20412113713E+03  0.10000000000E+01 0.  0.
    9000005    1    3    3    0    0  0.47493250763E+02  0.34089313492E+02  0.86566894085E+02  0.10446299495E+03  0.10000000000E+01 0.  0.
<mgrwt>
<rscale>  0 0.12499682E+03</rscale>
<asrwt>0</asrwt>
<pdfrwt beam="2">  1        4 0.20345753E-02 0.12499682E+03</pdfrwt>
<pdfrwt beam="1">  1       -4 0.45439906E-01 0.12499682E+03</pdfrwt>
<totfact> 0.74539790E+03</totfact>
</mgrwt>
</event>
<event>
 5    1  0.3331626E-002  0.1249929E+03  0.7818608E-02  0.1235080E+00
         -4   -1    0    0    0  501 -0.00000000000E+00  0.00000000000E+00  0.12825620248E+02  0.12888344918E+02  0.12700000000E+01 0. -1.
          4   -1    0    0  501    0  0.00000000000E+00 -0.00000000000E+00 -0.30372460401E+03  0.30372725920E+03  0.12700000000E+01 0. -1.
         25    2    1    2    0    0  0.00000000000E+00  0.00000000000E+00 -0.29089898377E+03  0.31661560412E+03  0.12499288787E+03 0.  0.
    9000005    1    3    3    0    0  0.73561433606E+01 -0.10971524034E+02 -0.30016005226E+03  0.30045223274E+03  0.10000000000E+01 0.  0.
    9000005    1    3    3    0    0 -0.73561433606E+01  0.10971524034E+02  0.92610684950E+01  0.16163371382E+02  0.10000000000E+01 0.  0.
<mgrwt>
<rscale>  0 0.12499289E+03</rscale>
<asrwt>0</asrwt>
<pdfrwt beam="2">  1        4 0.46731886E-01 0.12499289E+03</pdfrwt>
<pdfrwt beam="1">  1       -4 0.19782018E-02 0.12499289E+03</pdfrwt>
<totfact> 0.73572073E+03</totfact>
</mgrwt>
</event>
<event>
 5    1  0.3331626E-002  0.1249901E+03  0.7818608E-02  0.1235085E+00
          4   -1    0    0  501    0  0.00000000000E+00  0.00000000000E+00  0.16073807304E+03  0.16074309013E+03  0.12700000000E+01 0.  1.
         -4   -1    0    0    0  501 -0.00000000000E+00 -0.00000000000E+00 -0.24276119656E+02  0.24309316847E+02  0.12700000000E+01 0.  1.
         25    2    1    2    0    0  0.00000000000E+00  0.00000000000E+00  0.13646195339E+03  0.18505240698E+03  0.12499011404E+03 0.  0.
    9000005    1    3    3    0    0  0.42096381318E+02  0.26444026134E+02  0.12180594059E+02  0.51193346344E+02  0.10000000000E+01 0.  0.
    9000005    1    3    3    0    0 -0.42096381318E+02 -0.26444026134E+02  0.12428135933E+03  0.13385906064E+03  0.10000000000E+01 0.  0.
<mgrwt>
<rscale>  0 0.12499011E+03</rscale>
<asrwt>0</asrwt>
<pdfrwt beam="1">  1        4 0.24731873E-01 0.12499011E+03</pdfrwt>
<pdfrwt beam="2">  1       -4 0.37377274E-02 0.12499011E+03</pdfrwt>
<totfact> 0.92735923E+03</totfact>
</mgrwt>
</event>
<event>
 5    1  0.3331626E-002  0.1249990E+03  0.7818608E-02  0.1235071E+00
         -4   -1    0    0    0  501 -0.00000000000E+00  0.00000000000E+00  0.14174545794E+03  0.14175114725E+03  0.12700000000E+01 0.  1.
          4   -1    0    0  501    0  0.00000000000E+00 -0.00000000000E+00 -0.27536869464E+02  0.27566140097E+02  0.12700000000E+01 0.  1.
         25    2    1    2    0    0  0.00000000000E+00  0.00000000000E+00  0.11420858847E+03  0.16931728734E+03  0.12499896845E+03 0.  0.
    9000005    1    3    3    0    0 -0.43071569088E+01 -0.60110094930E+02  0.79501941460E+02  0.99766396192E+02  0.10000000000E+01 0.  0.
    9000005    1    3    3    0    0  0.43071569088E+01  0.60110094930E+02  0.34706647014E+02  0.69550891153E+02  0.10000000000E+01 0.  0.
<mgrwt>
<rscale>  0 0.12499897E+03</rscale>
<asrwt>0</asrwt>
<pdfrwt beam="2">  1        4 0.42391307E-02 0.12499897E+03</pdfrwt>
<pdfrwt beam="1">  1       -4 0.21809683E-01 0.12499897E+03</pdfrwt>
<totfact> 0.95578170E+03</totfact>
</mgrwt>
</event>
<event>
 5    1  0.3331626E-002  0.1249996E+03  0.7818608E-02  0.1235070E+00
          4   -1    0    0  501    0  0.00000000000E+00  0.00000000000E+00  0.82319030137E+03  0.82319128104E+03  0.12700000000E+01 0. -1.
         -4   -1    0    0    0  501 -0.00000000000E+00 -0.00000000000E+00 -0.46592540963E+01  0.48292389394E+01  0.12700000000E+01 0. -1.
         25    2    1    2    0    0  0.00000000000E+00  0.00000000000E+00  0.81853104728E+03  0.82802051998E+03  0.12499962458E+03 0.  0.
    9000005    1    3    3    0    0  0.32908383578E+02  0.15582835923E+02  0.74569582946E+03  0.74658492923E+03  0.10000000000E+01 0.  0.
    9000005    1    3    3    0    0 -0.32908383578E+02 -0.15582835923E+02  0.72835217818E+02  0.81435590743E+02  0.10000000000E+01 0.  0.
<mgrwt>
<rscale>  0 0.12499962E+03</rscale>
<asrwt>0</asrwt>
<pdfrwt beam="1">  1        4 0.12665764E+00 0.12499962E+03</pdfrwt>
<pdfrwt beam="2">  1       -4 0.72996041E-03 0.12499962E+03</pdfrwt>
<totfact> 0.37044347E+03</totfact>
</mgrwt>
</event>
<event>
 5    1  0.3331626E-002  0.1250020E+03  0.7818608E-02  0.1235066E+00
         -4   -1    0    0    0  501 -0.00000000000E+00  0.00000000000E+00  0.95283281392E+02  0.95291744725E+02  0.12700000000E+01 0. -1.
          4   -1    0    0  501    0  0.00000000000E+00 -0.00000000000E+00 -0.40977360505E+02  0.40997036161E+02  0.12700000000E+01 0. -1.
         25    2    1    2    0    0  0.00000000000E+00  0.00000000000E+00  0.54305920886E+02  0.13628878089E+03  0.12500199499E+03 0.  0.
    9000005    1    3    3    0    0  0.69577916657E+00 -0.20072868065E+02  0.91673710445E+02  0.93853467319E+02  0.10000000000E+01 0.  0.
    9000005    1    3    3    0    0 -0.69577916657E+00  0.20072868065E+02 -0.37367789559E+02  0.42435313567E+02  0.10000000000E+01 0.  0.
<mgrwt>
<rscale>  0 0.12500199E+03</rscale>
<asrwt>0</asrwt>
<pdfrwt beam="2">  1        4 0.63063740E-02 0.12500199E+03</pdfrwt>
<pdfrwt beam="1">  1       -4 0.14661131E-01 0.12500199E+03</pdfrwt>
<totfact> 0.10210518E+04</totfact>
</mgrwt>
</event>
<event>
 5    1  0.3331626E-002  0.1250025E+03  0.7818608E-02  0.1235065E+00
          4   -1    0    0  501    0  0.00000000000E+00  0.00000000000E+00  0.23248491348E+03  0.23248838228E+03  0.12700000000E+01 0.  1.
         -4   -1    0    0    0  501 -0.00000000000E+00 -0.00000000000E+00 -0.16775253485E+02  0.16823258587E+02  0.12700000000E+01 0.  1.
         25    2    1    2    0    0  0.00000000000E+00  0.00000000000E+00  0.21570966000E+03  0.24931164087E+03  0.12500254740E+03 0.  0.
    9000005    1    3    3    0    0  0.19744384453E+02 -0.19429201391E+02 -0.38714470699E+01  0.27987902504E+02  0.10000000000E+01 0.  0.
    9000005    1    3    3    0    0 -0.19744384453E+02  0.19429201391E+02  0.21958110707E+03  0.22132373837E+03  0.10000000000E+01 0.  0.
<mgrwt>
<rscale>  0 0.12500255E+03</rscale>
<asrwt>0</asrwt>
<pdfrwt beam="1">  1        4 0.35770866E-01 0.12500255E+03</pdfrwt>
<pdfrwt beam="2">  1       -4 0.25847680E-02 0.12500255E+03</pdfrwt>
<totfact> 0.82425143E+03</totfact>
</mgrwt>
</event>
<event>
 5    1  0.3331626E-002  0.1249960E+03  0.7818608E-02  0.1235076E+00
          4   -1    0    0  501    0  0.00000000000E+00  0.00000000000E+00  0.28675577386E+02  0.28703686844E+02  0.12700000000E+01 0.  1.
         -4   -1    0    0    0  501 -0.00000000000E+00 -0.00000000000E+00 -0.13611557921E+03  0.13612150383E+03  0.12700000000E+01 0.  1.
         25    2    1    2    0    0  0.00000000000E+00  0.00000000000E+00 -0.10744000182E+03  0.16482519067E+03  0.12499595788E+03 0.  0.
    9000005    1    3    3    0    0  0.11098556125E+02  0.18721518545E+02  0.23522885176E+02  0.32062428662E+02  0.10000000000E+01 0.  0.
    9000005    1    3    3    0    0 -0.11098556125E+02 -0.18721518545E+02 -0.13096288700E+03  0.13276276201E+03  0.10000000000E+01 0.  0.
<mgrwt>
<rscale>  0 0.12499596E+03</rscale>
<asrwt>0</asrwt>
<pdfrwt beam="1">  1        4 0.44142454E-02 0.12499596E+03</pdfrwt>
<pdfrwt beam="2">  1       -4 0.20943476E-01 0.12499596E+03</pdfrwt>
<totfact> 0.96429265E+03</totfact>
</mgrwt>
</event>
<event>
 5    1  0.3331626E-002  0.1250009E+03  0.7818608E-02  0.1235068E+00
          4   -1    0    0  501    0  0.00000000000E+00  0.00000000000E+00  0.32847333762E+02  0.32871876053E+02  0.12700000000E+01 0. -1.
         -4   -1    0    0    0  501 -0.00000000000E+00 -0.00000000000E+00 -0.11885066024E+03  0.11885744546E+03  0.12700000000E+01 0. -1.
         25    2    1    2    0    0  0.00000000000E+00  0.00000000000E+00 -0.86003326482E+02  0.15172932151E+03  0.12500085936E+03 0.  0.
    9000005    1    3    3    0    0 -0.28104468762E+02  0.28142928865E+02 -0.10151032991E+03  0.10902858656E+03  0.10000000000E+01 0.  0.
    9000005    1    3    3    0    0  0.28104468762E+02 -0.28142928865E+02  0.15507003430E+02  0.42700734945E+02  0.10000000000E+01 0.  0.
<mgrwt>
<rscale>  0 0.12500086E+03</rscale>
<asrwt>0</asrwt>
<pdfrwt beam="1">  1        4 0.50558458E-02 0.12500086E+03</pdfrwt>
<pdfrwt beam="2">  1       -4 0.18287127E-01 0.12500086E+03</pdfrwt>
<totfact> 0.98958181E+03</totfact>
</mgrwt>
</event>
<event>
 5    1  0.3331626E-002  0.1249998E+03  0.7818608E-02  0.1235070E+00
         -4   -1    0    0    0  501 -0.00000000000E+00  0.00000000000E+00  0.42666432978E+02  0.42685330069E+02  0.12700000000E+01 0. -1.
          4   -1    0    0  501    0  0.00000000000E+00 -0.00000000000E+00 -0.91509424187E+02  0.91518236516E+02  0.12700000000E+01 0. -1.
         25    2    1    2    0    0  0.00000000000E+00  0.00000000000E+00 -0.48842991209E+02  0.13420356659E+03  0.12499983798E+03 0.  0.
    9000005    1    3    3    0    0 -0.55217831080E+02 -0.39044381219E+01 -0.55556511055E+02  0.78433280097E+02  0.10000000000E+01 0.  0.
    9000005    1    3    3    0    0  0.55217831080E+02  0.39044381219E+01  0.67135198460E+01  0.55770286488E+02  0.10000000000E+01 0.  0.
<mgrwt>
<rscale>  0 0.12499984E+03</rscale>
<asrwt>0</asrwt>
<pdfrwt beam="2">  1        4 0.14080504E-01 0.12499984E+03</pdfrwt>
<pdfrwt beam="1">  1       -4 0.65661981E-02 0.12499984E+03</pdfrwt>
<totfact> 0.10254922E+04</totfact>
</mgrwt>
</event>
<event>
 5    1  0.3331626E-002  0.1250032E+03  0.7818608E-02  0.1235064E+00
          4   -1    0    0  501    0  0.00000000000E+00  0.00000000000E+00  0.98661154215E+02  0.98669327813E+02  0.12700000000E+01 0.  1.
         -4   -1    0    0    0  501 -0.00000000000E+00 -0.00000000000E+00 -0.39574639734E+02  0.39595012440E+02  0.12700000000E+01 0.  1.
         25    2    1    2    0    0  0.00000000000E+00  0.00000000000E+00  0.59086514481E+02  0.13826434025E+03  0.12500324633E+03 0.  0.
    9000005    1    3    3    0    0  0.18828975631E+02  0.59422220270E+02  0.24606306748E+02  0.67022391160E+02  0.10000000000E+01 0.  0.
    9000005    1    3    3    0    0 -0.18828975631E+02 -0.59422220270E+02  0.34480207733E+02  0.71241949092E+02  0.10000000000E+01 0.  0.
<mgrwt>
<rscale>  0 0.12500325E+03</rscale>
<asrwt>0</asrwt>
<pdfrwt beam="1">  1        4 0.15180835E-01 0.12500325E+03</pdfrwt>
<pdfrwt beam="2">  1       -4 0.60906021E-02 0.12500325E+03</pdfrwt>
<totfact> 0.10168942E+04</totfact>
</mgrwt>
</event>
<event>
 5    1  0.3331626E-002  0.1250031E+03  0.7818608E-02  0.1235064E+00
          4   -1    0    0  501    0  0.00000000000E+00  0.00000000000E+00  0.49057542538E+02  0.49073978643E+02  0.12700000000E+01 0.  1.
         -4   -1    0    0    0  501 -0.00000000000E+00 -0.00000000000E+00 -0.79594979718E+02  0.79605110994E+02  0.12700000000E+01 0.  1.
         25    2    1    2    0    0  0.00000000000E+00  0.00000000000E+00 -0.30537437180E+02  0.12867908964E+03  0.12500309212E+03 0.  0.
    9000005    1    3    3    0    0 -0.41978306561E+02 -0.34615692154E+02 -0.46913891263E+02  0.71849408894E+02  0.10000000000E+01 0.  0.
    9000005    1    3    3    0    0  0.41978306561E+02  0.34615692154E+02  0.16376454083E+02  0.56829680743E+02  0.10000000000E+01 0.  0.
<mgrwt>
<rscale>  0 0.12500309E+03</rscale>
<asrwt>0</asrwt>
<pdfrwt beam="1">  1        4 0.75493579E-02 0.12500309E+03</pdfrwt>
<pdfrwt beam="2">  1       -4 0.12247425E-01 0.12500309E+03</pdfrwt>
<totfact> 0.10372124E+04</totfact>
</mgrwt>
</event>
<event>
 5    1  0.3331626E-002  0.1249639E+03  0.7818608E-02  0.1235126E+00
         -4   -1    0    0    0  501 -0.00000000000E+00  0.00000000000E+00  0.35315668862E+03  0.35315897216E+03  0.12700000000E+01 0.  1.
          4   -1    0    0  501    0  0.00000000000E+00 -0.00000000000E+00 -0.11015760784E+02  0.11088727865E+02  0.12700000000E+01 0.  1.
         25    2    1    2    0    0  0.00000000000E+00  0.00000000000E+00  0.34214092784E+03  0.36424770003E+03  0.12496388468E+03 0.  0.
    9000005    1    3    3    0    0  0.57792343173E+02  0.90609558153E+01  0.10714755691E+03  0.12208052589E+03  0.10000000000E+01 0.  0.
    9000005    1    3    3    0    0 -0.57792343173E+02 -0.90609558153E+01  0.23499337093E+03  0.24216717414E+03  0.10000000000E+01 0.  0.
<mgrwt>
<rscale>  0 0.12496388E+03</rscale>
<asrwt>0</asrwt>
<pdfrwt beam="2">  1        4 0.17005209E-02 0.12496388E+03</pdfrwt>
<pdfrwt beam="1">  1       -4 0.54337589E-01 0.12496388E+03</pdfrwt>
<totfact> 0.68239542E+03</totfact>
</mgrwt>
</event>
<event>
 5    1  0.3331626E-002  0.1250061E+03  0.7818608E-02  0.1235060E+00
         -4   -1    0    0    0  501 -0.00000000000E+00  0.00000000000E+00  0.10012857579E+03  0.10013662961E+03  0.12700000000E+01 0.  1.
          4   -1    0    0  501    0  0.00000000000E+00 -0.00000000000E+00 -0.38996176980E+02  0.39016851732E+02  0.12700000000E+01 0.  1.
         25    2    1    2    0    0  0.00000000000E+00  0.00000000000E+00  0.61132398807E+02  0.13915348134E+03  0.12500608459E+03 0.  0.
    9000005    1    3    3    0    0 -0.33409221452E+02  0.52570373918E+02  0.36221516525E+02  0.72061213917E+02  0.10000000000E+01 0.  0.
    9000005    1    3    3    0    0  0.33409221452E+02 -0.52570373918E+02  0.24910882282E+02  0.67092267423E+02  0.10000000000E+01 0.  0.
<mgrwt>
<rscale>  0 0.12500608E+03</rscale>
<asrwt>0</asrwt>
<pdfrwt beam="2">  1        4 0.60016218E-02 0.12500608E+03</pdfrwt>
<pdfrwt beam="1">  1       -4 0.15406606E-01 0.12500608E+03</pdfrwt>
<totfact> 0.10149769E+04</totfact>
</mgrwt>
</event>
<event>
 5    1  0.3331626E-002  0.1249988E+03  0.7818608E-02  0.1235071E+00
         -4   -1    0    0    0  501 -0.00000000000E+00  0.00000000000E+00  0.71591497229E+02  0.71602760949E+02  0.12700000000E+01 0. -1.
          4   -1    0    0  501    0  0.00000000000E+00 -0.00000000000E+00 -0.54539017623E+02  0.54553802280E+02  0.12700000000E+01 0. -1.
         25    2    1    2    0    0  0.00000000000E+00  0.00000000000E+00  0.17052479606E+02  0.12615656323E+03  0.12499876553E+03 0.  0.
    9000005    1    3    3    0    0 -0.94709784475E+01 -0.47419432995E+01  0.70683923860E+02  0.71480084998E+02  0.10000000000E+01 0.  0.
    9000005    1    3    3    0    0  0.94709784475E+01  0.47419432995E+01 -0.53631444254E+02  0.54676478231E+02  0.10000000000E+01 0.  0.
<mgrwt>
<rscale>  0 0.12499877E+03</rscale>
<asrwt>0</asrwt>
<pdfrwt beam="2">  1        4 0.83926219E-02 0.12499877E+03</pdfrwt>
<pdfrwt beam="1">  1       -4 0.11016080E-01 0.12499877E+03</pdfrwt>
<totfact> 0.10427819E+04</totfact>
</mgrwt>
</event>
<event>
 5    1  0.3331626E-002  0.1250051E+03  0.7818608E-02  0.1235061E+00
         -4   -1    0    0    0  501 -0.00000000000E+00  0.00000000000E+00  0.38808916671E+02  0.38829691129E+02  0.12700000000E+01 0. -1.
          4   -1    0    0  501    0  0.00000000000E+00 -0.00000000000E+00 -0.10060993714E+03  0.10061795243E+03  0.12700000000E+01 0. -1.
         25    2    1    2    0    0  0.00000000000E+00  0.00000000000E+00 -0.61801020472E+02  0.13944764356E+03  0.12500511655E+03 0.  0.
    9000005    1    3    3    0    0 -0.27045509624E+02 -0.56190128679E+02 -0.26330946915E+02  0.67698662595E+02  0.10000000000E+01 0.  0.
    9000005    1    3    3    0    0  0.27045509624E+02  0.56190128679E+02 -0.35470073557E+02  0.71748980968E+02  0.10000000000E+01 0.  0.
<mgrwt>
<rscale>  0 0.12500512E+03</rscale>
<asrwt>0</asrwt>
<pdfrwt beam="2">  1        4 0.15480666E-01 0.12500512E+03</pdfrwt>
<pdfrwt beam="1">  1       -4 0.59728172E-02 0.12500512E+03</pdfrwt>
<totfact> 0.10143877E+04</totfact>
</mgrwt>
</event>
<event>
 5    1  0.3331626E-002  0.1250006E+03  0.7818608E-02  0.1235068E+00
         -4   -1    0    0    0  501 -0.00000000000E+00  0.00000000000E+00  0.68129675756E+02  0.68141511714E+02  0.12700000000E+01 0. -1.
          4   -1    0    0  501    0  0.00000000000E+00 -0.00000000000E+00 -0.57312252445E+02  0.57326321880E+02  0.12700000000E+01 0. -1.
         25    2    1    2    0    0  0.00000000000E+00  0.00000000000E+00  0.10817423311E+02  0.12546783359E+03  0.12500064248E+03 0.  0.
    9000005    1    3    3    0    0  0.52473345947E+02  0.21538575250E+02  0.31735120075E+02  0.65003693009E+02  0.10000000000E+01 0.  0.
    9000005    1    3    3    0    0 -0.52473345947E+02 -0.21538575250E+02 -0.20917696764E+02  0.60464140584E+02  0.10000000000E+01 0.  0.
<mgrwt>
<rscale>  0 0.12500064E+03</rscale>
<asrwt>0</asrwt>
<pdfrwt beam="2">  1        4 0.88192623E-02 0.12500064E+03</pdfrwt>
<pdfrwt beam="1">  1       -4 0.10483481E-01 0.12500064E+03</pdfrwt>
<totfact> 0.10442514E+04</totfact>
</mgrwt>
</event>
<event>
 5    1  0.3331626E-002  0.1249986E+03  0.7818608E-02  0.1235071E+00
         -4   -1    0    0    0  501 -0.00000000000E+00  0.00000000000E+00  0.82161710315E+01  0.83137456311E+01  0.12700000000E+01 0. -1.
          4   -1    0    0  501    0  0.00000000000E+00 -0.00000000000E+00 -0.47251888362E+03  0.47252059032E+03  0.12700000000E+01 0. -1.
         25    2    1    2    0    0  0.00000000000E+00  0.00000000000E+00 -0.46430271259E+03  0.48083433595E+03  0.12499859885E+03 0.  0.
    9000005    1    3    3    0    0  0.58055786874E+02 -0.21723133435E+02 -0.20166905744E+03  0.21098288472E+03  0.10000000000E+01 0.  0.
    9000005    1    3    3    0    0 -0.58055786874E+02  0.21723133435E+02 -0.26263365515E+03  0.26985145123E+03  0.10000000000E+01 0.  0.
<mgrwt>
<rscale>  0 0.12499860E+03</rscale>
<asrwt>0</asrwt>
<pdfrwt beam="2">  1        4 0.72702828E-01 0.12499860E+03</pdfrwt>
<pdfrwt beam="1">  1       -4 0.12716637E-02 0.12499860E+03</pdfrwt>
<totfact> 0.57384443E+03</totfact>
</mgrwt>
</event>
<event>
 5    1  0.3331626E-002  0.1250015E+03  0.7818608E-02  0.1235067E+00
         -4   -1    0    0    0  501 -0.00000000000E+00  0.00000000000E+00  0.21815293895E+03  0.21815663563E+03  0.12700000000E+01 0.  1.
          4   -1    0    0  501    0  0.00000000000E+00 -0.00000000000E+00 -0.17880075816E+02  0.17925122347E+02  0.12700000000E+01 0.  1.
         25    2    1    2    0    0  0.00000000000E+00  0.00000000000E+00  0.20027286313E+03  0.23608175798E+03  0.12500150697E+03 0.  0.
    9000005    1    3    3    0    0  0.15999957924E+02  0.31842826019E+02  0.31817461355E+01  0.35792285914E+02  0.10000000000E+01 0.  0.
    9000005    1    3    3    0    0 -0.15999957924E+02 -0.31842826019E+02  0.19709111699E+03  0.20028947207E+03  0.10000000000E+01 0.  0.
<mgrwt>
<rscale>  0 0.12500151E+03</rscale>
<asrwt>0</asrwt>
<pdfrwt beam="2">  1        4 0.27545302E-02 0.12500151E+03</pdfrwt>
<pdfrwt beam="1">  1       -4 0.33565743E-01 0.12500151E+03</pdfrwt>
<totfact> 0.84381563E+03</totfact>
</mgrwt>
</event>
<event>
 5    1  0.3331626E-002  0.1249985E+03  0.7818608E-02  0.1235072E+00
         -4   -1    0    0    0  501 -0.00000000000E+00  0.00000000000E+00  0.11719759849E+03  0.11720447940E+03  0.12700000000E+01 0.  1.
          4   -1    0    0  501    0  0.00000000000E+00 -0.00000000000E+00 -0.33309684585E+02  0.33333886470E+02  0.12700000000E+01 0.  1.
         25    2    1    2    0    0  0.00000000000E+00  0.00000000000E+00  0.83887913905E+02  0.15053836587E+03  0.12499846999E+03 0.  0.
    9000005    1    3    3    0    0  0.50007200582E+02 -0.26092348151E+02  0.74340514994E+02  0.93322253036E+02  0.10000000000E+01 0.  0.
    9000005    1    3    3    0    0 -0.50007200582E+02  0.26092348151E+02  0.95473989113E+01  0.57216112836E+02  0.10000000000E+01 0.  0.
<mgrwt>
<rscale>  0 0.12499847E+03</rscale>
<asrwt>0</asrwt>
<pdfrwt beam="2">  1        4 0.51269578E-02 0.12499847E+03</pdfrwt>
<pdfrwt beam="1">  1       -4 0.18032791E-01 0.12499847E+03</pdfrwt>
<totfact> 0.99199906E+03</totfact>
</mgrwt>
</event>
<event>
 5    1  0.3331626E-002  0.1250029E+03  0.7818608E-02  0.1235065E+00
          4   -1    0    0  501    0  0.00000000000E+00  0.00000000000E+00  0.82263147567E+02  0.82272950279E+02  0.12700000000E+01 0.  1.
         -4   -1    0    0    0  501 -0.00000000000E+00 -0.00000000000E+00 -0.47465903400E+02  0.47482890451E+02  0.12700000000E+01 0.  1.
         25    2    1    2    0    0  0.00000000000E+00  0.00000000000E+00  0.34797244167E+02  0.12975584073E+03  0.12500291997E+03 0.  0.
    9000005    1    3    3    0    0  0.47936084854E+02 -0.36734892410E+02  0.34075348843E+02  0.69350197911E+02  0.10000000000E+01 0.  0.
    9000005    1    3    3    0    0 -0.47936084854E+02  0.36734892410E+02  0.72189532386E+00  0.60405642819E+02  0.10000000000E+01 0.  0.
<mgrwt>
<rscale>  0 0.12500292E+03</rscale>
<asrwt>0</asrwt>
<pdfrwt beam="1">  1        4 0.12657929E-01 0.12500292E+03</pdfrwt>
<pdfrwt beam="2">  1       -4 0.73045075E-02 0.12500292E+03</pdfrwt>
<totfact> 0.10349051E+04</totfact>
</mgrwt>
</event>
<event>
 5    1  0.3331626E-002  0.1249989E+03  0.7818608E-02  0.1235071E+00
          4   -1    0    0  501    0  0.00000000000E+00  0.00000000000E+00  0.96665474587E+02  0.96673816916E+02  0.12700000000E+01 0. -1.
         -4   -1    0    0    0  501 -0.00000000000E+00 -0.00000000000E+00 -0.40389202726E+02  0.40409164763E+02  0.12700000000E+01 0. -1.
         25    2    1    2    0    0  0.00000000000E+00  0.00000000000E+00  0.56276271861E+02  0.13708298168E+03  0.12499890036E+03 0.  0.
    9000005    1    3    3    0    0  0.23795750607E+02 -0.53000332333E+02  0.53383271665E+02  0.78905301900E+02  0.10000000000E+01 0.  0.
    9000005    1    3    3    0    0 -0.23795750607E+02  0.53000332333E+02  0.28930001960E+01  0.58177679779E+02  0.10000000000E+01 0.  0.
<mgrwt>
<rscale>  0 0.12499890E+03</rscale>
<asrwt>0</asrwt>
<pdfrwt beam="1">  1        4 0.14873788E-01 0.12499890E+03</pdfrwt>
<pdfrwt beam="2">  1       -4 0.62159009E-02 0.12499890E+03</pdfrwt>
<totfact> 0.10194604E+04</totfact>
</mgrwt>
</event>
<event>
 5    1  0.3331626E-002  0.1250075E+03  0.7818608E-02  0.1235058E+00
         -4   -1    0    0    0  501 -0.00000000000E+00  0.00000000000E+00  0.41866132453E+02  0.41885390610E+02  0.12700000000E+01 0.  1.
          4   -1    0    0  501    0  0.00000000000E+00 -0.00000000000E+00 -0.93269553513E+02  0.93278199557E+02  0.12700000000E+01 0.  1.
         25    2    1    2    0    0  0.00000000000E+00  0.00000000000E+00 -0.51403421061E+02  0.13516359017E+03  0.12500753741E+03 0.  0.
    9000005    1    3    3    0    0 -0.14195394805E+02 -0.42877957606E+02 -0.72404580103E+02  0.85343140919E+02  0.10000000000E+01 0.  0.
    9000005    1    3    3    0    0  0.14195394805E+02  0.42877957606E+02  0.21001159042E+02  0.49820449248E+02  0.10000000000E+01 0.  0.
<mgrwt>
<rscale>  0 0.12500754E+03</rscale>
<asrwt>0</asrwt>
<pdfrwt beam="2">  1        4 0.14351308E-01 0.12500754E+03</pdfrwt>
<pdfrwt beam="1">  1       -4 0.64430900E-02 0.12500754E+03</pdfrwt>
<totfact> 0.10232884E+04</totfact>
</mgrwt>
</event>
<event>
 5    1  0.3331626E-002  0.1249991E+03  0.7818608E-02  0.1235071E+00
          4   -1    0    0  501    0  0.00000000000E+00  0.00000000000E+00  0.33066302665E+02  0.33090682555E+02  0.12700000000E+01 0. -1.
         -4   -1    0    0    0  501 -0.00000000000E+00 -0.00000000000E+00 -0.11806079930E+03  0.11806762991E+03  0.12700000000E+01 0. -1.
         25    2    1    2    0    0  0.00000000000E+00  0.00000000000E+00 -0.84994496637E+02  0.15115831246E+03  0.12499908387E+03 0.  0.
    9000005    1    3    3    0    0 -0.30048606670E+02  0.54764259919E+02 -0.40351060632E+02  0.74372380770E+02  0.10000000000E+01 0.  0.
    9000005    1    3    3    0    0  0.30048606670E+02 -0.54764259919E+02 -0.44643436005E+02  0.76785931691E+02  0.10000000000E+01 0.  0.
<mgrwt>
<rscale>  0 0.12499908E+03</rscale>
<asrwt>0</asrwt>
<pdfrwt beam="1">  1        4 0.50895244E-02 0.12499908E+03</pdfrwt>
<pdfrwt beam="2">  1       -4 0.18165600E-01 0.12499908E+03</pdfrwt>
<totfact> 0.99075348E+03</totfact>
</mgrwt>
</event>
<event>
 5    1  0.3331626E-002  0.1249744E+03  0.7818608E-02  0.1235109E+00
         -4   -1    0    0    0  501 -0.00000000000E+00  0.00000000000E+00  0.26867649402E+02  0.26897648306E+02  0.12700000000E+01 0.  1.
          4   -1    0    0  501    0  0.00000000000E+00 -0.00000000000E+00 -0.14521522496E+03  0.14522077834E+03  0.12700000000E+01 0.  1.
         25    2    1    2    0    0  0.00000000000E+00  0.00000000000E+00 -0.11834757556E+03  0.17211842664E+03  0.12497441398E+03 0.  0.
    9000005    1    3    3    0    0 -0.48531470383E+02  0.39003515321E+02 -0.52007798497E+02  0.81131922998E+02  0.10000000000E+01 0.  0.
    9000005    1    3    3    0    0  0.48531470383E+02 -0.39003515321E+02 -0.66339777064E+02  0.90986503646E+02  0.10000000000E+01 0.  0.
<mgrwt>
<rscale>  0 0.12497441E+03</rscale>
<asrwt>0</asrwt>
<pdfrwt beam="2">  1        4 0.22343538E-01 0.12497441E+03</pdfrwt>
<pdfrwt beam="1">  1       -4 0.41362194E-02 0.12497441E+03</pdfrwt>
<totfact> 0.95109856E+03</totfact>
</mgrwt>
</event>
<event>
 5    1  0.3331626E-002  0.1249979E+03  0.7818608E-02  0.1235072E+00
         -4   -1    0    0    0  501 -0.00000000000E+00  0.00000000000E+00  0.82859687237E+03  0.82859784564E+03  0.12700000000E+01 0. -1.
          4   -1    0    0  501    0  0.00000000000E+00 -0.00000000000E+00 -0.46276107691E+01  0.47987166441E+01  0.12700000000E+01 0. -1.
         25    2    1    2    0    0  0.00000000000E+00  0.00000000000E+00  0.82396926160E+03  0.83339656229E+03  0.12499794385E+03 0.  0.
    9000005    1    3    3    0    0  0.42287057300E+02 -0.96889414751E+01  0.11210137462E+03  0.12020727513E+03  0.10000000000E+01 0.  0.
    9000005    1    3    3    0    0 -0.42287057300E+02  0.96889414751E+01  0.71186788698E+03  0.71318928716E+03  0.10000000000E+01 0.  0.
<mgrwt>
<rscale>  0 0.12499794E+03</rscale>
<asrwt>0</asrwt>
<pdfrwt beam="2">  1        4 0.72517600E-03 0.12499794E+03</pdfrwt>
<pdfrwt beam="1">  1       -4 0.12748985E+00 0.12499794E+03</pdfrwt>
<totfact> 0.36818155E+03</totfact>
</mgrwt>
</event>
<event>
 5    1  0.3331626E-002  0.1250007E+03  0.7818608E-02  0.1235068E+00
         -4   -1    0    0    0  501 -0.00000000000E+00  0.00000000000E+00  0.14320559353E+03  0.14321122484E+03  0.12700000000E+01 0.  1.
          4   -1    0    0  501    0  0.00000000000E+00 -0.00000000000E+00 -0.27256554520E+02  0.27286125857E+02  0.12700000000E+01 0.  1.
         25    2    1    2    0    0  0.00000000000E+00  0.00000000000E+00  0.11594903901E+03  0.17049735070E+03  0.12500066778E+03 0.  0.
    9000005    1    3    3    0    0 -0.40603721764E+01 -0.57300671911E+02  0.24413110910E+02  0.62424783604E+02  0.10000000000E+01 0.  0.
    9000005    1    3    3    0    0  0.40603721764E+01  0.57300671911E+02  0.91535928104E+02  0.10807256709E+03  0.10000000000E+01 0.  0.
<mgrwt>
<rscale>  0 0.12500067E+03</rscale>
<asrwt>0</asrwt>
<pdfrwt beam="2">  1        4 0.41960239E-02 0.12500067E+03</pdfrwt>
<pdfrwt beam="1">  1       -4 0.22034338E-01 0.12500067E+03</pdfrwt>
<totfact> 0.95354589E+03</totfact>
</mgrwt>
</event>
<event>
 5    1  0.3331626E-002  0.1249904E+03  0.7818608E-02  0.1235084E+00
          4   -1    0    0  501    0  0.00000000000E+00  0.00000000000E+00  0.20716228452E+03  0.20716617733E+03  0.12700000000E+01 0. -1.
         -4   -1    0    0    0  501 -0.00000000000E+00 -0.00000000000E+00 -0.18827628951E+02  0.18870413666E+02  0.12700000000E+01 0. -1.
         25    2    1    2    0    0  0.00000000000E+00  0.00000000000E+00  0.18833465557E+03  0.22603659099E+03  0.12499039155E+03 0.  0.
    9000005    1    3    3    0    0 -0.54123065073E+02 -0.28950112160E+02  0.11535257323E+03  0.13066993272E+03  0.10000000000E+01 0.  0.
    9000005    1    3    3    0    0  0.54123065073E+02  0.28950112160E+02  0.72982082341E+02  0.95366658271E+02  0.10000000000E+01 0.  0.
<mgrwt>
<rscale>  0 0.12499039E+03</rscale>
<asrwt>0</asrwt>
<pdfrwt beam="1">  1        4 0.31874712E-01 0.12499039E+03</pdfrwt>
<pdfrwt beam="2">  1       -4 0.29001488E-02 0.12499039E+03</pdfrwt>
<totfact> 0.85940348E+03</totfact>
</mgrwt>
</event>
<event>
 5    1  0.3331626E-002  0.1249996E+03  0.7818608E-02  0.1235070E+00
          4   -1    0    0  501    0  0.00000000000E+00  0.00000000000E+00  0.50077717795E+02  0.50093819176E+02  0.12700000000E+01 0.  1.
         -4   -1    0    0    0  501 -0.00000000000E+00 -0.00000000000E+00 -0.77969471224E+02  0.77979813689E+02  0.12700000000E+01 0.  1.
         25    2    1    2    0    0  0.00000000000E+00  0.00000000000E+00 -0.27891753428E+02  0.12807363286E+03  0.12499962210E+03 0.  0.
    9000005    1    3    3    0    0 -0.55808907035E+01  0.62049368145E+02 -0.89310289157E+01  0.62944687669E+02  0.10000000000E+01 0.  0.
    9000005    1    3    3    0    0  0.55808907035E+01 -0.62049368145E+02 -0.18960724513E+02  0.65128945195E+02  0.10000000000E+01 0.  0.
<mgrwt>
<rscale>  0 0.12499962E+03</rscale>
<asrwt>0</asrwt>
<pdfrwt beam="1">  1        4 0.77062985E-02 0.12499962E+03</pdfrwt>
<pdfrwt beam="2">  1       -4 0.11997337E-01 0.12499962E+03</pdfrwt>
<totfact> 0.10385986E+04</totfact>
</mgrwt>
</event>
<event>
 5    1  0.3331626E-002  0.1249952E+03  0.7818608E-02  0.1235077E+00
         -4   -1    0    0    0  501 -0.00000000000E+00  0.00000000000E+00  0.27216106780E+03  0.27216403092E+03  0.12700000000E+01 0.  1.
          4   -1    0    0  501    0  0.00000000000E+00 -0.00000000000E+00 -0.14320467879E+02  0.14376672086E+02  0.12700000000E+01 0.  1.
         25    2    1    2    0    0  0.00000000000E+00  0.00000000000E+00  0.25784059992E+03  0.28654070301E+03  0.12499519795E+03 0.  0.
    9000005    1    3    3    0    0 -0.59221936004E+02 -0.14642786112E+02  0.15995698986E+03  0.17119838636E+03  0.10000000000E+01 0.  0.
    9000005    1    3    3    0    0  0.59221936004E+02  0.14642786112E+02  0.97883610069E+02  0.11534231665E+03  0.10000000000E+01 0.  0.
<mgrwt>
<rscale>  0 0.12499520E+03</rscale>
<asrwt>0</asrwt>
<pdfrwt beam="2">  1        4 0.22077005E-02 0.12499520E+03</pdfrwt>
<pdfrwt beam="1">  1       -4 0.41875479E-01 0.12499520E+03</pdfrwt>
<totfact> 0.77327025E+03</totfact>
</mgrwt>
</event>
<event>
 5    1  0.3331626E-002  0.1250033E+03  0.7818608E-02  0.1235064E+00
         -4   -1    0    0    0  501 -0.00000000000E+00  0.00000000000E+00  0.19126293885E+03  0.19126715525E+03  0.12700000000E+01 0.  1.
          4   -1    0    0  501    0  0.00000000000E+00 -0.00000000000E+00 -0.20400333100E+02  0.20439826090E+02  0.12700000000E+01 0.  1.
         25    2    1    2    0    0  0.00000000000E+00  0.00000000000E+00  0.17086260575E+03  0.21170698134E+03  0.12500326358E+03 0.  0.
    9000005    1    3    3    0    0 -0.57381999931E+01 -0.40883772317E+02  0.16488757949E+03  0.16998036253E+03  0.10000000000E+01 0.  0.
    9000005    1    3    3    0    0  0.57381999931E+01  0.40883772317E+02  0.59750262593E+01  0.41726618804E+02  0.10000000000E+01 0.  0.
<mgrwt>
<rscale>  0 0.12500326E+03</rscale>
<asrwt>0</asrwt>
<pdfrwt beam="2">  1        4 0.31418751E-02 0.12500326E+03</pdfrwt>
<pdfrwt beam="1">  1       -4 0.29428430E-01 0.12500326E+03</pdfrwt>
<totfact> 0.88191431E+03</totfact>
</mgrwt>
</event>
<event>
 5    1  0.3331626E-002  0.1249970E+03  0.7818608E-02  0.1235074E+00
         -4   -1    0    0    0  501 -0.00000000000E+00  0.00000000000E+00  0.38385577932E+01  0.40431950153E+01  0.12700000000E+01 0.  1.
          4   -1    0    0  501    0  0.00000000000E+00 -0.00000000000E+00 -0.99096021278E+03  0.99096102659E+03  0.12700000000E+01 0.  1.
         25    2    1    2    0    0  0.00000000000E+00  0.00000000000E+00 -0.98712165499E+03  0.99500422161E+03  0.12499695701E+03 0.  0.
    9000005    1    3    3    0    0 -0.41927817303E+02  0.23713537415E+02 -0.17666916794E+03  0.18312091257E+03  0.10000000000E+01 0.  0.
    9000005    1    3    3    0    0  0.41927817303E+02 -0.23713537415E+02 -0.81045248705E+03  0.81188330904E+03  0.10000000000E+01 0.  0.
<mgrwt>
<rscale>  0 0.12499696E+03</rscale>
<asrwt>0</asrwt>
<pdfrwt beam="2">  1        4 0.15247102E+00 0.12499696E+03</pdfrwt>
<pdfrwt beam="1">  1       -4 0.60635207E-03 0.12499696E+03</pdfrwt>
<totfact> 0.30772092E+03</totfact>
</mgrwt>
</event>
<event>
 5    1  0.3331626E-002  0.1249950E+03  0.7818608E-02  0.1235077E+00
         -4   -1    0    0    0  501 -0.00000000000E+00  0.00000000000E+00  0.59711180077E+02  0.59724684396E+02  0.12700000000E+01 0.  1.
          4   -1    0    0  501    0  0.00000000000E+00 -0.00000000000E+00 -0.65386741284E+02  0.65399073661E+02  0.12700000000E+01 0.  1.
         25    2    1    2    0    0  0.00000000000E+00  0.00000000000E+00 -0.56755612069E+01  0.12512375806E+03  0.12499497124E+03 0.  0.
    9000005    1    3    3    0    0  0.18059126512E+02 -0.27739369479E+02 -0.55895514549E+02  0.64968555596E+02  0.10000000000E+01 0.  0.
    9000005    1    3    3    0    0 -0.18059126512E+02  0.27739369479E+02  0.50219953342E+02  0.60155202461E+02  0.10000000000E+01 0.  0.
<mgrwt>
<rscale>  0 0.12499497E+03</rscale>
<asrwt>0</asrwt>
<pdfrwt beam="2">  1        4 0.10061486E-01 0.12499497E+03</pdfrwt>
<pdfrwt beam="1">  1       -4 0.91883228E-02 0.12499497E+03</pdfrwt>
<totfact> 0.10451363E+04</totfact>
</mgrwt>
</event>
<event>
 5    1  0.3331626E-002  0.1250022E+03  0.7818608E-02  0.1235066E+00
         -4   -1    0    0    0  501 -0.00000000000E+00  0.00000000000E+00  0.62799782266E+02  0.62812622559E+02  0.12700000000E+01 0. -1.
          4   -1    0    0  501    0  0.00000000000E+00 -0.00000000000E+00 -0.62178148331E+02  0.62191116970E+02  0.12700000000E+01 0. -1.
         25    2    1    2    0    0  0.00000000000E+00  0.00000000000E+00  0.62163393478E+00  0.12500373953E+03  0.12500219385E+03 0.  0.
    9000005    1    3    3    0    0  0.39702307226E+02 -0.47736217272E+02  0.74079096080E+01  0.62537163057E+02  0.10000000000E+01 0.  0.
    9000005    1    3    3    0    0 -0.39702307226E+02  0.47736217272E+02 -0.67862756732E+01  0.62466576471E+02  0.10000000000E+01 0.  0.
<mgrwt>
<rscale>  0 0.12500219E+03</rscale>
<asrwt>0</asrwt>
<pdfrwt beam="2">  1        4 0.95678543E-02 0.12500219E+03</pdfrwt>
<pdfrwt beam="1">  1       -4 0.96634903E-02 0.12500219E+03</pdfrwt>
<totfact> 0.10452263E+04</totfact>
</mgrwt>
</event>
<event>
 5    1  0.3331626E-002  0.1249947E+03  0.7818608E-02  0.1235078E+00
          4   -1    0    0  501    0  0.00000000000E+00  0.00000000000E+00  0.16314494881E+03  0.16314989188E+03  0.12700000000E+01 0. -1.
         -4   -1    0    0    0  501 -0.00000000000E+00 -0.00000000000E+00 -0.23919265283E+02  0.23952957055E+02  0.12700000000E+01 0. -1.
         25    2    1    2    0    0  0.00000000000E+00  0.00000000000E+00  0.13922568353E+03  0.18710284894E+03  0.12499474040E+03 0.  0.
    9000005    1    3    3    0    0 -0.14634115604E+02 -0.53012710873E+02  0.11402815511E+03  0.12660144158E+03  0.10000000000E+01 0.  0.
    9000005    1    3    3    0    0  0.14634115604E+02  0.53012710873E+02  0.25197528416E+02  0.60501407354E+02  0.10000000000E+01 0.  0.
<mgrwt>
<rscale>  0 0.12499474E+03</rscale>
<asrwt>0</asrwt>
<pdfrwt beam="1">  1        4 0.25102195E-01 0.12499474E+03</pdfrwt>
<pdfrwt beam="2">  1       -4 0.36828588E-02 0.12499474E+03</pdfrwt>
<totfact> 0.92364750E+03</totfact>
</mgrwt>
</event>
<event>
 5    1  0.3331626E-002  0.1250060E+03  0.7818608E-02  0.1235060E+00
         -4   -1    0    0    0  501 -0.00000000000E+00  0.00000000000E+00  0.12427091259E+02  0.12491817208E+02  0.12700000000E+01 0. -1.
          4   -1    0    0  501    0  0.00000000000E+00 -0.00000000000E+00 -0.31348106480E+03  0.31348363735E+03  0.12700000000E+01 0. -1.
         25    2    1    2    0    0  0.00000000000E+00  0.00000000000E+00 -0.30105397354E+03  0.32597545456E+03  0.12500600782E+03 0.  0.
    9000005    1    3    3    0    0 -0.38793424458E+02  0.19719535806E+02 -0.33563512288E+02  0.54966346346E+02  0.10000000000E+01 0.  0.
    9000005    1    3    3    0    0  0.38793424458E+02 -0.19719535806E+02 -0.26749046125E+03  0.27100910821E+03  0.10000000000E+01 0.  0.
<mgrwt>
<rscale>  0 0.12500601E+03</rscale>
<asrwt>0</asrwt>
<pdfrwt beam="2">  1        4 0.48233027E-01 0.12500601E+03</pdfrwt>
<pdfrwt beam="1">  1       -4 0.19170372E-02 0.12500601E+03</pdfrwt>
<totfact> 0.72441374E+03</totfact>
</mgrwt>
</event>
<event>
 5    1  0.3331626E-002  0.1250037E+03  0.7818608E-02  0.1235064E+00
          4   -1    0    0  501    0  0.00000000000E+00  0.00000000000E+00  0.34767162379E+02  0.34790350385E+02  0.12700000000E+01 0.  1.
         -4   -1    0    0    0  501 -0.00000000000E+00 -0.00000000000E+00 -0.11229697868E+03  0.11230415985E+03  0.12700000000E+01 0.  1.
         25    2    1    2    0    0  0.00000000000E+00  0.00000000000E+00 -0.77529816299E+02  0.14709451024E+03  0.12500369005E+03 0.  0.
    9000005    1    3    3    0    0 -0.54671676180E+02 -0.30122905850E+02 -0.35215381628E+02  0.71676388974E+02  0.10000000000E+01 0.  0.
    9000005    1    3    3    0    0  0.54671676180E+02  0.30122905850E+02 -0.42314434671E+02  0.75418121263E+02  0.10000000000E+01 0.  0.
<mgrwt>
<rscale>  0 0.12500369E+03</rscale>
<asrwt>0</asrwt>
<pdfrwt beam="1">  1        4 0.53511304E-02 0.12500369E+03</pdfrwt>
<pdfrwt beam="2">  1       -4 0.17278794E-01 0.12500369E+03</pdfrwt>
<totfact> 0.99877752E+03</totfact>
</mgrwt>
</event>
<event>
 5    1  0.3331626E-002  0.1250001E+03  0.7818608E-02  0.1235069E+00
          4   -1    0    0  501    0  0.00000000000E+00  0.00000000000E+00  0.40007037063E+01  0.41974432868E+01  0.12700000000E+01 0. -1.
         -4   -1    0    0    0  501 -0.00000000000E+00 -0.00000000000E+00 -0.95276286148E+03  0.95276370791E+03  0.12700000000E+01 0. -1.
         25    2    1    2    0    0  0.00000000000E+00  0.00000000000E+00 -0.94876215777E+03  0.95696115120E+03  0.12500005153E+03 0.  0.
    9000005    1    3    3    0    0  0.18737104137E+02  0.59519001115E+02 -0.50052572906E+03  0.50440122523E+03  0.10000000000E+01 0.  0.
    9000005    1    3    3    0    0 -0.18737104137E+02 -0.59519001115E+02 -0.44823642871E+03  0.45255992597E+03  0.10000000000E+01 0.  0.
<mgrwt>
<rscale>  0 0.12500005E+03</rscale>
<asrwt>0</asrwt>
<pdfrwt beam="1">  1        4 0.63069256E-03 0.12500005E+03</pdfrwt>
<pdfrwt beam="2">  1       -4 0.14659392E+00 0.12500005E+03</pdfrwt>
<totfact> 0.32070106E+03</totfact>
</mgrwt>
</event>
<event>
 5    1  0.3331626E-002  0.1250001E+03  0.7818608E-02  0.1235069E+00
         -4   -1    0    0    0  501 -0.00000000000E+00  0.00000000000E+00  0.25077845304E+02  0.25109982578E+02  0.12700000000E+01 0.  1.
          4   -1    0    0  501    0  0.00000000000E+00 -0.00000000000E+00 -0.15563075333E+03  0.15563593506E+03  0.12700000000E+01 0.  1.
         25    2    1    2    0    0  0.00000000000E+00  0.00000000000E+00 -0.13055290803E+03  0.18074591764E+03  0.12500009980E+03 0.  0.
    9000005    1    3    3    0    0 -0.81288270059E+00 -0.62461355681E+02 -0.67852752505E+02  0.92233821098E+02  0.10000000000E+01 0.  0.
    9000005    1    3    3    0    0  0.81288270059E+00  0.62461355681E+02 -0.62700155523E+02  0.88512096543E+02  0.10000000000E+01 0.  0.
<mgrwt>
<rscale>  0 0.12500010E+03</rscale>
<asrwt>0</asrwt>
<pdfrwt beam="2">  1        4 0.23946063E-01 0.12500010E+03</pdfrwt>
<pdfrwt beam="1">  1       -4 0.38610008E-02 0.12500010E+03</pdfrwt>
<totfact> 0.93482699E+03</totfact>
</mgrwt>
</event>
<event>
 5    1  0.3331626E-002  0.1250244E+03  0.7818608E-02  0.1235031E+00
         -4   -1    0    0    0  501 -0.00000000000E+00  0.00000000000E+00  0.33912215427E+02  0.33935987612E+02  0.12700000000E+01 0.  1.
          4   -1    0    0  501    0  0.00000000000E+00 -0.00000000000E+00 -0.11516438947E+03  0.11517139186E+03  0.12700000000E+01 0.  1.
         25    2    1    2    0    0  0.00000000000E+00  0.00000000000E+00 -0.81252174043E+02  0.14910737947E+03  0.12502437692E+03 0.  0.
    9000005    1    3    3    0    0  0.25762747569E+02 -0.50943142469E+02 -0.70981904408E+02  0.91095299990E+02  0.10000000000E+01 0.  0.
    9000005    1    3    3    0    0 -0.25762747569E+02  0.50943142469E+02 -0.10270269635E+02  0.58012079477E+02  0.10000000000E+01 0.  0.
<mgrwt>
<rscale>  0 0.12502438E+03</rscale>
<asrwt>0</asrwt>
<pdfrwt beam="2">  1        4 0.17719965E-01 0.12502438E+03</pdfrwt>
<pdfrwt beam="1">  1       -4 0.52196313E-02 0.12502438E+03</pdfrwt>
<totfact> 0.99427363E+03</totfact>
</mgrwt>
</event>
<event>
 5    1  0.3331626E-002  0.1249956E+03  0.7818608E-02  0.1235076E+00
          4   -1    0    0  501    0  0.00000000000E+00  0.00000000000E+00  0.23907493963E+03  0.23907831282E+03  0.12700000000E+01 0. -1.
         -4   -1    0    0    0  501 -0.00000000000E+00 -0.00000000000E+00 -0.16309684221E+02  0.16359055577E+02  0.12700000000E+01 0. -1.
         25    2    1    2    0    0  0.00000000000E+00  0.00000000000E+00  0.22276525541E+03  0.25543736840E+03  0.12499556054E+03 0.  0.
    9000005    1    3    3    0    0  0.48076977864E+02 -0.37005964565E+02  0.80788012376E+02  0.10103732062E+03  0.10000000000E+01 0.  0.
    9000005    1    3    3    0    0 -0.48076977864E+02  0.37005964565E+02  0.14197724304E+03  0.15440004778E+03  0.10000000000E+01 0.  0.
<mgrwt>
<rscale>  0 0.12499556E+03</rscale>
<asrwt>0</asrwt>
<pdfrwt beam="1">  1        4 0.36784812E-01 0.12499556E+03</pdfrwt>
<pdfrwt beam="2">  1       -4 0.25132398E-02 0.12499556E+03</pdfrwt>
<totfact> 0.81558721E+03</totfact>
</mgrwt>
</event>
<event>
 4    1  0.3331626E-002  0.1252194E+03  0.7818608E-02  0.1234727E+00
         -4   -1    0    0    0  501 -0.00000000000E+00  0.00000000000E+00  0.21598355950E+03  0.21598729332E+03  0.12700000000E+01 0.  1.
          4   -1    0    0  501    0  0.00000000000E+00 -0.00000000000E+00 -0.18123299929E+02  0.18167743402E+02  0.12700000000E+01 0.  1.
    9000005    1    1    2    0    0 -0.17943950153E+02  0.58445179674E+02  0.12409828974E+03  0.13834453329E+03  0.10000000000E+01 0.  0.
    9000005    1    1    2    0    0  0.17943950153E+02 -0.58445179674E+02  0.73761969831E+02  0.95810503431E+02  0.10000000000E+01 0.  0.
<mgrwt>
<rscale>  0 0.12521940E+03</rscale>
<asrwt>0</asrwt>
<pdfrwt beam="2">  1        4 0.27919062E-02 0.12521940E+03</pdfrwt>
<pdfrwt beam="1">  1       -4 0.33231942E-01 0.12521940E+03</pdfrwt>
<totfact> 0.84262611E+03</totfact>
</mgrwt>
</event>
<event>
 5    1  0.3331626E-002  0.1249994E+03  0.7818608E-02  0.1235070E+00
          4   -1    0    0  501    0  0.00000000000E+00  0.00000000000E+00  0.41757027876E+02  0.41776336329E+02  0.12700000000E+01 0.  1.
         -4   -1    0    0    0  501 -0.00000000000E+00 -0.00000000000E+00 -0.93501027311E+02  0.93509651952E+02  0.12700000000E+01 0.  1.
         25    2    1    2    0    0  0.00000000000E+00  0.00000000000E+00 -0.51743999435E+02  0.13528598828E+03  0.12499942859E+03 0.  0.
    9000005    1    3    3    0    0  0.21973263551E+02  0.24211808863E+02 -0.83510351700E+02  0.89688432033E+02  0.10000000000E+01 0.  0.
    9000005    1    3    3    0    0 -0.21973263551E+02 -0.24211808863E+02  0.31766352265E+02  0.45597556247E+02  0.10000000000E+01 0.  0.
<mgrwt>
<rscale>  0 0.12499943E+03</rscale>
<asrwt>0</asrwt>
<pdfrwt beam="1">  1        4 0.64263069E-02 0.12499943E+03</pdfrwt>
<pdfrwt beam="2">  1       -4 0.14386922E-01 0.12499943E+03</pdfrwt>
<totfact> 0.10232178E+04</totfact>
</mgrwt>
</event>
<event>
 5    1  0.3331626E-002  0.1249990E+03  0.7818608E-02  0.1235071E+00
          4   -1    0    0  501    0  0.00000000000E+00  0.00000000000E+00  0.60163972905E+02  0.60177375613E+02  0.12700000000E+01 0. -1.
         -4   -1    0    0    0  501 -0.00000000000E+00 -0.00000000000E+00 -0.64898810656E+02  0.64911235734E+02  0.12700000000E+01 0. -1.
         25    2    1    2    0    0  0.00000000000E+00  0.00000000000E+00 -0.47348377505E+01  0.12508861135E+03  0.12499896800E+03 0.  0.
    9000005    1    3    3    0    0 -0.55481000460E+02  0.19668203442E+01  0.26344195752E+02  0.61457517393E+02  0.10000000000E+01 0.  0.
    9000005    1    3    3    0    0  0.55481000460E+02 -0.19668203442E+01 -0.31079033502E+02  0.63631093954E+02  0.10000000000E+01 0.  0.
<mgrwt>
<rscale>  0 0.12499897E+03</rscale>
<asrwt>0</asrwt>
<pdfrwt beam="1">  1        4 0.92579826E-02 0.12499897E+03</pdfrwt>
<pdfrwt beam="2">  1       -4 0.99864192E-02 0.12499897E+03</pdfrwt>
<totfact> 0.10451182E+04</totfact>
</mgrwt>
</event>
<event>
 5    1  0.3331626E-002  0.1250029E+03  0.7818608E-02  0.1235065E+00
          4   -1    0    0  501    0  0.00000000000E+00  0.00000000000E+00  0.58157661544E+02  0.58171526508E+02  0.12700000000E+01 0.  1.
         -4   -1    0    0    0  501 -0.00000000000E+00 -0.00000000000E+00 -0.67141845491E+02  0.67153855555E+02  0.12700000000E+01 0.  1.
         25    2    1    2    0    0  0.00000000000E+00  0.00000000000E+00 -0.89841839474E+01  0.12532538206E+03  0.12500294328E+03 0.  0.
    9000005    1    3    3    0    0  0.52596937111E+01 -0.36475772332E+02  0.46108755452E+02  0.59035274831E+02  0.10000000000E+01 0.  0.
    9000005    1    3    3    0    0 -0.52596937111E+01  0.36475772332E+02 -0.55092939399E+02  0.66290107231E+02  0.10000000000E+01 0.  0.
<mgrwt>
<rscale>  0 0.12500294E+03</rscale>
<asrwt>0</asrwt>
<pdfrwt beam="1">  1        4 0.89493230E-02 0.12500294E+03</pdfrwt>
<pdfrwt beam="2">  1       -4 0.10331505E-01 0.12500294E+03</pdfrwt>
<totfact> 0.10445105E+04</totfact>
</mgrwt>
</event>
<event>
 5    1  0.3331626E-002  0.1250008E+03  0.7818608E-02  0.1235068E+00
          4   -1    0    0  501    0  0.00000000000E+00  0.00000000000E+00  0.38067125513E+03  0.38067337362E+03  0.12700000000E+01 0. -1.
         -4   -1    0    0    0  501 -0.00000000000E+00 -0.00000000000E+00 -0.10220154429E+02  0.10298759952E+02  0.12700000000E+01 0. -1.
         25    2    1    2    0    0  0.00000000000E+00  0.00000000000E+00  0.37045110070E+03  0.39097213357E+03  0.12500076487E+03 0.  0.
    9000005    1    3    3    0    0  0.39938093120E+02  0.28748949432E+02  0.30570491942E+03  0.30964181102E+03  0.10000000000E+01 0.  0.
    9000005    1    3    3    0    0 -0.39938093120E+02 -0.28748949432E+02  0.64746181284E+02  0.81330322552E+02  0.10000000000E+01 0.  0.
<mgrwt>
<rscale>  0 0.12500076E+03</rscale>
<asrwt>0</asrwt>
<pdfrwt beam="1">  1        4 0.58571004E-01 0.12500076E+03</pdfrwt>
<pdfrwt beam="2">  1       -4 0.15785414E-02 0.12500076E+03</pdfrwt>
<totfact> 0.65439304E+03</totfact>
</mgrwt>
</event>
<event>
 5    1  0.3331626E-002  0.1249998E+03  0.7818608E-02  0.1235070E+00
          4   -1    0    0  501    0  0.00000000000E+00  0.00000000000E+00  0.16641237405E+03  0.16641722007E+03  0.12700000000E+01 0.  1.
         -4   -1    0    0    0  501 -0.00000000000E+00 -0.00000000000E+00 -0.23450858656E+02  0.23485222411E+02  0.12700000000E+01 0.  1.
         25    2    1    2    0    0  0.00000000000E+00  0.00000000000E+00  0.14296151539E+03  0.18990244248E+03  0.12499977111E+03 0.  0.
    9000005    1    3    3    0    0  0.60991859385E+02  0.68073331166E+01  0.89384971559E+02  0.10842979220E+03  0.10000000000E+01 0.  0.
    9000005    1    3    3    0    0 -0.60991859385E+02 -0.68073331166E+01  0.53576543835E+02  0.81472650287E+02  0.10000000000E+01 0.  0.
<mgrwt>
<rscale>  0 0.12499977E+03</rscale>
<asrwt>0</asrwt>
<pdfrwt beam="1">  1        4 0.25604920E-01 0.12499977E+03</pdfrwt>
<pdfrwt beam="2">  1       -4 0.36108405E-02 0.12499977E+03</pdfrwt>
<totfact> 0.91864762E+03</totfact>
</mgrwt>
</event>
<event>
 5    1  0.3331626E-002  0.1249981E+03  0.7818608E-02  0.1235072E+00
         -4   -1    0    0    0  501 -0.00000000000E+00  0.00000000000E+00  0.45292718959E+02  0.45310520751E+02  0.12700000000E+01 0. -1.
          4   -1    0    0  501    0  0.00000000000E+00 -0.00000000000E+00 -0.86202567838E+02  0.86211922620E+02  0.12700000000E+01 0. -1.
         25    2    1    2    0    0  0.00000000000E+00  0.00000000000E+00 -0.40909848879E+02  0.13152244337E+03  0.12499814949E+03 0.  0.
    9000005    1    3    3    0    0  0.58088059942E+02  0.14743000962E+02 -0.18231792169E+01  0.59965846677E+02  0.10000000000E+01 0.  0.
    9000005    1    3    3    0    0 -0.58088059942E+02 -0.14743000962E+02 -0.39086669662E+02  0.71556596694E+02  0.10000000000E+01 0.  0.
<mgrwt>
<rscale>  0 0.12499815E+03</rscale>
<asrwt>0</asrwt>
<pdfrwt beam="2">  1        4 0.13264022E-01 0.12499815E+03</pdfrwt>
<pdfrwt beam="1">  1       -4 0.69701996E-02 0.12499815E+03</pdfrwt>
<totfact> 0.10312333E+04</totfact>
</mgrwt>
</event>
<event>
 5    1  0.3331626E-002  0.1249990E+03  0.7818608E-02  0.1235071E+00
         -4   -1    0    0    0  501 -0.00000000000E+00  0.00000000000E+00  0.81623529240E+02  0.81633408759E+02  0.12700000000E+01 0. -1.
          4   -1    0    0  501    0  0.00000000000E+00 -0.00000000000E+00 -0.47834970420E+02  0.47851826455E+02  0.12700000000E+01 0. -1.
         25    2    1    2    0    0  0.00000000000E+00  0.00000000000E+00  0.33788558820E+02  0.12948523521E+03  0.12499903772E+03 0.  0.
    9000005    1    3    3    0    0  0.48605122118E+02 -0.30415364222E+02 -0.88499820212E+01  0.58024774525E+02  0.10000000000E+01 0.  0.
    9000005    1    3    3    0    0 -0.48605122118E+02  0.30415364222E+02  0.42638540841E+02  0.71460460689E+02  0.10000000000E+01 0.  0.
<mgrwt>
<rscale>  0 0.12499904E+03</rscale>
<asrwt>0</asrwt>
<pdfrwt beam="2">  1        4 0.73612829E-02 0.12499904E+03</pdfrwt>
<pdfrwt beam="1">  1       -4 0.12559522E-01 0.12499904E+03</pdfrwt>
<totfact> 0.10355757E+04</totfact>
</mgrwt>
</event>
<event>
 5    1  0.3331626E-002  0.1250144E+03  0.7818608E-02  0.1235047E+00
          4   -1    0    0  501    0  0.00000000000E+00  0.00000000000E+00  0.19135128368E+03  0.19135549814E+03  0.12700000000E+01 0.  1.
         -4   -1    0    0    0  501 -0.00000000000E+00 -0.00000000000E+00 -0.20394526242E+02  0.20434030455E+02  0.12700000000E+01 0.  1.
         25    2    1    2    0    0  0.00000000000E+00  0.00000000000E+00  0.17095675744E+03  0.21178952859E+03  0.12501436520E+03 0.  0.
    9000005    1    3    3    0    0  0.11928801406E+02  0.41304234532E+02  0.16232900103E+03  0.16792867733E+03  0.10000000000E+01 0.  0.
    9000005    1    3    3    0    0 -0.11928801406E+02 -0.41304234532E+02  0.86277564138E+01  0.43860851268E+02  0.10000000000E+01 0.  0.
<mgrwt>
<rscale>  0 0.12501437E+03</rscale>
<asrwt>0</asrwt>
<pdfrwt beam="1">  1        4 0.29442021E-01 0.12501437E+03</pdfrwt>
<pdfrwt beam="2">  1       -4 0.31409825E-02 0.12501437E+03</pdfrwt>
<totfact> 0.88156149E+03</totfact>
</mgrwt>
</event>
<event>
 5    1  0.3331626E-002  0.1249955E+03  0.7818608E-02  0.1235076E+00
         -4   -1    0    0    0  501 -0.00000000000E+00  0.00000000000E+00  0.60215816304E+02  0.60229207476E+02  0.12700000000E+01 0.  1.
          4   -1    0    0  501    0  0.00000000000E+00 -0.00000000000E+00 -0.64839325734E+02  0.64851762210E+02  0.12700000000E+01 0.  1.
         25    2    1    2    0    0  0.00000000000E+00  0.00000000000E+00 -0.46235094303E+01  0.12508096969E+03  0.12499548847E+03 0.  0.
    9000005    1    3    3    0    0  0.53815701471E+02  0.72853499708E+01 -0.33248297424E+02  0.63684027280E+02  0.10000000000E+01 0.  0.
    9000005    1    3    3    0    0 -0.53815701471E+02 -0.72853499708E+01  0.28624787993E+02  0.61396942405E+02  0.10000000000E+01 0.  0.
<mgrwt>
<rscale>  0 0.12499549E+03</rscale>
<asrwt>0</asrwt>
<pdfrwt beam="2">  1        4 0.99772676E-02 0.12499549E+03</pdfrwt>
<pdfrwt beam="1">  1       -4 0.92659585E-02 0.12499549E+03</pdfrwt>
<totfact> 0.10452170E+04</totfact>
</mgrwt>
</event>
<event>
 5    1  0.3331626E-002  0.1250187E+03  0.7818608E-02  0.1235040E+00
          4   -1    0    0  501    0  0.00000000000E+00  0.00000000000E+00  0.14565525163E+02  0.14620787369E+02  0.12700000000E+01 0.  1.
         -4   -1    0    0    0  501 -0.00000000000E+00 -0.00000000000E+00 -0.26770027434E+03  0.26770328683E+03  0.12700000000E+01 0.  1.
         25    2    1    2    0    0  0.00000000000E+00  0.00000000000E+00 -0.25313474917E+03  0.28232407420E+03  0.12501872513E+03 0.  0.
    9000005    1    3    3    0    0 -0.61480116785E+02  0.40105869392E+01 -0.10282552312E+03  0.11987484211E+03  0.10000000000E+01 0.  0.
    9000005    1    3    3    0    0  0.61480116785E+02 -0.40105869392E+01 -0.15030922605E+03  0.16244923208E+03  0.10000000000E+01 0.  0.
<mgrwt>
<rscale>  0 0.12501873E+03</rscale>
<asrwt>0</asrwt>
<pdfrwt beam="1">  1        4 0.22453329E-02 0.12501873E+03</pdfrwt>
<pdfrwt beam="2">  1       -4 0.41189137E-01 0.12501873E+03</pdfrwt>
<totfact> 0.77838559E+03</totfact>
</mgrwt>
</event>
<event>
 5    1  0.3331626E-002  0.1249975E+03  0.7818608E-02  0.1235073E+00
         -4   -1    0    0    0  501 -0.00000000000E+00  0.00000000000E+00  0.51869855799E+02  0.51885401035E+02  0.12700000000E+01 0. -1.
          4   -1    0    0  501    0  0.00000000000E+00 -0.00000000000E+00 -0.75273424496E+02  0.75284137342E+02  0.12700000000E+01 0. -1.
         25    2    1    2    0    0  0.00000000000E+00  0.00000000000E+00 -0.23403568697E+02  0.12716953838E+03  0.12499745783E+03 0.  0.
    9000005    1    3    3    0    0 -0.14971938772E+02  0.56583434182E+02 -0.33973910603E+02  0.67683606406E+02  0.10000000000E+01 0.  0.
    9000005    1    3    3    0    0  0.14971938772E+02 -0.56583434182E+02  0.10570341906E+02  0.59485931971E+02  0.10000000000E+01 0.  0.
<mgrwt>
<rscale>  0 0.12499746E+03</rscale>
<asrwt>0</asrwt>
<pdfrwt beam="2">  1        4 0.11582547E-01 0.12499746E+03</pdfrwt>
<pdfrwt beam="1">  1       -4 0.79819977E-02 0.12499746E+03</pdfrwt>
<totfact> 0.10406062E+04</totfact>
</mgrwt>
</event>
<event>
 5    1  0.3331626E-002  0.1249675E+03  0.7818608E-02  0.1235120E+00
          4   -1    0    0  501    0  0.00000000000E+00  0.00000000000E+00  0.34759589053E+03  0.34759821060E+03  0.12700000000E+01 0. -1.
         -4   -1    0    0    0  501 -0.00000000000E+00 -0.00000000000E+00 -0.11193789810E+02  0.11265603859E+02  0.12700000000E+01 0. -1.
         25    2    1    2    0    0  0.00000000000E+00  0.00000000000E+00  0.33640210072E+03  0.35886381446E+03  0.12496745161E+03 0.  0.
    9000005    1    3    3    0    0 -0.16336726945E+02 -0.45835033471E+02  0.28072744915E+03  0.28491514464E+03  0.10000000000E+01 0.  0.
    9000005    1    3    3    0    0  0.16336726945E+02  0.45835033471E+02  0.55674651574E+02  0.73948669822E+02  0.10000000000E+01 0.  0.
<mgrwt>
<rscale>  0 0.12496745E+03</rscale>
<asrwt>0</asrwt>
<pdfrwt beam="1">  1        4 0.53481982E-01 0.12496745E+03</pdfrwt>
<pdfrwt beam="2">  1       -4 0.17278245E-02 0.12496745E+03</pdfrwt>
<totfact> 0.68809846E+03</totfact>
</mgrwt>
</event>
<event>
 4    1  0.3331626E-002  0.1199020E+03  0.7818608E-02  0.1243259E+00
          4   -1    0    0  501    0  0.00000000000E+00  0.00000000000E+00  0.50570455799E+02  0.50586400343E+02  0.12700000000E+01 0.  1.
         -4   -1    0    0    0  501 -0.00000000000E+00 -0.00000000000E+00 -0.71038784306E+02  0.71050135649E+02  0.12700000000E+01 0.  1.
    9000005    1    1    2    0    0  0.44365445711E+02 -0.38540421951E+02 -0.22214605582E+02  0.62834270892E+02  0.10000000000E+01 0.  0.
    9000005    1    1    2    0    0 -0.44365445711E+02  0.38540421951E+02  0.17462770747E+01  0.58802265100E+02  0.10000000000E+01 0.  0.
<mgrwt>
<rscale>  0 0.11990202E+03</rscale>
<asrwt>0</asrwt>
<pdfrwt beam="1">  1        4 0.77821698E-02 0.11990202E+03</pdfrwt>
<pdfrwt beam="2">  1       -4 0.10931143E-01 0.11990202E+03</pdfrwt>
<totfact> 0.11836916E+04</totfact>
</mgrwt>
</event>
<event>
 5    1  0.3331626E-002  0.1249987E+03  0.7818608E-02  0.1235071E+00
          4   -1    0    0  501    0  0.00000000000E+00  0.00000000000E+00  0.13589209323E+04  0.13589215257E+04  0.12700000000E+01 0. -1.
         -4   -1    0    0    0  501 -0.00000000000E+00 -0.00000000000E+00 -0.27335598090E+01  0.30141747178E+01  0.12700000000E+01 0. -1.
         25    2    1    2    0    0  0.00000000000E+00  0.00000000000E+00  0.13561873725E+04  0.13619357005E+04  0.12499865160E+03 0.  0.
    9000005    1    3    3    0    0 -0.56711344939E+01  0.30971319647E+02  0.12662323808E+04  0.12666241853E+04  0.10000000000E+01 0.  0.
    9000005    1    3    3    0    0  0.56711344939E+01 -0.30971319647E+02  0.89954991633E+02  0.95311515185E+02  0.10000000000E+01 0.  0.
<mgrwt>
<rscale>  0 0.12499865E+03</rscale>
<asrwt>0</asrwt>
<pdfrwt beam="1">  1        4 0.20908664E+00 0.12499865E+03</pdfrwt>
<pdfrwt beam="2">  1       -4 0.44217855E-03 0.12499865E+03</pdfrwt>
<totfact> 0.20812690E+03</totfact>
</mgrwt>
</event>
<event>
 5    1  0.3331626E-002  0.1250010E+03  0.7818608E-02  0.1235068E+00
          4   -1    0    0  501    0  0.00000000000E+00  0.00000000000E+00  0.11634327938E+02  0.11703439091E+02  0.12700000000E+01 0.  1.
         -4   -1    0    0    0  501 -0.00000000000E+00 -0.00000000000E+00 -0.33469262872E+03  0.33469503824E+03  0.12700000000E+01 0.  1.
         25    2    1    2    0    0  0.00000000000E+00  0.00000000000E+00 -0.32305830078E+03  0.34639847733E+03  0.12500095756E+03 0.  0.
    9000005    1    3    3    0    0  0.39118825700E+02  0.28244684553E+02 -0.51472831207E+02  0.70558465701E+02  0.10000000000E+01 0.  0.
    9000005    1    3    3    0    0 -0.39118825700E+02 -0.28244684553E+02 -0.27158546958E+03  0.27584001163E+03  0.10000000000E+01 0.  0.
<mgrwt>
<rscale>  0 0.12500096E+03</rscale>
<asrwt>0</asrwt>
<pdfrwt beam="1">  1        4 0.17953984E-02 0.12500096E+03</pdfrwt>
<pdfrwt beam="2">  1       -4 0.51496668E-01 0.12500096E+03</pdfrwt>
<totfact> 0.70121110E+03</totfact>
</mgrwt>
</event>
<event>
 5    1  0.3331626E-002  0.1249992E+03  0.7818608E-02  0.1235071E+00
         -4   -1    0    0    0  501 -0.00000000000E+00  0.00000000000E+00  0.22527823216E+03  0.22528181193E+03  0.12700000000E+01 0. -1.
          4   -1    0    0  501    0  0.00000000000E+00 -0.00000000000E+00 -0.17312462427E+02  0.17358981977E+02  0.12700000000E+01 0. -1.
         25    2    1    2    0    0  0.00000000000E+00  0.00000000000E+00  0.20796576973E+03  0.24264079390E+03  0.12499917394E+03 0.  0.
    9000005    1    3    3    0    0 -0.22067149512E+01 -0.47571778860E+02  0.25438563837E+02  0.54000595042E+02  0.10000000000E+01 0.  0.
    9000005    1    3    3    0    0  0.22067149512E+01  0.47571778860E+02  0.18252720589E+03  0.18864019886E+03  0.10000000000E+01 0.  0.
<mgrwt>
<rscale>  0 0.12499917E+03</rscale>
<asrwt>0</asrwt>
<pdfrwt beam="2">  1        4 0.26673097E-02 0.12499917E+03</pdfrwt>
<pdfrwt beam="1">  1       -4 0.34662042E-01 0.12499917E+03</pdfrwt>
<totfact> 0.83407170E+03</totfact>
</mgrwt>
</event>
<event>
 5    1  0.3331626E-002  0.1250001E+03  0.7818608E-02  0.1235069E+00
          4   -1    0    0  501    0  0.00000000000E+00  0.00000000000E+00  0.61350405396E+03  0.61350536845E+03  0.12700000000E+01 0. -1.
         -4   -1    0    0    0  501 -0.00000000000E+00 -0.00000000000E+00 -0.63024595664E+01  0.64291443121E+01  0.12700000000E+01 0. -1.
         25    2    1    2    0    0  0.00000000000E+00  0.00000000000E+00  0.60720159439E+03  0.61993451276E+03  0.12500009555E+03 0.  0.
    9000005    1    3    3    0    0 -0.20323417278E+02 -0.51002336309E+02  0.45163721372E+03  0.45496313303E+03  0.10000000000E+01 0.  0.
    9000005    1    3    3    0    0  0.20323417278E+02  0.51002336309E+02  0.15556438067E+03  0.16497137973E+03  0.10000000000E+01 0.  0.
<mgrwt>
<rscale>  0 0.12500010E+03</rscale>
<asrwt>0</asrwt>
<pdfrwt beam="1">  1        4 0.94395109E-01 0.12500010E+03</pdfrwt>
<pdfrwt beam="2">  1       -4 0.97945502E-03 0.12500010E+03</pdfrwt>
<totfact> 0.47632878E+03</totfact>
</mgrwt>
</event>
<event>
 5    1  0.3331626E-002  0.1250036E+03  0.7818608E-02  0.1235064E+00
          4   -1    0    0  501    0  0.00000000000E+00  0.00000000000E+00  0.60460053971E+02  0.60473391059E+02  0.12700000000E+01 0. -1.
         -4   -1    0    0    0  501 -0.00000000000E+00 -0.00000000000E+00 -0.64585812985E+02  0.64598298266E+02  0.12700000000E+01 0. -1.
         25    2    1    2    0    0  0.00000000000E+00  0.00000000000E+00 -0.41257590140E+01  0.12507168932E+03  0.12500362228E+03 0.  0.
    9000005    1    3    3    0    0 -0.55825141614E+02  0.16383419685E+02  0.20766501625E+02  0.61782768363E+02  0.10000000000E+01 0.  0.
    9000005    1    3    3    0    0  0.55825141614E+02 -0.16383419685E+02 -0.24892260639E+02  0.63288920962E+02  0.10000000000E+01 0.  0.
<mgrwt>
<rscale>  0 0.12500362E+03</rscale>
<asrwt>0</asrwt>
<pdfrwt beam="1">  1        4 0.93035332E-02 0.12500362E+03</pdfrwt>
<pdfrwt beam="2">  1       -4 0.99382652E-02 0.12500362E+03</pdfrwt>
<totfact> 0.10450450E+04</totfact>
</mgrwt>
</event>
<event>
 5    1  0.3331626E-002  0.1249982E+03  0.7818608E-02  0.1235072E+00
          4   -1    0    0  501    0  0.00000000000E+00  0.00000000000E+00  0.71900792015E+02  0.71912007289E+02  0.12700000000E+01 0. -1.
         -4   -1    0    0    0  501 -0.00000000000E+00 -0.00000000000E+00 -0.54303900743E+02  0.54318749396E+02  0.12700000000E+01 0. -1.
         25    2    1    2    0    0  0.00000000000E+00  0.00000000000E+00  0.17596891271E+02  0.12623075669E+03  0.12499821339E+03 0.  0.
    9000005    1    3    3    0    0  0.55096678267E+02  0.26917285913E+02  0.20956851395E+02  0.64810291292E+02  0.10000000000E+01 0.  0.
    9000005    1    3    3    0    0 -0.55096678267E+02 -0.26917285913E+02 -0.33599601237E+01  0.61420465393E+02  0.10000000000E+01 0.  0.
<mgrwt>
<rscale>  0 0.12499821E+03</rscale>
<asrwt>0</asrwt>
<pdfrwt beam="1">  1        4 0.11063665E-01 0.12499821E+03</pdfrwt>
<pdfrwt beam="2">  1       -4 0.83564512E-02 0.12499821E+03</pdfrwt>
<totfact> 0.10426327E+04</totfact>
</mgrwt>
</event>
<event>
 5    1  0.3331626E-002  0.1250064E+03  0.7818608E-02  0.1235059E+00
         -4   -1    0    0    0  501 -0.00000000000E+00  0.00000000000E+00  0.18301049471E+03  0.18301490124E+03  0.12700000000E+01 0. -1.
          4   -1    0    0  501    0  0.00000000000E+00 -0.00000000000E+00 -0.21323018627E+02  0.21360805775E+02  0.12700000000E+01 0. -1.
         25    2    1    2    0    0  0.00000000000E+00  0.00000000000E+00  0.16168747608E+03  0.20437570701E+03  0.12500635861E+03 0.  0.
    9000005    1    3    3    0    0 -0.49515199690E+02 -0.29271305857E+02  0.12079353246E+03  0.13379328022E+03  0.10000000000E+01 0.  0.
    9000005    1    3    3    0    0  0.49515199690E+02  0.29271305857E+02  0.40893943621E+02  0.70582426791E+02  0.10000000000E+01 0.  0.
<mgrwt>
<rscale>  0 0.12500636E+03</rscale>
<asrwt>0</asrwt>
<pdfrwt beam="2">  1        4 0.32837101E-02 0.12500636E+03</pdfrwt>
<pdfrwt beam="1">  1       -4 0.28158706E-01 0.12500636E+03</pdfrwt>
<totfact> 0.89390004E+03</totfact>
</mgrwt>
</event>
<event>
 5    1  0.3331626E-002  0.1249931E+03  0.7818608E-02  0.1235080E+00
          4   -1    0    0  501    0  0.00000000000E+00  0.00000000000E+00  0.22039362839E+03  0.22039728750E+03  0.12700000000E+01 0.  1.
         -4   -1    0    0    0  501 -0.00000000000E+00 -0.00000000000E+00 -0.17695436153E+02  0.17740951515E+02  0.12700000000E+01 0.  1.
         25    2    1    2    0    0  0.00000000000E+00  0.00000000000E+00  0.20269819224E+03  0.23813823901E+03  0.12499305478E+03 0.  0.
    9000005    1    3    3    0    0 -0.15591435401E+02 -0.57402406284E+02  0.13783212709E+03  0.15012269770E+03  0.10000000000E+01 0.  0.
    9000005    1    3    3    0    0  0.15591435401E+02  0.57402406284E+02  0.64866065145E+02  0.88015541312E+02  0.10000000000E+01 0.  0.
<mgrwt>
<rscale>  0 0.12499305E+03</rscale>
<asrwt>0</asrwt>
<pdfrwt beam="1">  1        4 0.33910493E-01 0.12499305E+03</pdfrwt>
<pdfrwt beam="2">  1       -4 0.27261576E-02 0.12499305E+03</pdfrwt>
<totfact> 0.84088449E+03</totfact>
</mgrwt>
</event>
<event>
 5    1  0.3331626E-002  0.1250076E+03  0.7818608E-02  0.1235057E+00
         -4   -1    0    0    0  501 -0.00000000000E+00  0.00000000000E+00  0.36650695152E+02  0.36672692226E+02  0.12700000000E+01 0. -1.
          4   -1    0    0  501    0  0.00000000000E+00 -0.00000000000E+00 -0.10653572019E+03  0.10654328968E+03  0.12700000000E+01 0. -1.
         25    2    1    2    0    0  0.00000000000E+00  0.00000000000E+00 -0.69885025036E+02  0.14321598191E+03  0.12500760277E+03 0.  0.
    9000005    1    3    3    0    0 -0.42593601660E+02  0.65837482741E+01 -0.86791165721E+02  0.96908550143E+02  0.10000000000E+01 0.  0.
    9000005    1    3    3    0    0  0.42593601660E+02 -0.65837482741E+01  0.16906140685E+02  0.46307431764E+02  0.10000000000E+01 0.  0.
<mgrwt>
<rscale>  0 0.12500760E+03</rscale>
<asrwt>0</asrwt>
<pdfrwt beam="2">  1        4 0.16392385E-01 0.12500760E+03</pdfrwt>
<pdfrwt beam="1">  1       -4 0.56408429E-02 0.12500760E+03</pdfrwt>
<totfact> 0.10065639E+04</totfact>
</mgrwt>
</event>
<event>
 5    1  0.3331626E-002  0.1250053E+03  0.7818608E-02  0.1235061E+00
          4   -1    0    0  501    0  0.00000000000E+00  0.00000000000E+00  0.40115838620E+01  0.42078147633E+01  0.12700000000E+01 0. -1.
         -4   -1    0    0    0  501 -0.00000000000E+00 -0.00000000000E+00 -0.95037980583E+03  0.95038065439E+03  0.12700000000E+01 0. -1.
         25    2    1    2    0    0  0.00000000000E+00  0.00000000000E+00 -0.94636822197E+03  0.95458846915E+03  0.12500533541E+03 0.  0.
    9000005    1    3    3    0    0 -0.51363380980E+02 -0.16598357385E+02 -0.71368541808E+03  0.71572451289E+03  0.10000000000E+01 0.  0.
    9000005    1    3    3    0    0  0.51363380980E+02  0.16598357385E+02 -0.23268280389E+03  0.23886395626E+03  0.10000000000E+01 0.  0.
<mgrwt>
<rscale>  0 0.12500534E+03</rscale>
<asrwt>0</asrwt>
<pdfrwt beam="1">  1        4 0.63232746E-03 0.12500534E+03</pdfrwt>
<pdfrwt beam="2">  1       -4 0.14622726E+00 0.12500534E+03</pdfrwt>
<totfact> 0.32149915E+03</totfact>
</mgrwt>
</event>
<event>
 5    1  0.3331626E-002  0.1250016E+03  0.7818608E-02  0.1235067E+00
         -4   -1    0    0    0  501 -0.00000000000E+00  0.00000000000E+00  0.89984191489E+01  0.90875985375E+01  0.12700000000E+01 0. -1.
          4   -1    0    0  501    0  0.00000000000E+00 -0.00000000000E+00 -0.43188456441E+03  0.43188643169E+03  0.12700000000E+01 0. -1.
         25    2    1    2    0    0  0.00000000000E+00  0.00000000000E+00 -0.42288614526E+03  0.44097403023E+03  0.12500161391E+03 0.  0.
    9000005    1    3    3    0    0  0.35435232835E+02 -0.27457765319E+02 -0.36504256812E+03  0.36778616225E+03  0.10000000000E+01 0.  0.
    9000005    1    3    3    0    0 -0.35435232835E+02  0.27457765319E+02 -0.57843577141E+02  0.73187867976E+02  0.10000000000E+01 0.  0.
<mgrwt>
<rscale>  0 0.12500161E+03</rscale>
<asrwt>0</asrwt>
<pdfrwt beam="2">  1        4 0.66450767E-01 0.12500161E+03</pdfrwt>
<pdfrwt beam="1">  1       -4 0.13913761E-02 0.12500161E+03</pdfrwt>
<totfact> 0.60751551E+03</totfact>
</mgrwt>
</event>
<event>
 5    1  0.3331626E-002  0.1249997E+03  0.7818608E-02  0.1235070E+00
         -4   -1    0    0    0  501 -0.00000000000E+00  0.00000000000E+00  0.12411645641E+02  0.12476451720E+02  0.12700000000E+01 0. -1.
          4   -1    0    0  501    0  0.00000000000E+00 -0.00000000000E+00 -0.31383758299E+03  0.31384015262E+03  0.12700000000E+01 0. -1.
         25    2    1    2    0    0  0.00000000000E+00  0.00000000000E+00 -0.30142593734E+03  0.32631660434E+03  0.12499972225E+03 0.  0.
    9000005    1    3    3    0    0  0.12513292663E+01  0.44470325142E+02 -0.36144609690E+02  0.57328949518E+02  0.10000000000E+01 0.  0.
    9000005    1    3    3    0    0 -0.12513292663E+01 -0.44470325142E+02 -0.26528132765E+03  0.26898765482E+03  0.10000000000E+01 0.  0.
<mgrwt>
<rscale>  0 0.12499972E+03</rscale>
<asrwt>0</asrwt>
<pdfrwt beam="2">  1        4 0.48287882E-01 0.12499972E+03</pdfrwt>
<pdfrwt beam="1">  1       -4 0.19146669E-02 0.12499972E+03</pdfrwt>
<totfact> 0.72411543E+03</totfact>
</mgrwt>
</event>
<event>
 5    1  0.3331626E-002  0.1249992E+03  0.7818608E-02  0.1235071E+00
         -4   -1    0    0    0  501 -0.00000000000E+00  0.00000000000E+00  0.65021329910E+01  0.66250006364E+01  0.12700000000E+01 0.  1.
          4   -1    0    0  501    0  0.00000000000E+00 -0.00000000000E+00 -0.59501029218E+03  0.59501164754E+03  0.12700000000E+01 0.  1.
         25    2    1    2    0    0  0.00000000000E+00  0.00000000000E+00 -0.58850815919E+03  0.60163664817E+03  0.12499921195E+03 0.  0.
    9000005    1    3    3    0    0 -0.17280993735E+02 -0.56553869634E+02 -0.39150155001E+03  0.39594372905E+03  0.10000000000E+01 0.  0.
    9000005    1    3    3    0    0  0.17280993735E+02  0.56553869634E+02 -0.19700660918E+03  0.20569291912E+03  0.10000000000E+01 0.  0.
<mgrwt>
<rscale>  0 0.12499921E+03</rscale>
<asrwt>0</asrwt>
<pdfrwt beam="2">  1        4 0.91549558E-01 0.12499921E+03</pdfrwt>
<pdfrwt beam="1">  1       -4 0.10098842E-02 0.12499921E+03</pdfrwt>
<totfact> 0.48765323E+03</totfact>
</mgrwt>
</event>
<event>
 5    1  0.3331626E-002  0.1250073E+03  0.7818608E-02  0.1235058E+00
         -4   -1    0    0    0  501 -0.00000000000E+00  0.00000000000E+00  0.40555968979E+02  0.40575848973E+02  0.12700000000E+01 0. -1.
          4   -1    0    0  501    0  0.00000000000E+00 -0.00000000000E+00 -0.96281087508E+02  0.96289463140E+02  0.12700000000E+01 0. -1.
         25    2    1    2    0    0  0.00000000000E+00  0.00000000000E+00 -0.55725118529E+02  0.13686531211E+03  0.12500729908E+03 0.  0.
    9000005    1    3    3    0    0 -0.20273727848E+02 -0.16343177958E+02  0.34338346613E+02  0.43107372395E+02  0.10000000000E+01 0.  0.
    9000005    1    3    3    0    0  0.20273727848E+02  0.16343177958E+02 -0.90063465142E+02  0.93757939717E+02  0.10000000000E+01 0.  0.
<mgrwt>
<rscale>  0 0.12500730E+03</rscale>
<asrwt>0</asrwt>
<pdfrwt beam="2">  1        4 0.14814649E-01 0.12500730E+03</pdfrwt>
<pdfrwt beam="1">  1       -4 0.62415534E-02 0.12500730E+03</pdfrwt>
<totfact> 0.10197224E+04</totfact>
</mgrwt>
</event>
<event>
 5    1  0.3331626E-002  0.1249999E+03  0.7818608E-02  0.1235069E+00
          4   -1    0    0  501    0  0.00000000000E+00  0.00000000000E+00  0.36336535295E+02  0.36358722437E+02  0.12700000000E+01 0. -1.
         -4   -1    0    0    0  501 -0.00000000000E+00 -0.00000000000E+00 -0.10744303612E+03  0.10745054170E+03  0.12700000000E+01 0. -1.
         25    2    1    2    0    0  0.00000000000E+00  0.00000000000E+00 -0.71106500829E+02  0.14380926414E+03  0.12499987996E+03 0.  0.
    9000005    1    3    3    0    0 -0.13378036468E+02 -0.22303764144E+02  0.29819792025E+02  0.39580926608E+02  0.10000000000E+01 0.  0.
    9000005    1    3    3    0    0  0.13378036468E+02  0.22303764144E+02 -0.10092629285E+03  0.10422833753E+03  0.10000000000E+01 0.  0.
<mgrwt>
<rscale>  0 0.12499988E+03</rscale>
<asrwt>0</asrwt>
<pdfrwt beam="1">  1        4 0.55925203E-02 0.12499988E+03</pdfrwt>
<pdfrwt beam="2">  1       -4 0.16531982E-01 0.12499988E+03</pdfrwt>
<totfact> 0.10055265E+04</totfact>
</mgrwt>
</event>
<event>
 5    1  0.3331626E-002  0.1250352E+03  0.7818608E-02  0.1235014E+00
         -4   -1    0    0    0  501 -0.00000000000E+00  0.00000000000E+00  0.63619161707E+02  0.63631836657E+02  0.12700000000E+01 0. -1.
          4   -1    0    0  501    0  0.00000000000E+00 -0.00000000000E+00 -0.61409759927E+02  0.61422890800E+02  0.12700000000E+01 0. -1.
         25    2    1    2    0    0  0.00000000000E+00  0.00000000000E+00  0.22094017808E+01  0.12505472746E+03  0.12503520865E+03 0.  0.
    9000005    1    3    3    0    0 -0.10114801907E+02  0.97636360907E+01 -0.59813041889E+02  0.61451100783E+02  0.10000000000E+01 0.  0.
    9000005    1    3    3    0    0  0.10114801907E+02 -0.97636360907E+01  0.62022443670E+02  0.63603626674E+02  0.10000000000E+01 0.  0.
<mgrwt>
<rscale>  0 0.12503521E+03</rscale>
<asrwt>0</asrwt>
<pdfrwt beam="2">  1        4 0.94496405E-02 0.12503521E+03</pdfrwt>
<pdfrwt beam="1">  1       -4 0.97895484E-02 0.12503521E+03</pdfrwt>
<totfact> 0.10443362E+04</totfact>
</mgrwt>
</event>
<event>
 4    1  0.3331626E-002  0.1257539E+03  0.7818608E-02  0.1233896E+00
          4   -1    0    0  501    0  0.00000000000E+00  0.00000000000E+00  0.22956909234E+03  0.22957260520E+03  0.12700000000E+01 0.  1.
         -4   -1    0    0    0  501 -0.00000000000E+00 -0.00000000000E+00 -0.17194370981E+02  0.17241209164E+02  0.12700000000E+01 0.  1.
    9000005    1    1    2    0    0 -0.47592456692E+02  0.35114778557E+02  0.14802590864E+03  0.15940752566E+03  0.10000000000E+01 0.  0.
    9000005    1    1    2    0    0  0.47592456692E+02 -0.35114778557E+02  0.64348812716E+02  0.87406288704E+02  0.10000000000E+01 0.  0.
<mgrwt>
<rscale>  0 0.12575387E+03</rscale>
<asrwt>0</asrwt>
<pdfrwt beam="1">  1        4 0.35322193E-01 0.12575387E+03</pdfrwt>
<pdfrwt beam="2">  1       -4 0.26491611E-02 0.12575387E+03</pdfrwt>
<totfact> 0.81417439E+03</totfact>
</mgrwt>
</event>
<event>
 5    1  0.3331626E-002  0.1250171E+03  0.7818608E-02  0.1235043E+00
          4   -1    0    0  501    0  0.00000000000E+00  0.00000000000E+00  0.81846923269E+02  0.81856775826E+02  0.12700000000E+01 0.  1.
         -4   -1    0    0    0  501 -0.00000000000E+00 -0.00000000000E+00 -0.47718173861E+02  0.47735071139E+02  0.12700000000E+01 0.  1.
         25    2    1    2    0    0  0.00000000000E+00  0.00000000000E+00  0.34128749408E+02  0.12959184696E+03  0.12501709988E+03 0.  0.
    9000005    1    3    3    0    0  0.23638420527E+02 -0.47350367301E+02  0.51529907956E+02  0.73872617542E+02  0.10000000000E+01 0.  0.
    9000005    1    3    3    0    0 -0.23638420527E+02  0.47350367301E+02 -0.17401158548E+02  0.55719229422E+02  0.10000000000E+01 0.  0.
<mgrwt>
<rscale>  0 0.12501710E+03</rscale>
<asrwt>0</asrwt>
<pdfrwt beam="1">  1        4 0.12593892E-01 0.12501710E+03</pdfrwt>
<pdfrwt beam="2">  1       -4 0.73433153E-02 0.12501710E+03</pdfrwt>
<totfact> 0.10349251E+04</totfact>
</mgrwt>
</event>
<event>
 5    1  0.3331626E-002  0.1250013E+03  0.7818608E-02  0.1235067E+00
          4   -1    0    0  501    0  0.00000000000E+00  0.00000000000E+00  0.18497440942E+02  0.18540987605E+02  0.12700000000E+01 0.  1.
         -4   -1    0    0    0  501 -0.00000000000E+00 -0.00000000000E+00 -0.21088833325E+03  0.21089215728E+03  0.12700000000E+01 0.  1.
         25    2    1    2    0    0  0.00000000000E+00  0.00000000000E+00 -0.19239089231E+03  0.22943314488E+03  0.12500125010E+03 0.  0.
    9000005    1    3    3    0    0  0.55512757372E+02  0.28259496440E+02 -0.10538419253E+03  0.12242178485E+03  0.10000000000E+01 0.  0.
    9000005    1    3    3    0    0 -0.55512757372E+02 -0.28259496440E+02 -0.87006699779E+02  0.10701136003E+03  0.10000000000E+01 0.  0.
<mgrwt>
<rscale>  0 0.12500125E+03</rscale>
<asrwt>0</asrwt>
<pdfrwt beam="1">  1        4 0.28494042E-02 0.12500125E+03</pdfrwt>
<pdfrwt beam="2">  1       -4 0.32448001E-01 0.12500125E+03</pdfrwt>
<totfact> 0.85394333E+03</totfact>
</mgrwt>
</event>
<event>
 5    1  0.3331626E-002  0.1250033E+03  0.7818608E-02  0.1235064E+00
          4   -1    0    0  501    0  0.00000000000E+00  0.00000000000E+00  0.37197444427E+02  0.37219118365E+02  0.12700000000E+01 0. -1.
         -4   -1    0    0    0  501 -0.00000000000E+00 -0.00000000000E+00 -0.10496343730E+03  0.10497112017E+03  0.12700000000E+01 0. -1.
         25    2    1    2    0    0  0.00000000000E+00  0.00000000000E+00 -0.67765992875E+02  0.14219023854E+03  0.12500333654E+03 0.  0.
    9000005    1    3    3    0    0  0.40894834736E+02 -0.43698909051E+02 -0.13424700243E+02  0.61344965050E+02  0.10000000000E+01 0.  0.
    9000005    1    3    3    0    0 -0.40894834736E+02  0.43698909051E+02 -0.54341292632E+02  0.80845273488E+02  0.10000000000E+01 0.  0.
<mgrwt>
<rscale>  0 0.12500334E+03</rscale>
<asrwt>0</asrwt>
<pdfrwt beam="1">  1        4 0.57249420E-02 0.12500334E+03</pdfrwt>
<pdfrwt beam="2">  1       -4 0.16150479E-01 0.12500334E+03</pdfrwt>
<totfact> 0.10087634E+04</totfact>
</mgrwt>
</event>
<event>
 5    1  0.3331626E-002  0.1250078E+03  0.7818608E-02  0.1235057E+00
         -4   -1    0    0    0  501 -0.00000000000E+00  0.00000000000E+00  0.18363124505E+03  0.18363563668E+03  0.12700000000E+01 0. -1.
          4   -1    0    0  501    0  0.00000000000E+00 -0.00000000000E+00 -0.21251291706E+02  0.21289206166E+02  0.12700000000E+01 0. -1.
         25    2    1    2    0    0  0.00000000000E+00  0.00000000000E+00  0.16237995334E+03  0.20492484284E+03  0.12500776763E+03 0.  0.
    9000005    1    3    3    0    0 -0.47442902836E+02  0.14132482394E+02  0.14372392934E+03  0.15201356503E+03  0.10000000000E+01 0.  0.
    9000005    1    3    3    0    0  0.47442902836E+02 -0.14132482394E+02  0.18656023999E+02  0.52911277811E+02  0.10000000000E+01 0.  0.
<mgrwt>
<rscale>  0 0.12500777E+03</rscale>
<asrwt>0</asrwt>
<pdfrwt beam="2">  1        4 0.32726838E-02 0.12500777E+03</pdfrwt>
<pdfrwt beam="1">  1       -4 0.28254215E-01 0.12500777E+03</pdfrwt>
<totfact> 0.89295971E+03</totfact>
</mgrwt>
</event>
<event>
 5    1  0.3331626E-002  0.1249960E+03  0.7818608E-02  0.1235076E+00
         -4   -1    0    0    0  501 -0.00000000000E+00  0.00000000000E+00  0.29088097059E+02  0.29115808258E+02  0.12700000000E+01 0. -1.
          4   -1    0    0  501    0  0.00000000000E+00 -0.00000000000E+00 -0.13418699838E+03  0.13419300814E+03  0.12700000000E+01 0. -1.
         25    2    1    2    0    0  0.00000000000E+00  0.00000000000E+00 -0.10509890132E+03  0.16330881640E+03  0.12499596175E+03 0.  0.
    9000005    1    3    3    0    0  0.37522379333E+02 -0.31906935381E+02 -0.10279528996E+03  0.11399058344E+03  0.10000000000E+01 0.  0.
    9000005    1    3    3    0    0 -0.37522379333E+02  0.31906935381E+02 -0.23036113565E+01  0.49318232951E+02  0.10000000000E+01 0.  0.
<mgrwt>
<rscale>  0 0.12499596E+03</rscale>
<asrwt>0</asrwt>
<pdfrwt beam="2">  1        4 0.20646747E-01 0.12499596E+03</pdfrwt>
<pdfrwt beam="1">  1       -4 0.44776858E-02 0.12499596E+03</pdfrwt>
<totfact> 0.96717413E+03</totfact>
</mgrwt>
</event>
<event>
 5    1  0.3331626E-002  0.1249984E+03  0.7818608E-02  0.1235072E+00
         -4   -1    0    0    0  501 -0.00000000000E+00  0.00000000000E+00  0.91668887357E+02  0.91677684358E+02  0.12700000000E+01 0. -1.
          4   -1    0    0  501    0  0.00000000000E+00 -0.00000000000E+00 -0.42591189039E+02  0.42610119499E+02  0.12700000000E+01 0. -1.
         25    2    1    2    0    0  0.00000000000E+00  0.00000000000E+00  0.49077698319E+02  0.13428780386E+03  0.12499837516E+03 0.  0.
    9000005    1    3    3    0    0  0.55705041340E+01 -0.52150503766E+02  0.61040997877E+02  0.80484215727E+02  0.10000000000E+01 0.  0.
    9000005    1    3    3    0    0 -0.55705041340E+01  0.52150503766E+02 -0.11963299558E+02  0.53803588131E+02  0.10000000000E+01 0.  0.
<mgrwt>
<rscale>  0 0.12499838E+03</rscale>
<asrwt>0</asrwt>
<pdfrwt beam="2">  1        4 0.65546235E-02 0.12499838E+03</pdfrwt>
<pdfrwt beam="1">  1       -4 0.14105039E-01 0.12499838E+03</pdfrwt>
<totfact> 0.10253480E+04</totfact>
</mgrwt>
</event>
<event>
 5    1  0.3331626E-002  0.1249747E+03  0.7818608E-02  0.1235109E+00
         -4   -1    0    0    0  501 -0.00000000000E+00  0.00000000000E+00  0.11699237359E+03  0.11699926657E+03  0.12700000000E+01 0.  1.
          4   -1    0    0  501    0  0.00000000000E+00 -0.00000000000E+00 -0.33355454558E+02  0.33379623257E+02  0.12700000000E+01 0.  1.
         25    2    1    2    0    0  0.00000000000E+00  0.00000000000E+00  0.83636919031E+02  0.15037888983E+03  0.12497470256E+03 0.  0.
    9000005    1    3    3    0    0 -0.41770038358E+02  0.43425061094E+02  0.21929926386E+02  0.64127947938E+02  0.10000000000E+01 0.  0.
    9000005    1    3    3    0    0  0.41770038358E+02 -0.43425061094E+02  0.61706992645E+02  0.86250941889E+02  0.10000000000E+01 0.  0.
<mgrwt>
<rscale>  0 0.12497470E+03</rscale>
<asrwt>0</asrwt>
<pdfrwt beam="2">  1        4 0.51339978E-02 0.12497470E+03</pdfrwt>
<pdfrwt beam="1">  1       -4 0.18001216E-01 0.12497470E+03</pdfrwt>
<totfact> 0.99284739E+03</totfact>
</mgrwt>
</event>
<event>
 5    1  0.3331626E-002  0.1249997E+03  0.7818608E-02  0.1235070E+00
          4   -1    0    0  501    0  0.00000000000E+00  0.00000000000E+00  0.79274333989E+02  0.79284506238E+02  0.12700000000E+01 0.  1.
         -4   -1    0    0    0  501 -0.00000000000E+00 -0.00000000000E+00 -0.49253339185E+02  0.49269709974E+02  0.12700000000E+01 0.  1.
         25    2    1    2    0    0  0.00000000000E+00  0.00000000000E+00  0.30020994804E+02  0.12855421621E+03  0.12499970551E+03 0.  0.
    9000005    1    3    3    0    0  0.14903452782E+02  0.18530551313E+02 -0.44423301744E+02  0.50397658424E+02  0.10000000000E+01 0.  0.
    9000005    1    3    3    0    0 -0.14903452782E+02 -0.18530551313E+02  0.74444296548E+02  0.78156557788E+02  0.10000000000E+01 0.  0.
<mgrwt>
<rscale>  0 0.12499971E+03</rscale>
<asrwt>0</asrwt>
<pdfrwt beam="1">  1        4 0.12198093E-01 0.12499971E+03</pdfrwt>
<pdfrwt beam="2">  1       -4 0.75794786E-02 0.12499971E+03</pdfrwt>
<totfact> 0.10375605E+04</totfact>
</mgrwt>
</event>
<event>
 5    1  0.3331626E-002  0.1250017E+03  0.7818608E-02  0.1235067E+00
          4   -1    0    0  501    0  0.00000000000E+00  0.00000000000E+00  0.10036856912E+04  0.10036864947E+04  0.12700000000E+01 0. -1.
         -4   -1    0    0    0  501 -0.00000000000E+00 -0.00000000000E+00 -0.37875805289E+01  0.39948299417E+01  0.12700000000E+01 0. -1.
         25    2    1    2    0    0  0.00000000000E+00  0.00000000000E+00  0.99989811064E+03  0.10076813246E+04  0.12500168112E+03 0.  0.
    9000005    1    3    3    0    0 -0.47833714707E+02 -0.38069491600E+02  0.39546068267E+03  0.40015934575E+03  0.10000000000E+01 0.  0.
    9000005    1    3    3    0    0  0.47833714707E+02  0.38069491600E+02  0.60443742797E+03  0.60752197885E+03  0.10000000000E+01 0.  0.
<mgrwt>
<rscale>  0 0.12500168E+03</rscale>
<asrwt>0</asrwt>
<pdfrwt beam="1">  1        4 0.15442910E+00 0.12500168E+03</pdfrwt>
<pdfrwt beam="2">  1       -4 0.59870912E-03 0.12500168E+03</pdfrwt>
<totfact> 0.30351101E+03</totfact>
</mgrwt>
</event>
<event>
 5    1  0.3331626E-002  0.1249978E+03  0.7818608E-02  0.1235073E+00
         -4   -1    0    0    0  501 -0.00000000000E+00  0.00000000000E+00  0.38415617196E+02  0.38436604227E+02  0.12700000000E+01 0.  1.
          4   -1    0    0  501    0  0.00000000000E+00 -0.00000000000E+00 -0.10162755460E+03  0.10163548964E+03  0.12700000000E+01 0.  1.
         25    2    1    2    0    0  0.00000000000E+00  0.00000000000E+00 -0.63211937404E+02  0.14007209387E+03  0.12499776978E+03 0.  0.
    9000005    1    3    3    0    0  0.24854485769E+02  0.52369095641E+02 -0.57762794059E+02  0.81840136966E+02  0.10000000000E+01 0.  0.
    9000005    1    3    3    0    0 -0.24854485769E+02 -0.52369095641E+02 -0.54491433451E+01  0.58231956899E+02  0.10000000000E+01 0.  0.
<mgrwt>
<rscale>  0 0.12499777E+03</rscale>
<asrwt>0</asrwt>
<pdfrwt beam="2">  1        4 0.15637233E-01 0.12499777E+03</pdfrwt>
<pdfrwt beam="1">  1       -4 0.59123198E-02 0.12499777E+03</pdfrwt>
<totfact> 0.10132601E+04</totfact>
</mgrwt>
</event>
<event>
 5    1  0.3331626E-002  0.1250020E+03  0.7818608E-02  0.1235066E+00
         -4   -1    0    0    0  501 -0.00000000000E+00  0.00000000000E+00  0.41480619634E+02  0.41500056689E+02  0.12700000000E+01 0.  1.
          4   -1    0    0  501    0  0.00000000000E+00 -0.00000000000E+00 -0.94127689682E+02  0.94136256909E+02  0.12700000000E+01 0.  1.
         25    2    1    2    0    0  0.00000000000E+00  0.00000000000E+00 -0.52647070048E+02  0.13563631360E+03  0.12500198231E+03 0.  0.
    9000005    1    3    3    0    0  0.61838847749E+02  0.53599204660E+01 -0.34193276063E+02  0.70872787205E+02  0.10000000000E+01 0.  0.
    9000005    1    3    3    0    0 -0.61838847749E+02 -0.53599204660E+01 -0.18453793985E+02  0.64763526393E+02  0.10000000000E+01 0.  0.
<mgrwt>
<rscale>  0 0.12500198E+03</rscale>
<asrwt>0</asrwt>
<pdfrwt beam="2">  1        4 0.14483337E-01 0.12500198E+03</pdfrwt>
<pdfrwt beam="1">  1       -4 0.63837880E-02 0.12500198E+03</pdfrwt>
<totfact> 0.10224219E+04</totfact>
</mgrwt>
</event>
<event>
 5    1  0.3331626E-002  0.1249983E+03  0.7818608E-02  0.1235072E+00
          4   -1    0    0  501    0  0.00000000000E+00  0.00000000000E+00  0.34770067337E+03  0.34770299274E+03  0.12700000000E+01 0. -1.
         -4   -1    0    0    0  501 -0.00000000000E+00 -0.00000000000E+00 -0.11195955142E+02  0.11267755391E+02  0.12700000000E+01 0. -1.
         25    2    1    2    0    0  0.00000000000E+00  0.00000000000E+00  0.33650471823E+03  0.35897074813E+03  0.12499829049E+03 0.  0.
    9000005    1    3    3    0    0 -0.53076802534E+02  0.30116116920E+02  0.12961449616E+03  0.14326564515E+03  0.10000000000E+01 0.  0.
    9000005    1    3    3    0    0  0.53076802534E+02 -0.30116116920E+02  0.20689022207E+03  0.21570510298E+03  0.10000000000E+01 0.  0.
<mgrwt>
<rscale>  0 0.12499829E+03</rscale>
<asrwt>0</asrwt>
<pdfrwt beam="1">  1        4 0.53498109E-01 0.12499829E+03</pdfrwt>
<pdfrwt beam="2">  1       -4 0.17281563E-02 0.12499829E+03</pdfrwt>
<totfact> 0.68751410E+03</totfact>
</mgrwt>
</event>
<event>
 5    1  0.3331626E-002  0.1250007E+03  0.7818608E-02  0.1235068E+00
          4   -1    0    0  501    0  0.00000000000E+00  0.00000000000E+00  0.23228244977E+02  0.23262937577E+02  0.12700000000E+01 0.  1.
         -4   -1    0    0    0  501 -0.00000000000E+00 -0.00000000000E+00 -0.16800739380E+03  0.16801219382E+03  0.12700000000E+01 0.  1.
         25    2    1    2    0    0  0.00000000000E+00  0.00000000000E+00 -0.14477914883E+03  0.19127513140E+03  0.12500069583E+03 0.  0.
    9000005    1    3    3    0    0 -0.39684392432E+02 -0.42723587058E+02 -0.10678105909E+03  0.12166902019E+03  0.10000000000E+01 0.  0.
    9000005    1    3    3    0    0  0.39684392432E+02  0.42723587058E+02 -0.37998089734E+02  0.69606111206E+02  0.10000000000E+01 0.  0.
<mgrwt>
<rscale>  0 0.12500070E+03</rscale>
<asrwt>0</asrwt>
<pdfrwt beam="1">  1        4 0.35766141E-02 0.12500070E+03</pdfrwt>
<pdfrwt beam="2">  1       -4 0.25850328E-01 0.12500070E+03</pdfrwt>
<totfact> 0.91624491E+03</totfact>
</mgrwt>
</event>
<event>
 5    1  0.3331626E-002  0.1249976E+03  0.7818608E-02  0.1235073E+00
         -4   -1    0    0    0  501 -0.00000000000E+00  0.00000000000E+00  0.24352864616E+03  0.24353195766E+03  0.12700000000E+01 0. -1.
          4   -1    0    0  501    0  0.00000000000E+00 -0.00000000000E+00 -0.16011017320E+02  0.16061306784E+02  0.12700000000E+01 0. -1.
         25    2    1    2    0    0  0.00000000000E+00  0.00000000000E+00  0.22751762884E+03  0.25959326444E+03  0.12499756602E+03 0.  0.
    9000005    1    3    3    0    0  0.96011244323E+01  0.61286310497E+02  0.12942505940E+03  0.14352713836E+03  0.10000000000E+01 0.  0.
    9000005    1    3    3    0    0 -0.96011244323E+01 -0.61286310497E+02  0.98092569441E+02  0.11606612608E+03  0.10000000000E+01 0.  0.
<mgrwt>
<rscale>  0 0.12499757E+03</rscale>
<asrwt>0</asrwt>
<pdfrwt beam="2">  1        4 0.24673565E-02 0.12499757E+03</pdfrwt>
<pdfrwt beam="1">  1       -4 0.37470070E-01 0.12499757E+03</pdfrwt>
<totfact> 0.80967559E+03</totfact>
</mgrwt>
</event>
<event>
 5    1  0.3331626E-002  0.1250070E+03  0.7818608E-02  0.1235058E+00
          4   -1    0    0  501    0  0.00000000000E+00  0.00000000000E+00  0.49812732009E+03  0.49812893905E+03  0.12700000000E+01 0. -1.
         -4   -1    0    0    0  501 -0.00000000000E+00 -0.00000000000E+00 -0.77896913272E+01  0.78925402104E+01  0.12700000000E+01 0. -1.
         25    2    1    2    0    0  0.00000000000E+00  0.00000000000E+00  0.49033762876E+03  0.50602147926E+03  0.12500698898E+03 0.  0.
    9000005    1    3    3    0    0  0.41486798559E+02  0.32282284619E+02  0.10835146183E+03  0.12043396380E+03  0.10000000000E+01 0.  0.
    9000005    1    3    3    0    0 -0.41486798559E+02 -0.32282284619E+02  0.38198616693E+03  0.38558751546E+03  0.10000000000E+01 0.  0.
<mgrwt>
<rscale>  0 0.12500699E+03</rscale>
<asrwt>0</asrwt>
<pdfrwt beam="1">  1        4 0.76643018E-01 0.12500699E+03</pdfrwt>
<pdfrwt beam="2">  1       -4 0.12064499E-02 0.12500699E+03</pdfrwt>
<totfact> 0.55391665E+03</totfact>
</mgrwt>
</event>
<event>
 5    1  0.3331626E-002  0.1250044E+03  0.7818608E-02  0.1235062E+00
          4   -1    0    0  501    0  0.00000000000E+00  0.00000000000E+00  0.13394522449E+02  0.13454595187E+02  0.12700000000E+01 0.  1.
         -4   -1    0    0    0  501 -0.00000000000E+00 -0.00000000000E+00 -0.29093688587E+03  0.29093965776E+03  0.12700000000E+01 0.  1.
         25    2    1    2    0    0  0.00000000000E+00  0.00000000000E+00 -0.27754236342E+03  0.30439425295E+03  0.12500439087E+03 0.  0.
    9000005    1    3    3    0    0  0.59262468408E+01  0.44141095031E+02 -0.24552519967E+03  0.24953392624E+03  0.10000000000E+01 0.  0.
    9000005    1    3    3    0    0 -0.59262468408E+01 -0.44141095031E+02 -0.32017163753E+02  0.54860326712E+02  0.10000000000E+01 0.  0.
<mgrwt>
<rscale>  0 0.12500439E+03</rscale>
<asrwt>0</asrwt>
<pdfrwt beam="1">  1        4 0.20655302E-02 0.12500439E+03</pdfrwt>
<pdfrwt beam="2">  1       -4 0.44764351E-01 0.12500439E+03</pdfrwt>
<totfact> 0.75043606E+03</totfact>
</mgrwt>
</event>
<event>
 5    1  0.3331626E-002  0.1249961E+03  0.7818608E-02  0.1235075E+00
         -4   -1    0    0    0  501 -0.00000000000E+00  0.00000000000E+00  0.16416259906E+03  0.16416751149E+03  0.12700000000E+01 0. -1.
          4   -1    0    0  501    0  0.00000000000E+00 -0.00000000000E+00 -0.23771298307E+02  0.23805199500E+02  0.12700000000E+01 0. -1.
         25    2    1    2    0    0  0.00000000000E+00  0.00000000000E+00  0.14039130075E+03  0.18797271099E+03  0.12499609094E+03 0.  0.
    9000005    1    3    3    0    0 -0.48195442175E+02 -0.38585412104E+02  0.55664352296E+02  0.83133355461E+02  0.10000000000E+01 0.  0.
    9000005    1    3    3    0    0  0.48195442175E+02  0.38585412104E+02  0.84726948453E+02  0.10483935553E+03  0.10000000000E+01 0.  0.
<mgrwt>
<rscale>  0 0.12499609E+03</rscale>
<asrwt>0</asrwt>
<pdfrwt beam="2">  1        4 0.36601085E-02 0.12499609E+03</pdfrwt>
<pdfrwt beam="1">  1       -4 0.25258770E-01 0.12499609E+03</pdfrwt>
<totfact> 0.92209332E+03</totfact>
</mgrwt>
</event>
<event>
 5    1  0.3331626E-002  0.1250013E+03  0.7818608E-02  0.1235067E+00
         -4   -1    0    0    0  501 -0.00000000000E+00  0.00000000000E+00  0.51200726633E+02  0.51216474964E+02  0.12700000000E+01 0. -1.
          4   -1    0    0  501    0  0.00000000000E+00 -0.00000000000E+00 -0.76261707923E+02  0.76272281960E+02  0.12700000000E+01 0. -1.
         25    2    1    2    0    0  0.00000000000E+00  0.00000000000E+00 -0.25060981291E+02  0.12748875692E+03  0.12500132143E+03 0.  0.
    9000005    1    3    3    0    0 -0.48850368723E+02  0.38445902230E+02 -0.19052000241E+02  0.65026338016E+02  0.10000000000E+01 0.  0.
    9000005    1    3    3    0    0  0.48850368723E+02 -0.38445902230E+02 -0.60089810499E+01  0.62462418908E+02  0.10000000000E+01 0.  0.
<mgrwt>
<rscale>  0 0.12500132E+03</rscale>
<asrwt>0</asrwt>
<pdfrwt beam="2">  1        4 0.11734595E-01 0.12500132E+03</pdfrwt>
<pdfrwt beam="1">  1       -4 0.78790597E-02 0.12500132E+03</pdfrwt>
<totfact> 0.10398234E+04</totfact>
</mgrwt>
</event>
<event>
 5    1  0.3331626E-002  0.1249982E+03  0.7818608E-02  0.1235072E+00
          4   -1    0    0  501    0  0.00000000000E+00  0.00000000000E+00  0.31381941814E+02  0.31407629201E+02  0.12700000000E+01 0. -1.
         -4   -1    0    0    0  501 -0.00000000000E+00 -0.00000000000E+00 -0.12439110800E+03  0.12439759101E+03  0.12700000000E+01 0. -1.
         25    2    1    2    0    0  0.00000000000E+00  0.00000000000E+00 -0.93009166186E+02  0.15580522021E+03  0.12499824659E+03 0.  0.
    9000005    1    3    3    0    0 -0.55250753942E+02 -0.27768178513E+02 -0.35257205648E+02  0.71188398628E+02  0.10000000000E+01 0.  0.
    9000005    1    3    3    0    0  0.55250753942E+02  0.27768178513E+02 -0.57751960538E+02  0.84616821585E+02  0.10000000000E+01 0.  0.
<mgrwt>
<rscale>  0 0.12499825E+03</rscale>
<asrwt>0</asrwt>
<pdfrwt beam="1">  1        4 0.48304658E-02 0.12499825E+03</pdfrwt>
<pdfrwt beam="2">  1       -4 0.19139568E-01 0.12499825E+03</pdfrwt>
<totfact> 0.98161526E+03</totfact>
</mgrwt>
</event>
<event>
 5    1  0.3331626E-002  0.1249995E+03  0.7818608E-02  0.1235070E+00
          4   -1    0    0  501    0  0.00000000000E+00  0.00000000000E+00  0.89157187264E+02  0.89166232066E+02  0.12700000000E+01 0.  1.
         -4   -1    0    0    0  501 -0.00000000000E+00 -0.00000000000E+00 -0.43792273049E+02  0.43810684527E+02  0.12700000000E+01 0.  1.
         25    2    1    2    0    0  0.00000000000E+00  0.00000000000E+00  0.45364914216E+02  0.13297691659E+03  0.12499953962E+03 0.  0.
    9000005    1    3    3    0    0  0.77159765890E+01  0.54218553139E+01  0.88401077763E+02  0.88908286225E+02  0.10000000000E+01 0.  0.
    9000005    1    3    3    0    0 -0.77159765890E+01 -0.54218553139E+01 -0.43036163547E+02  0.44068630369E+02  0.10000000000E+01 0.  0.
<mgrwt>
<rscale>  0 0.12499954E+03</rscale>
<asrwt>0</asrwt>
<pdfrwt beam="1">  1        4 0.13718602E-01 0.12499954E+03</pdfrwt>
<pdfrwt beam="2">  1       -4 0.67393848E-02 0.12499954E+03</pdfrwt>
<totfact> 0.10280997E+04</totfact>
</mgrwt>
</event>
<event>
 5    1  0.3331626E-002  0.1249998E+03  0.7818608E-02  0.1235070E+00
         -4   -1    0    0    0  501 -0.00000000000E+00  0.00000000000E+00  0.12304708146E+04  0.12304714700E+04  0.12700000000E+01 0. -1.
          4   -1    0    0  501    0  0.00000000000E+00 -0.00000000000E+00 -0.30468912022E+01  0.33009765219E+01  0.12700000000E+01 0. -1.
         25    2    1    2    0    0  0.00000000000E+00  0.00000000000E+00  0.12274239234E+04  0.12337724465E+04  0.12499984826E+03 0.  0.
    9000005    1    3    3    0    0  0.39931839672E+02  0.46106105713E+02  0.74793049513E+03  0.75041411924E+03  0.10000000000E+01 0.  0.
    9000005    1    3    3    0    0 -0.39931839672E+02 -0.46106105713E+02  0.47949342824E+03  0.48335832726E+03  0.10000000000E+01 0.  0.
<mgrwt>
<rscale>  0 0.12499985E+03</rscale>
<asrwt>0</asrwt>
<pdfrwt beam="2">  1        4 0.48834677E-03 0.12499985E+03</pdfrwt>
<pdfrwt beam="1">  1       -4 0.18932325E+00 0.12499985E+03</pdfrwt>
<totfact> 0.23845487E+03</totfact>
</mgrwt>
</event>
<event>
 5    1  0.3331626E-002  0.1250014E+03  0.7818608E-02  0.1235067E+00
         -4   -1    0    0    0  501 -0.00000000000E+00  0.00000000000E+00  0.22120322470E+03  0.22120687041E+03  0.12700000000E+01 0. -1.
          4   -1    0    0  501    0  0.00000000000E+00 -0.00000000000E+00 -0.17632853148E+02  0.17678529638E+02  0.12700000000E+01 0. -1.
         25    2    1    2    0    0  0.00000000000E+00  0.00000000000E+00  0.20357037155E+03  0.23888540005E+03  0.12500135273E+03 0.  0.
    9000005    1    3    3    0    0 -0.52879940930E+02 -0.48744447717E+01  0.16474262162E+03  0.17309298005E+03  0.10000000000E+01 0.  0.
    9000005    1    3    3    0    0  0.52879940930E+02  0.48744447717E+01  0.38827749930E+02  0.65792419998E+02  0.10000000000E+01 0.  0.
<mgrwt>
<rscale>  0 0.12500135E+03</rscale>
<asrwt>0</asrwt>
<pdfrwt beam="2">  1        4 0.27165407E-02 0.12500135E+03</pdfrwt>
<pdfrwt beam="1">  1       -4 0.34035059E-01 0.12500135E+03</pdfrwt>
<totfact> 0.83961115E+03</totfact>
</mgrwt>
</event>
<event>
 4    1  0.3331626E-002  0.1246107E+03  0.7818608E-02  0.1235679E+00
          4   -1    0    0  501    0  0.00000000000E+00  0.00000000000E+00  0.23546659717E+02  0.23580883864E+02  0.12700000000E+01 0.  1.
         -4   -1    0    0    0  501 -0.00000000000E+00 -0.00000000000E+00 -0.16470588164E+03  0.16471077787E+03  0.12700000000E+01 0.  1.
    9000005    1    1    2    0    0 -0.61923989912E+02 -0.66896413288E+01 -0.68653904970E+02  0.92702160144E+02  0.10000000000E+01 0.  0.
    9000005    1    1    2    0    0  0.61923989912E+02  0.66896413288E+01 -0.72505316949E+02  0.95589501587E+02  0.10000000000E+01 0.  0.
<mgrwt>
<rscale>  0 0.12461069E+03</rscale>
<asrwt>0</asrwt>
<pdfrwt beam="1">  1        4 0.36255724E-02 0.12461069E+03</pdfrwt>
<pdfrwt beam="2">  1       -4 0.25342375E-01 0.12461069E+03</pdfrwt>
<totfact> 0.92953729E+03</totfact>
</mgrwt>
</event>
<event>
 5    1  0.3331626E-002  0.1250060E+03  0.7818608E-02  0.1235060E+00
         -4   -1    0    0    0  501 -0.00000000000E+00  0.00000000000E+00  0.74564181673E+01  0.75638000956E+01  0.12700000000E+01 0. -1.
          4   -1    0    0  501    0  0.00000000000E+00 -0.00000000000E+00 -0.52007430052E+03  0.52007585116E+03  0.12700000000E+01 0. -1.
         25    2    1    2    0    0  0.00000000000E+00  0.00000000000E+00 -0.51261788235E+03  0.52763965126E+03  0.12500603294E+03 0.  0.
    9000005    1    3    3    0    0  0.59196524769E+02  0.11177227559E+02 -0.18612641908E+03  0.19563538238E+03  0.10000000000E+01 0.  0.
    9000005    1    3    3    0    0 -0.59196524769E+02 -0.11177227559E+02 -0.32649146327E+03  0.33200426888E+03  0.10000000000E+01 0.  0.
<mgrwt>
<rscale>  0 0.12500603E+03</rscale>
<asrwt>0</asrwt>
<pdfrwt beam="2">  1        4 0.80019782E-01 0.12500603E+03</pdfrwt>
<pdfrwt beam="1">  1       -4 0.11555211E-02 0.12500603E+03</pdfrwt>
<totfact> 0.53774764E+03</totfact>
</mgrwt>
</event>
<event>
 5    1  0.3331626E-002  0.1249963E+03  0.7818608E-02  0.1235075E+00
         -4   -1    0    0    0  501 -0.00000000000E+00  0.00000000000E+00  0.16125886249E+02  0.16175818598E+02  0.12700000000E+01 0.  1.
          4   -1    0    0  501    0  0.00000000000E+00 -0.00000000000E+00 -0.24179424462E+03  0.24179757988E+03  0.12700000000E+01 0.  1.
         25    2    1    2    0    0  0.00000000000E+00  0.00000000000E+00 -0.22566835838E+03  0.25797339847E+03  0.12499626534E+03 0.  0.
    9000005    1    3    3    0    0  0.53782424653E+02  0.26662471515E+02 -0.14867509967E+03  0.16033939581E+03  0.10000000000E+01 0.  0.
    9000005    1    3    3    0    0 -0.53782424653E+02 -0.26662471515E+02 -0.76993258710E+02  0.97634002661E+02  0.10000000000E+01 0.  0.
<mgrwt>
<rscale>  0 0.12499627E+03</rscale>
<asrwt>0</asrwt>
<pdfrwt beam="2">  1        4 0.37203209E-01 0.12499627E+03</pdfrwt>
<pdfrwt beam="1">  1       -4 0.24850033E-02 0.12499627E+03</pdfrwt>
<totfact> 0.81198061E+03</totfact>
</mgrwt>
</event>
<event>
 5    1  0.3331626E-002  0.1250043E+03  0.7818608E-02  0.1235062E+00
         -4   -1    0    0    0  501 -0.00000000000E+00  0.00000000000E+00  0.33466874745E+02  0.33490963038E+02  0.12700000000E+01 0. -1.
          4   -1    0    0  501    0  0.00000000000E+00 -0.00000000000E+00 -0.11665847588E+03  0.11666538859E+03  0.12700000000E+01 0. -1.
         25    2    1    2    0    0  0.00000000000E+00  0.00000000000E+00 -0.83191601137E+02  0.15015635163E+03  0.12500434966E+03 0.  0.
    9000005    1    3    3    0    0  0.44873190520E+02 -0.35375958133E+02 -0.71995176062E+02  0.91920438519E+02  0.10000000000E+01 0.  0.
    9000005    1    3    3    0    0 -0.44873190520E+02  0.35375958133E+02 -0.11196425076E+02  0.58235913110E+02  0.10000000000E+01 0.  0.
<mgrwt>
<rscale>  0 0.12500435E+03</rscale>
<asrwt>0</asrwt>
<pdfrwt beam="2">  1        4 0.17949842E-01 0.12500435E+03</pdfrwt>
<pdfrwt beam="1">  1       -4 0.51511347E-02 0.12500435E+03</pdfrwt>
<totfact> 0.99262824E+03</totfact>
</mgrwt>
</event>
<event>
 5    1  0.3331626E-002  0.1249989E+03  0.7818608E-02  0.1235071E+00
          4   -1    0    0  501    0  0.00000000000E+00  0.00000000000E+00  0.10384004077E+03  0.10384780675E+03  0.12700000000E+01 0. -1.
         -4   -1    0    0    0  501 -0.00000000000E+00 -0.00000000000E+00 -0.37597423957E+02  0.37618867449E+02  0.12700000000E+01 0. -1.
         25    2    1    2    0    0  0.00000000000E+00  0.00000000000E+00  0.66242616809E+02  0.14146667420E+03  0.12499894250E+03 0.  0.
    9000005    1    3    3    0    0 -0.55259094520E+02 -0.13049694568E+02  0.62662224806E+02  0.84566047993E+02  0.10000000000E+01 0.  0.
    9000005    1    3    3    0    0  0.55259094520E+02  0.13049694568E+02  0.35803920029E+01  0.56900626204E+02  0.10000000000E+01 0.  0.
<mgrwt>
<rscale>  0 0.12499894E+03</rscale>
<asrwt>0</asrwt>
<pdfrwt beam="1">  1        4 0.15977638E-01 0.12499894E+03</pdfrwt>
<pdfrwt beam="2">  1       -4 0.57864660E-02 0.12499894E+03</pdfrwt>
<totfact> 0.10103519E+04</totfact>
</mgrwt>
</event>
<event>
 5    1  0.3331626E-002  0.1249996E+03  0.7818608E-02  0.1235070E+00
         -4   -1    0    0    0  501 -0.00000000000E+00  0.00000000000E+00  0.41432771185E+02  0.41452230677E+02  0.12700000000E+01 0. -1.
          4   -1    0    0  501    0  0.00000000000E+00 -0.00000000000E+00 -0.94232705589E+02  0.94241263269E+02  0.12700000000E+01 0. -1.
         25    2    1    2    0    0  0.00000000000E+00  0.00000000000E+00 -0.52799934403E+02  0.13569349395E+03  0.12499956490E+03 0.  0.
    9000005    1    3    3    0    0  0.36510696801E+02 -0.35748441770E+02  0.12653361474E+02  0.52650637474E+02  0.10000000000E+01 0.  0.
    9000005    1    3    3    0    0 -0.36510696801E+02  0.35748441770E+02 -0.65453295877E+02  0.83042856472E+02  0.10000000000E+01 0.  0.
<mgrwt>
<rscale>  0 0.12499956E+03</rscale>
<asrwt>0</asrwt>
<pdfrwt beam="2">  1        4 0.14499494E-01 0.12499956E+03</pdfrwt>
<pdfrwt beam="1">  1       -4 0.63764277E-02 0.12499956E+03</pdfrwt>
<totfact> 0.10223575E+04</totfact>
</mgrwt>
</event>
<event>
 5    1  0.3331626E-002  0.1249972E+03  0.7818608E-02  0.1235074E+00
          4   -1    0    0  501    0  0.00000000000E+00  0.00000000000E+00  0.92414462681E+02  0.92423188717E+02  0.12700000000E+01 0. -1.
         -4   -1    0    0    0  501 -0.00000000000E+00 -0.00000000000E+00 -0.42246628303E+02  0.42265713090E+02  0.12700000000E+01 0. -1.
         25    2    1    2    0    0  0.00000000000E+00  0.00000000000E+00  0.50167834378E+02  0.13468890181E+03  0.12499715462E+03 0.  0.
    9000005    1    3    3    0    0  0.21628493765E+02  0.13735403982E+02  0.86499854116E+02  0.90220163086E+02  0.10000000000E+01 0.  0.
    9000005    1    3    3    0    0 -0.21628493765E+02 -0.13735403982E+02 -0.36332019738E+02  0.44468738720E+02  0.10000000000E+01 0.  0.
<mgrwt>
<rscale>  0 0.12499715E+03</rscale>
<asrwt>0</asrwt>
<pdfrwt beam="1">  1        4 0.14219749E-01 0.12499715E+03</pdfrwt>
<pdfrwt beam="2">  1       -4 0.65016207E-02 0.12499715E+03</pdfrwt>
<totfact> 0.10245290E+04</totfact>
</mgrwt>
</event>
<event>
 5    1  0.3331626E-002  0.1249996E+03  0.7818608E-02  0.1235070E+00
         -4   -1    0    0    0  501 -0.00000000000E+00  0.00000000000E+00  0.45982344254E+03  0.45982519636E+03  0.12700000000E+01 0.  1.
          4   -1    0    0  501    0  0.00000000000E+00 -0.00000000000E+00 -0.84458111016E+01  0.85407625634E+01  0.12700000000E+01 0.  1.
         25    2    1    2    0    0  0.00000000000E+00  0.00000000000E+00  0.45137763144E+03  0.46836595893E+03  0.12499962127E+03 0.  0.
    9000005    1    3    3    0    0  0.52453685899E+02 -0.33506098608E+02  0.24661087269E+03  0.25434616242E+03  0.10000000000E+01 0.  0.
    9000005    1    3    3    0    0 -0.52453685899E+02  0.33506098608E+02  0.20476675875E+03  0.21401979651E+03  0.10000000000E+01 0.  0.
<mgrwt>
<rscale>  0 0.12499962E+03</rscale>
<asrwt>0</asrwt>
<pdfrwt beam="2">  1        4 0.13067944E-02 0.12499962E+03</pdfrwt>
<pdfrwt beam="1">  1       -4 0.70749509E-01 0.12499962E+03</pdfrwt>
<totfact> 0.58405612E+03</totfact>
</mgrwt>
</event>
<event>
 5    1  0.3331626E-002  0.1250068E+03  0.7818608E-02  0.1235059E+00
          4   -1    0    0  501    0  0.00000000000E+00  0.00000000000E+00  0.74316312007E+02  0.74327162802E+02  0.12700000000E+01 0.  1.
         -4   -1    0    0    0  501 -0.00000000000E+00 -0.00000000000E+00 -0.52545808796E+02  0.52561154116E+02  0.12700000000E+01 0.  1.
         25    2    1    2    0    0  0.00000000000E+00  0.00000000000E+00  0.21770503210E+02  0.12688831692E+03  0.12500676046E+03 0.  0.
    9000005    1    3    3    0    0  0.26853725926E+01  0.62437302622E+02  0.10670992977E+02  0.63407397643E+02  0.10000000000E+01 0.  0.
    9000005    1    3    3    0    0 -0.26853725926E+01 -0.62437302622E+02  0.11099510234E+02  0.63480919276E+02  0.10000000000E+01 0.  0.
<mgrwt>
<rscale>  0 0.12500676E+03</rscale>
<asrwt>0</asrwt>
<pdfrwt beam="1">  1        4 0.11435294E-01 0.12500676E+03</pdfrwt>
<pdfrwt beam="2">  1       -4 0.80859857E-02 0.12500676E+03</pdfrwt>
<totfact> 0.10409984E+04</totfact>
</mgrwt>
</event>
<event>
 5    1  0.3331626E-002  0.1250030E+03  0.7818608E-02  0.1235065E+00
         -4   -1    0    0    0  501 -0.00000000000E+00  0.00000000000E+00  0.35863774326E+03  0.35863999190E+03  0.12700000000E+01 0. -1.
          4   -1    0    0  501    0  0.00000000000E+00 -0.00000000000E+00 -0.10853127587E+02  0.10927180717E+02  0.12700000000E+01 0. -1.
         25    2    1    2    0    0  0.00000000000E+00  0.00000000000E+00  0.34778461567E+03  0.36956717262E+03  0.12500302467E+03 0.  0.
    9000005    1    3    3    0    0  0.54316051607E+02 -0.19145737780E+02  0.24562218342E+03  0.25228565105E+03  0.10000000000E+01 0.  0.
    9000005    1    3    3    0    0 -0.54316051607E+02  0.19145737780E+02  0.10216243225E+03  0.11728152156E+03  0.10000000000E+01 0.  0.
<mgrwt>
<rscale>  0 0.12500302E+03</rscale>
<asrwt>0</asrwt>
<pdfrwt beam="2">  1        4 0.16755815E-02 0.12500302E+03</pdfrwt>
<pdfrwt beam="1">  1       -4 0.55180899E-01 0.12500302E+03</pdfrwt>
<totfact> 0.67619724E+03</totfact>
</mgrwt>
</event>
<event>
 5    1  0.3331626E-002  0.1249956E+03  0.7818608E-02  0.1235076E+00
          4   -1    0    0  501    0  0.00000000000E+00  0.00000000000E+00  0.24581238641E+03  0.24581566714E+03  0.12700000000E+01 0.  1.
         -4   -1    0    0    0  501 -0.00000000000E+00 -0.00000000000E+00 -0.15861287027E+02  0.15912049715E+02  0.12700000000E+01 0.  1.
         25    2    1    2    0    0  0.00000000000E+00  0.00000000000E+00  0.22995109939E+03  0.26172771686E+03  0.12499555858E+03 0.  0.
    9000005    1    3    3    0    0 -0.56993898672E+02 -0.22390234075E+02  0.88877727879E+02  0.10793459863E+03  0.10000000000E+01 0.  0.
    9000005    1    3    3    0    0  0.56993898672E+02  0.22390234075E+02  0.14107337151E+03  0.15379311823E+03  0.10000000000E+01 0.  0.
<mgrwt>
<rscale>  0 0.12499556E+03</rscale>
<asrwt>0</asrwt>
<pdfrwt beam="1">  1        4 0.37821446E-01 0.12499556E+03</pdfrwt>
<pdfrwt beam="2">  1       -4 0.24443553E-02 0.12499556E+03</pdfrwt>
<totfact> 0.80672185E+03</totfact>
</mgrwt>
</event>
<event>
 5    1  0.3331626E-002  0.1250010E+03  0.7818608E-02  0.1235068E+00
         -4   -1    0    0    0  501 -0.00000000000E+00  0.00000000000E+00  0.11191387118E+02  0.11263216486E+02  0.12700000000E+01 0.  1.
          4   -1    0    0  501    0  0.00000000000E+00 -0.00000000000E+00 -0.34785667390E+03  0.34785899223E+03  0.12700000000E+01 0.  1.
         25    2    1    2    0    0  0.00000000000E+00  0.00000000000E+00 -0.33666528678E+03  0.35912220872E+03  0.12500098188E+03 0.  0.
    9000005    1    3    3    0    0  0.35130168604E+02 -0.78296219793E+01 -0.21562040272E+02  0.41968479924E+02  0.10000000000E+01 0.  0.
    9000005    1    3    3    0    0 -0.35130168604E+02  0.78296219793E+01 -0.31510324651E+03  0.31715372879E+03  0.10000000000E+01 0.  0.
<mgrwt>
<rscale>  0 0.12500098E+03</rscale>
<asrwt>0</asrwt>
<pdfrwt beam="2">  1        4 0.53522107E-01 0.12500098E+03</pdfrwt>
<pdfrwt beam="1">  1       -4 0.17274558E-02 0.12500098E+03</pdfrwt>
<totfact> 0.68731035E+03</totfact>
</mgrwt>
</event>
<event>
 5    1  0.3331626E-002  0.1250014E+03  0.7818608E-02  0.1235067E+00
         -4   -1    0    0    0  501 -0.00000000000E+00  0.00000000000E+00  0.93313283492E+02  0.93321925484E+02  0.12700000000E+01 0. -1.
          4   -1    0    0  501    0  0.00000000000E+00 -0.00000000000E+00 -0.41842392719E+02  0.41861661797E+02  0.12700000000E+01 0. -1.
         25    2    1    2    0    0  0.00000000000E+00  0.00000000000E+00  0.51470890773E+02  0.13518358728E+03  0.12500139868E+03 0.  0.
    9000005    1    3    3    0    0  0.20248145582E+02 -0.53776334957E+02  0.52301791930E+02  0.77706878975E+02  0.10000000000E+01 0.  0.
    9000005    1    3    3    0    0 -0.20248145582E+02  0.53776334957E+02 -0.83090115723E+00  0.57476708306E+02  0.10000000000E+01 0.  0.
<mgrwt>
<rscale>  0 0.12500140E+03</rscale>
<asrwt>0</asrwt>
<pdfrwt beam="2">  1        4 0.64394382E-02 0.12500140E+03</pdfrwt>
<pdfrwt beam="1">  1       -4 0.14358037E-01 0.12500140E+03</pdfrwt>
<totfact> 0.10233880E+04</totfact>
</mgrwt>
</event>
<event>
 5    1  0.3331626E-002  0.1249999E+03  0.7818608E-02  0.1235069E+00
          4   -1    0    0  501    0  0.00000000000E+00  0.00000000000E+00  0.14654715678E+03  0.14655265968E+03  0.12700000000E+01 0. -1.
         -4   -1    0    0    0  501 -0.00000000000E+00 -0.00000000000E+00 -0.26634054119E+02  0.26664315832E+02  0.12700000000E+01 0. -1.
         25    2    1    2    0    0  0.00000000000E+00  0.00000000000E+00  0.11991310266E+03  0.17321697552E+03  0.12499987367E+03 0.  0.
    9000005    1    3    3    0    0  0.57068207205E+01 -0.53743427766E+02  0.10343245833E+03  0.11670560083E+03  0.10000000000E+01 0.  0.
    9000005    1    3    3    0    0 -0.57068207205E+01  0.53743427766E+02  0.16480644336E+02  0.56511374682E+02  0.10000000000E+01 0.  0.
<mgrwt>
<rscale>  0 0.12499987E+03</rscale>
<asrwt>0</asrwt>
<pdfrwt beam="1">  1        4 0.22548467E-01 0.12499987E+03</pdfrwt>
<pdfrwt beam="2">  1       -4 0.41002980E-02 0.12499987E+03</pdfrwt>
<totfact> 0.94852684E+03</totfact>
</mgrwt>
</event>
<event>
 5    1  0.3331626E-002  0.1249984E+03  0.7818608E-02  0.1235072E+00
          4   -1    0    0  501    0  0.00000000000E+00  0.00000000000E+00  0.14161704693E+02  0.14218536486E+02  0.12700000000E+01 0. -1.
         -4   -1    0    0    0  501 -0.00000000000E+00 -0.00000000000E+00 -0.27521440343E+03  0.27521733368E+03  0.12700000000E+01 0. -1.
         25    2    1    2    0    0  0.00000000000E+00  0.00000000000E+00 -0.26105269874E+03  0.28943587016E+03  0.12499844566E+03 0.  0.
    9000005    1    3    3    0    0  0.39233356386E+02  0.15623493409E+02 -0.23718602911E+03  0.24091816496E+03  0.10000000000E+01 0.  0.
    9000005    1    3    3    0    0 -0.39233356386E+02 -0.15623493409E+02 -0.23866669627E+02  0.48517705208E+02  0.10000000000E+01 0.  0.
<mgrwt>
<rscale>  0 0.12499845E+03</rscale>
<asrwt>0</asrwt>
<pdfrwt beam="1">  1        4 0.21833211E-02 0.12499845E+03</pdfrwt>
<pdfrwt beam="2">  1       -4 0.42345271E-01 0.12499845E+03</pdfrwt>
<totfact> 0.76946042E+03</totfact>
</mgrwt>
</event>
<event>
 5    1  0.3331626E-002  0.1250014E+03  0.7818608E-02  0.1235067E+00
          4   -1    0    0  501    0  0.00000000000E+00  0.00000000000E+00  0.69346168568E+02  0.69357796930E+02  0.12700000000E+01 0.  1.
         -4   -1    0    0    0  501 -0.00000000000E+00 -0.00000000000E+00 -0.56307447312E+02  0.56321767753E+02  0.12700000000E+01 0.  1.
         25    2    1    2    0    0  0.00000000000E+00  0.00000000000E+00  0.13038721256E+02  0.12567956468E+03  0.12500137890E+03 0.  0.
    9000005    1    3    3    0    0  0.21416589551E+02  0.50610568551E+02 -0.23394981248E+02  0.59736296375E+02  0.10000000000E+01 0.  0.
    9000005    1    3    3    0    0 -0.21416589551E+02 -0.50610568551E+02  0.36433702504E+02  0.65943268308E+02  0.10000000000E+01 0.  0.
<mgrwt>
<rscale>  0 0.12500138E+03</rscale>
<asrwt>0</asrwt>
<pdfrwt beam="1">  1        4 0.10670637E-01 0.12500138E+03</pdfrwt>
<pdfrwt beam="2">  1       -4 0.86646803E-02 0.12500138E+03</pdfrwt>
<totfact> 0.10437669E+04</totfact>
</mgrwt>
</event>
<event>
 5    1  0.3331626E-002  0.1249995E+03  0.7818608E-02  0.1235070E+00
          4   -1    0    0  501    0  0.00000000000E+00  0.00000000000E+00  0.15674075331E+02  0.15725442362E+02  0.12700000000E+01 0. -1.
         -4   -1    0    0    0  501 -0.00000000000E+00 -0.00000000000E+00 -0.24875459663E+03  0.24875783856E+03  0.12700000000E+01 0. -1.
         25    2    1    2    0    0  0.00000000000E+00  0.00000000000E+00 -0.23308052130E+03  0.26448328092E+03  0.12499950591E+03 0.  0.
    9000005    1    3    3    0    0 -0.18679940769E+02  0.59088612361E+02 -0.13357467048E+03  0.14725351233E+03  0.10000000000E+01 0.  0.
    9000005    1    3    3    0    0  0.18679940769E+02 -0.59088612361E+02 -0.99505850816E+02  0.11722976859E+03  0.10000000000E+01 0.  0.
<mgrwt>
<rscale>  0 0.12499951E+03</rscale>
<asrwt>0</asrwt>
<pdfrwt beam="1">  1        4 0.24155971E-02 0.12499951E+03</pdfrwt>
<pdfrwt beam="2">  1       -4 0.38274136E-01 0.12499951E+03</pdfrwt>
<totfact> 0.80281868E+03</totfact>
</mgrwt>
</event>
<event>
 5    1  0.3331626E-002  0.1249995E+03  0.7818608E-02  0.1235070E+00
         -4   -1    0    0    0  501 -0.00000000000E+00  0.00000000000E+00  0.48324824367E+02  0.48341509596E+02  0.12700000000E+01 0.  1.
          4   -1    0    0  501    0  0.00000000000E+00 -0.00000000000E+00 -0.80796877276E+02  0.80806857862E+02  0.12700000000E+01 0.  1.
         25    2    1    2    0    0  0.00000000000E+00  0.00000000000E+00 -0.32472052909E+02  0.12914836746E+03  0.12499946639E+03 0.  0.
    9000005    1    3    3    0    0  0.27851089848E+01 -0.20023212775E+02 -0.77330149988E+02  0.79935211134E+02  0.10000000000E+01 0.  0.
    9000005    1    3    3    0    0 -0.27851089848E+01  0.20023212775E+02  0.44858097079E+02  0.49213156324E+02  0.10000000000E+01 0.  0.
<mgrwt>
<rscale>  0 0.12499947E+03</rscale>
<asrwt>0</asrwt>
<pdfrwt beam="2">  1        4 0.12432340E-01 0.12499947E+03</pdfrwt>
<pdfrwt beam="1">  1       -4 0.74366396E-02 0.12499947E+03</pdfrwt>
<totfact> 0.10362885E+04</totfact>
</mgrwt>
</event>
<event>
 5    1  0.3331626E-002  0.1250027E+03  0.7818608E-02  0.1235065E+00
         -4   -1    0    0    0  501 -0.00000000000E+00  0.00000000000E+00  0.34608098322E+03  0.34608331345E+03  0.12700000000E+01 0.  1.
          4   -1    0    0  501    0  0.00000000000E+00 -0.00000000000E+00 -0.11249494514E+02  0.11320955208E+02  0.12700000000E+01 0.  1.
         25    2    1    2    0    0  0.00000000000E+00  0.00000000000E+00  0.33483148871E+03  0.35740426866E+03  0.12500274166E+03 0.  0.
    9000005    1    3    3    0    0  0.44628213426E+02 -0.43730887288E+02  0.17074200575E+03  0.18181831719E+03  0.10000000000E+01 0.  0.
    9000005    1    3    3    0    0 -0.44628213426E+02  0.43730887288E+02  0.16408948296E+03  0.17558595147E+03  0.10000000000E+01 0.  0.
<mgrwt>
<rscale>  0 0.12500274E+03</rscale>
<asrwt>0</asrwt>
<pdfrwt beam="2">  1        4 0.17363678E-02 0.12500274E+03</pdfrwt>
<pdfrwt beam="1">  1       -4 0.53248902E-01 0.12500274E+03</pdfrwt>
<totfact> 0.68913424E+03</totfact>
</mgrwt>
</event>
<event>
 5    1  0.3331626E-002  0.1250012E+03  0.7818608E-02  0.1235067E+00
          4   -1    0    0  501    0  0.00000000000E+00  0.00000000000E+00  0.28218342387E+03  0.28218628175E+03  0.12700000000E+01 0. -1.
         -4   -1    0    0    0  501 -0.00000000000E+00 -0.00000000000E+00 -0.13811146004E+02  0.13869414333E+02  0.12700000000E+01 0. -1.
         25    2    1    2    0    0  0.00000000000E+00  0.00000000000E+00  0.26837227787E+03  0.29605569608E+03  0.12500118261E+03 0.  0.
    9000005    1    3    3    0    0  0.56044702838E+02 -0.27328646701E+02  0.12428956803E+03  0.13905668041E+03  0.10000000000E+01 0.  0.
    9000005    1    3    3    0    0 -0.56044702838E+02  0.27328646701E+02  0.14408270983E+03  0.15699901567E+03  0.10000000000E+01 0.  0.
<mgrwt>
<rscale>  0 0.12500118E+03</rscale>
<asrwt>0</asrwt>
<pdfrwt beam="1">  1        4 0.43417539E-01 0.12500118E+03</pdfrwt>
<pdfrwt beam="2">  1       -4 0.21294936E-02 0.12500118E+03</pdfrwt>
<totfact> 0.76094282E+03</totfact>
</mgrwt>
</event>
<event>
 5    1  0.3331626E-002  0.1249756E+03  0.7818608E-02  0.1235107E+00
          4   -1    0    0  501    0  0.00000000000E+00  0.00000000000E+00  0.22633768488E+03  0.22634124789E+03  0.12700000000E+01 0.  1.
         -4   -1    0    0    0  501 -0.00000000000E+00 -0.00000000000E+00 -0.17224695188E+02  0.17271451136E+02  0.12700000000E+01 0.  1.
         25    2    1    2    0    0  0.00000000000E+00  0.00000000000E+00  0.20911298969E+03  0.24361269903E+03  0.12497561630E+03 0.  0.
    9000005    1    3    3    0    0  0.37177301003E+02  0.22537228259E+02  0.17085031456E+02  0.46722335850E+02  0.10000000000E+01 0.  0.
    9000005    1    3    3    0    0 -0.37177301003E+02 -0.22537228259E+02  0.19202795823E+03  0.19689036317E+03  0.10000000000E+01 0.  0.
<mgrwt>
<rscale>  0 0.12497562E+03</rscale>
<asrwt>0</asrwt>
<pdfrwt beam="1">  1        4 0.34825050E-01 0.12497562E+03</pdfrwt>
<pdfrwt beam="2">  1       -4 0.26538241E-02 0.12497562E+03</pdfrwt>
<totfact> 0.83307512E+03</totfact>
</mgrwt>
</event>
<event>
 5    1  0.3331626E-002  0.1250055E+03  0.7818608E-02  0.1235061E+00
          4   -1    0    0  501    0  0.00000000000E+00  0.00000000000E+00  0.46211219087E+03  0.46211393600E+03  0.12700000000E+01 0.  1.
         -4   -1    0    0    0  501 -0.00000000000E+00 -0.00000000000E+00 -0.84043073931E+01  0.84997225107E+01  0.12700000000E+01 0.  1.
         25    2    1    2    0    0  0.00000000000E+00  0.00000000000E+00  0.45370788347E+03  0.47061365851E+03  0.12500548809E+03 0.  0.
    9000005    1    3    3    0    0 -0.23414656542E+02  0.59234055819E+01  0.98576735974E+01  0.26105681440E+02  0.10000000000E+01 0.  0.
    9000005    1    3    3    0    0  0.23414656542E+02 -0.59234055819E+01  0.44385020988E+03  0.44450797707E+03  0.10000000000E+01 0.  0.
<mgrwt>
<rscale>  0 0.12500549E+03</rscale>
<asrwt>0</asrwt>
<pdfrwt beam="1">  1        4 0.71101673E-01 0.12500549E+03</pdfrwt>
<pdfrwt beam="2">  1       -4 0.13004439E-02 0.12500549E+03</pdfrwt>
<totfact> 0.58211678E+03</totfact>
</mgrwt>
</event>
<event>
 5    1  0.3331626E-002  0.1249957E+03  0.7818608E-02  0.1235076E+00
          4   -1    0    0  501    0  0.00000000000E+00  0.00000000000E+00  0.14483946119E+02  0.14539518396E+02  0.12700000000E+01 0.  1.
         -4   -1    0    0    0  501 -0.00000000000E+00 -0.00000000000E+00 -0.26910313436E+03  0.26910613115E+03  0.12700000000E+01 0.  1.
         25    2    1    2    0    0  0.00000000000E+00  0.00000000000E+00 -0.25461918824E+03  0.28364564954E+03  0.12499569387E+03 0.  0.
    9000005    1    3    3    0    0  0.30353879844E+02  0.43414525700E+02 -0.20253088080E+03  0.20934645147E+03  0.10000000000E+01 0.  0.
    9000005    1    3    3    0    0 -0.30353879844E+02 -0.43414525700E+02 -0.52088307437E+02  0.74299198077E+02  0.10000000000E+01 0.  0.
<mgrwt>
<rscale>  0 0.12499569E+03</rscale>
<asrwt>0</asrwt>
<pdfrwt beam="1">  1        4 0.22328049E-02 0.12499569E+03</pdfrwt>
<pdfrwt beam="2">  1       -4 0.41404984E-01 0.12499569E+03</pdfrwt>
<totfact> 0.77704626E+03</totfact>
</mgrwt>
</event>
<event>
 5    1  0.3331626E-002  0.1250109E+03  0.7818608E-02  0.1235052E+00
          4   -1    0    0  501    0  0.00000000000E+00  0.00000000000E+00  0.19911620630E+02  0.19952080997E+02  0.12700000000E+01 0.  1.
         -4   -1    0    0    0  501 -0.00000000000E+00 -0.00000000000E+00 -0.19597191447E+03  0.19597602956E+03  0.12700000000E+01 0.  1.
         25    2    1    2    0    0  0.00000000000E+00  0.00000000000E+00 -0.17606029384E+03  0.21592811056E+03  0.12501088697E+03 0.  0.
    9000005    1    3    3    0    0 -0.47080224139E+02  0.30047315373E+02 -0.39588126145E+02  0.68466111309E+02  0.10000000000E+01 0.  0.
    9000005    1    3    3    0    0  0.47080224139E+02 -0.30047315373E+02 -0.13647216770E+03  0.14746199925E+03  0.10000000000E+01 0.  0.
<mgrwt>
<rscale>  0 0.12501089E+03</rscale>
<asrwt>0</asrwt>
<pdfrwt beam="1">  1        4 0.30667553E-02 0.12501089E+03</pdfrwt>
<pdfrwt beam="2">  1       -4 0.30152953E-01 0.12501089E+03</pdfrwt>
<totfact> 0.87495516E+03</totfact>
</mgrwt>
</event>
<event>
 5    1  0.3331626E-002  0.1250031E+03  0.7818608E-02  0.1235064E+00
         -4   -1    0    0    0  501 -0.00000000000E+00  0.00000000000E+00  0.14412689367E+03  0.14413248898E+03  0.12700000000E+01 0.  1.
          4   -1    0    0  501    0  0.00000000000E+00 -0.00000000000E+00 -0.27083193374E+02  0.27112953793E+02  0.12700000000E+01 0.  1.
         25    2    1    2    0    0  0.00000000000E+00  0.00000000000E+00  0.11704370030E+03  0.17124544277E+03  0.12500309553E+03 0.  0.
    9000005    1    3    3    0    0 -0.22522339170E+02  0.51605462395E+02  0.21380232021E+02  0.60236980602E+02  0.10000000000E+01 0.  0.
    9000005    1    3    3    0    0  0.22522339170E+02 -0.51605462395E+02  0.95663468278E+02  0.11100846217E+03  0.10000000000E+01 0.  0.
<mgrwt>
<rscale>  0 0.12500310E+03</rscale>
<asrwt>0</asrwt>
<pdfrwt beam="2">  1        4 0.41693648E-02 0.12500310E+03</pdfrwt>
<pdfrwt beam="1">  1       -4 0.22176088E-01 0.12500310E+03</pdfrwt>
<totfact> 0.95210396E+03</totfact>
</mgrwt>
</event>
<event>
 5    1  0.3331626E-002  0.1250424E+03  0.7818608E-02  0.1235003E+00
          4   -1    0    0  501    0  0.00000000000E+00  0.00000000000E+00  0.70806535945E+01  0.71936468725E+01  0.12700000000E+01 0.  1.
         -4   -1    0    0    0  501 -0.00000000000E+00 -0.00000000000E+00 -0.54757023957E+03  0.54757171235E+03  0.12700000000E+01 0.  1.
         25    2    1    2    0    0  0.00000000000E+00  0.00000000000E+00 -0.54048958598E+03  0.55476535922E+03  0.12504243776E+03 0.  0.
    9000005    1    3    3    0    0  0.31796047254E+02 -0.15707659638E+01 -0.31554534294E+02  0.44834635732E+02  0.10000000000E+01 0.  0.
    9000005    1    3    3    0    0 -0.31796047254E+02  0.15707659638E+01 -0.50893505168E+03  0.50993072349E+03  0.10000000000E+01 0.  0.
<mgrwt>
<rscale>  0 0.12504244E+03</rscale>
<asrwt>0</asrwt>
<pdfrwt beam="1">  1        4 0.10981368E-02 0.12504244E+03</pdfrwt>
<pdfrwt beam="2">  1       -4 0.84250347E-01 0.12504244E+03</pdfrwt>
<totfact> 0.51805124E+03</totfact>
</mgrwt>
</event>
<event>
 5    1  0.3331626E-002  0.1250016E+03  0.7818608E-02  0.1235067E+00
         -4   -1    0    0    0  501 -0.00000000000E+00  0.00000000000E+00  0.73193901274E+02  0.73204918440E+02  0.12700000000E+01 0.  1.
          4   -1    0    0  501    0  0.00000000000E+00 -0.00000000000E+00 -0.53347312698E+02  0.53362427532E+02  0.12700000000E+01 0.  1.
         25    2    1    2    0    0  0.00000000000E+00  0.00000000000E+00  0.19846588577E+02  0.12656734597E+03  0.12500162394E+03 0.  0.
    9000005    1    3    3    0    0 -0.10587756115E+02 -0.27376147063E+02 -0.45938373211E+02  0.54524197755E+02  0.10000000000E+01 0.  0.
    9000005    1    3    3    0    0  0.10587756115E+02  0.27376147063E+02  0.65784961787E+02  0.72043148216E+02  0.10000000000E+01 0.  0.
<mgrwt>
<rscale>  0 0.12500162E+03</rscale>
<asrwt>0</asrwt>
<pdfrwt beam="2">  1        4 0.82092890E-02 0.12500162E+03</pdfrwt>
<pdfrwt beam="1">  1       -4 0.11262610E-01 0.12500162E+03</pdfrwt>
<totfact> 0.10418178E+04</totfact>
</mgrwt>
</event>
<event>
 5    1  0.3331626E-002  0.1250026E+03  0.7818608E-02  0.1235065E+00
          4   -1    0    0  501    0  0.00000000000E+00  0.00000000000E+00  0.10499825898E+03  0.10500593930E+03  0.12700000000E+01 0. -1.
         -4   -1    0    0    0  501 -0.00000000000E+00 -0.00000000000E+00 -0.37184660328E+02  0.37206341713E+02  0.12700000000E+01 0. -1.
         25    2    1    2    0    0  0.00000000000E+00  0.00000000000E+00  0.67813598654E+02  0.14221228102E+03  0.12500259481E+03 0.  0.
    9000005    1    3    3    0    0  0.56985203748E+02 -0.33575339335E+01  0.62841014496E+02  0.84903354370E+02  0.10000000000E+01 0.  0.
    9000005    1    3    3    0    0 -0.56985203748E+02  0.33575339335E+01  0.49725841580E+01  0.57308926648E+02  0.10000000000E+01 0.  0.
<mgrwt>
<rscale>  0 0.12500259E+03</rscale>
<asrwt>0</asrwt>
<pdfrwt beam="1">  1        4 0.16155837E-01 0.12500259E+03</pdfrwt>
<pdfrwt beam="2">  1       -4 0.57229756E-02 0.12500259E+03</pdfrwt>
<totfact> 0.10087350E+04</totfact>
</mgrwt>
</event>
<event>
 5    1  0.3331626E-002  0.1249948E+03  0.7818608E-02  0.1235077E+00
         -4   -1    0    0    0  501 -0.00000000000E+00  0.00000000000E+00  0.63164388386E+02  0.63177154575E+02  0.12700000000E+01 0. -1.
          4   -1    0    0  501    0  0.00000000000E+00 -0.00000000000E+00 -0.61811952694E+02  0.61824998146E+02  0.12700000000E+01 0. -1.
         25    2    1    2    0    0  0.00000000000E+00  0.00000000000E+00  0.13524356923E+01  0.12500215272E+03  0.12499483630E+03 0.  0.
    9000005    1    3    3    0    0  0.58493004183E+02 -0.47439107424E+01 -0.20795741003E+02  0.62268764813E+02  0.10000000000E+01 0.  0.
    9000005    1    3    3    0    0 -0.58493004183E+02  0.47439107424E+01  0.22148176696E+02  0.62733387908E+02  0.10000000000E+01 0.  0.
<mgrwt>
<rscale>  0 0.12499484E+03</rscale>
<asrwt>0</asrwt>
<pdfrwt beam="2">  1        4 0.95115166E-02 0.12499484E+03</pdfrwt>
<pdfrwt beam="1">  1       -4 0.97195838E-02 0.12499484E+03</pdfrwt>
<totfact> 0.10454036E+04</totfact>
</mgrwt>
</event>
<event>
 5    1  0.3331626E-002  0.1250029E+03  0.7818608E-02  0.1235065E+00
         -4   -1    0    0    0  501 -0.00000000000E+00  0.00000000000E+00  0.40283185544E+02  0.40303200091E+02  0.12700000000E+01 0.  1.
          4   -1    0    0  501    0  0.00000000000E+00 -0.00000000000E+00 -0.96925981209E+02  0.96934301119E+02  0.12700000000E+01 0.  1.
         25    2    1    2    0    0  0.00000000000E+00  0.00000000000E+00 -0.56642795666E+02  0.13723750121E+03  0.12500290172E+03 0.  0.
    9000005    1    3    3    0    0  0.41695587798E+02  0.41355615362E+02 -0.51781576298E+02  0.78301600288E+02  0.10000000000E+01 0.  0.
    9000005    1    3    3    0    0 -0.41695587798E+02 -0.41355615362E+02 -0.48612193679E+01  0.58935900922E+02  0.10000000000E+01 0.  0.
<mgrwt>
<rscale>  0 0.12500290E+03</rscale>
<asrwt>0</asrwt>
<pdfrwt beam="2">  1        4 0.14913869E-01 0.12500290E+03</pdfrwt>
<pdfrwt beam="1">  1       -4 0.61995927E-02 0.12500290E+03</pdfrwt>
<totfact> 0.10190456E+04</totfact>
</mgrwt>
</event>
<event>
 5    1  0.3331626E-002  0.1249999E+03  0.7818608E-02  0.1235069E+00
          4   -1    0    0  501    0  0.00000000000E+00  0.00000000000E+00  0.13599031424E+04  0.13599037355E+04  0.12700000000E+01 0. -1.
         -4   -1    0    0    0  501 -0.00000000000E+00 -0.00000000000E+00 -0.27314415937E+01  0.30122538372E+01  0.12700000000E+01 0. -1.
         25    2    1    2    0    0  0.00000000000E+00  0.00000000000E+00  0.13571717008E+04  0.13629159893E+04  0.12499987322E+03 0.  0.
    9000005    1    3    3    0    0 -0.55614176811E+02 -0.27808539029E+02  0.61050275233E+03  0.61366184671E+03  0.10000000000E+01 0.  0.
    9000005    1    3    3    0    0  0.55614176811E+02  0.27808539029E+02  0.74666894852E+03  0.74925414259E+03  0.10000000000E+01 0.  0.
<mgrwt>
<rscale>  0 0.12499987E+03</rscale>
<asrwt>0</asrwt>
<pdfrwt beam="1">  1        4 0.20923766E+00 0.12499987E+03</pdfrwt>
<pdfrwt beam="2">  1       -4 0.44186804E-03 0.12499987E+03</pdfrwt>
<totfact> 0.20790430E+03</totfact>
</mgrwt>
</event>
<event>
 5    1  0.3331626E-002  0.1249986E+03  0.7818608E-02  0.1235071E+00
         -4   -1    0    0    0  501 -0.00000000000E+00  0.00000000000E+00  0.23175535876E+03  0.23175883848E+03  0.12700000000E+01 0. -1.
          4   -1    0    0  501    0  0.00000000000E+00 -0.00000000000E+00 -0.16827150289E+02  0.16875007758E+02  0.12700000000E+01 0. -1.
         25    2    1    2    0    0  0.00000000000E+00  0.00000000000E+00  0.21492820847E+03  0.24863384624E+03  0.12499861879E+03 0.  0.
    9000005    1    3    3    0    0 -0.96891437581E+01 -0.15513183655E+02  0.22632176349E+03  0.22706183961E+03  0.10000000000E+01 0.  0.
    9000005    1    3    3    0    0  0.96891437581E+01  0.15513183655E+02 -0.11393555027E+02  0.21572006630E+02  0.10000000000E+01 0.  0.
<mgrwt>
<rscale>  0 0.12499862E+03</rscale>
<asrwt>0</asrwt>
<pdfrwt beam="2">  1        4 0.25927414E-02 0.12499862E+03</pdfrwt>
<pdfrwt beam="1">  1       -4 0.35658619E-01 0.12499862E+03</pdfrwt>
<totfact> 0.82530621E+03</totfact>
</mgrwt>
</event>
<event>
 5    1  0.3331626E-002  0.1249821E+03  0.7818608E-02  0.1235097E+00
         -4   -1    0    0    0  501 -0.00000000000E+00  0.00000000000E+00  0.31980014474E+03  0.31980266646E+03  0.12700000000E+01 0. -1.
          4   -1    0    0  501    0  0.00000000000E+00 -0.00000000000E+00 -0.12175555639E+02  0.12241611623E+02  0.12700000000E+01 0. -1.
         25    2    1    2    0    0  0.00000000000E+00  0.00000000000E+00  0.30762458910E+03  0.33204427808E+03  0.12498205787E+03 0.  0.
    9000005    1    3    3    0    0  0.56874299458E+02 -0.25871133734E+02  0.15286477570E+03  0.16514430401E+03  0.10000000000E+01 0.  0.
    9000005    1    3    3    0    0 -0.56874299458E+02  0.25871133734E+02  0.15475981340E+03  0.16689997407E+03  0.10000000000E+01 0.  0.
<mgrwt>
<rscale>  0 0.12498206E+03</rscale>
<asrwt>0</asrwt>
<pdfrwt beam="2">  1        4 0.18784375E-02 0.12498206E+03</pdfrwt>
<pdfrwt beam="1">  1       -4 0.49205302E-01 0.12498206E+03</pdfrwt>
<totfact> 0.71774670E+03</totfact>
</mgrwt>
</event>
<event>
 5    1  0.3331626E-002  0.1249986E+03  0.7818608E-02  0.1235072E+00
         -4   -1    0    0    0  501 -0.00000000000E+00  0.00000000000E+00  0.70387695086E+02  0.70399151412E+02  0.12700000000E+01 0. -1.
          4   -1    0    0  501    0  0.00000000000E+00 -0.00000000000E+00 -0.55471680975E+02  0.55486217119E+02  0.12700000000E+01 0. -1.
         25    2    1    2    0    0  0.00000000000E+00  0.00000000000E+00  0.14916014111E+02  0.12588536853E+03  0.12499855412E+03 0.  0.
    9000005    1    3    3    0    0  0.44059352998E+02  0.80025334566E+01  0.51355001001E+02  0.68143989141E+02  0.10000000000E+01 0.  0.
    9000005    1    3    3    0    0 -0.44059352998E+02 -0.80025334566E+01 -0.36438986889E+02  0.57741379390E+02  0.10000000000E+01 0.  0.
<mgrwt>
<rscale>  0 0.12499855E+03</rscale>
<asrwt>0</asrwt>
<pdfrwt beam="2">  1        4 0.85361042E-02 0.12499855E+03</pdfrwt>
<pdfrwt beam="1">  1       -4 0.10830876E-01 0.12499855E+03</pdfrwt>
<totfact> 0.10433811E+04</totfact>
</mgrwt>
</event>
<event>
 5    1  0.3331626E-002  0.1250015E+03  0.7818608E-02  0.1235067E+00
         -4   -1    0    0    0  501 -0.00000000000E+00  0.00000000000E+00  0.11116207126E+02  0.11188519154E+02  0.12700000000E+01 0. -1.
          4   -1    0    0  501    0  0.00000000000E+00 -0.00000000000E+00 -0.35019697037E+03  0.35019927321E+03  0.12700000000E+01 0. -1.
         25    2    1    2    0    0  0.00000000000E+00  0.00000000000E+00 -0.33908076325E+03  0.36138779237E+03  0.12500148986E+03 0.  0.
    9000005    1    3    3    0    0 -0.30734477378E+02  0.54246519662E+02 -0.18182320916E+03  0.19221855370E+03  0.10000000000E+01 0.  0.
    9000005    1    3    3    0    0  0.30734477378E+02 -0.54246519662E+02 -0.15725755409E+03  0.16916923867E+03  0.10000000000E+01 0.  0.
<mgrwt>
<rscale>  0 0.12500149E+03</rscale>
<asrwt>0</asrwt>
<pdfrwt beam="2">  1        4 0.53882188E-01 0.12500149E+03</pdfrwt>
<pdfrwt beam="1">  1       -4 0.17159256E-02 0.12500149E+03</pdfrwt>
<totfact> 0.68487411E+03</totfact>
</mgrwt>
</event>
<event>
 5    1  0.3331626E-002  0.1250128E+03  0.7818608E-02  0.1235049E+00
          4   -1    0    0  501    0  0.00000000000E+00  0.00000000000E+00  0.82870231834E+01  0.83837732104E+01  0.12700000000E+01 0.  1.
         -4   -1    0    0    0  501 -0.00000000000E+00 -0.00000000000E+00 -0.46863212493E+03  0.46863384578E+03  0.12700000000E+01 0.  1.
         25    2    1    2    0    0  0.00000000000E+00  0.00000000000E+00 -0.46034510174E+03  0.47701761899E+03  0.12501278387E+03 0.  0.
    9000005    1    3    3    0    0 -0.30068781716E+02  0.51979345921E+02 -0.16407465080E+03  0.17472113516E+03  0.10000000000E+01 0.  0.
    9000005    1    3    3    0    0  0.30068781716E+02 -0.51979345921E+02 -0.29627045094E+03  0.30229648383E+03  0.10000000000E+01 0.  0.
<mgrwt>
<rscale>  0 0.12501278E+03</rscale>
<asrwt>0</asrwt>
<pdfrwt beam="1">  1        4 0.12825017E-02 0.12501278E+03</pdfrwt>
<pdfrwt beam="2">  1       -4 0.72104804E-01 0.12501278E+03</pdfrwt>
<totfact> 0.57676457E+03</totfact>
</mgrwt>
</event>
<event>
 5    1  0.3331626E-002  0.1249976E+03  0.7818608E-02  0.1235073E+00
          4   -1    0    0  501    0  0.00000000000E+00  0.00000000000E+00  0.58449969958E+02  0.58463765600E+02  0.12700000000E+01 0. -1.
         -4   -1    0    0    0  501 -0.00000000000E+00 -0.00000000000E+00 -0.66800423141E+02  0.66812494579E+02  0.12700000000E+01 0. -1.
         25    2    1    2    0    0  0.00000000000E+00  0.00000000000E+00 -0.83504531830E+01  0.12527626018E+03  0.12499764516E+03 0.  0.
    9000005    1    3    3    0    0 -0.13578797978E+02 -0.32985707013E+02 -0.55599068249E+02  0.66065853599E+02  0.10000000000E+01 0.  0.
    9000005    1    3    3    0    0  0.13578797978E+02  0.32985707013E+02  0.47248615066E+02  0.59210406579E+02  0.10000000000E+01 0.  0.
<mgrwt>
<rscale>  0 0.12499765E+03</rscale>
<asrwt>0</asrwt>
<pdfrwt beam="1">  1        4 0.89942929E-02 0.12499765E+03</pdfrwt>
<pdfrwt beam="2">  1       -4 0.10278978E-01 0.12499765E+03</pdfrwt>
<totfact> 0.10447421E+04</totfact>
</mgrwt>
</event>
<event>
 5    1  0.3331626E-002  0.1250001E+03  0.7818608E-02  0.1235069E+00
         -4   -1    0    0    0  501 -0.00000000000E+00  0.00000000000E+00  0.96748373792E+01  0.97578367640E+01  0.12700000000E+01 0.  1.
          4   -1    0    0  501    0  0.00000000000E+00 -0.00000000000E+00 -0.40194550801E+03  0.40194751437E+03  0.12700000000E+01 0.  1.
         25    2    1    2    0    0  0.00000000000E+00  0.00000000000E+00 -0.39227067063E+03  0.41170535114E+03  0.12500006847E+03 0.  0.
    9000005    1    3    3    0    0 -0.79304123770E+01  0.10802161942E+02 -0.39717363890E+03  0.39740090284E+03  0.10000000000E+01 0.  0.
    9000005    1    3    3    0    0  0.79304123770E+01 -0.10802161942E+02  0.49029682697E+01  0.14304448292E+02  0.10000000000E+01 0.  0.
<mgrwt>
<rscale>  0 0.12500007E+03</rscale>
<asrwt>0</asrwt>
<pdfrwt beam="2">  1        4 0.61844296E-01 0.12500007E+03</pdfrwt>
<pdfrwt beam="1">  1       -4 0.14949757E-02 0.12500007E+03</pdfrwt>
<totfact> 0.63429953E+03</totfact>
</mgrwt>
</event>
<event>
 5    1  0.3331626E-002  0.1249987E+03  0.7818608E-02  0.1235071E+00
         -4   -1    0    0    0  501 -0.00000000000E+00  0.00000000000E+00  0.49117369017E+03  0.49117533205E+03  0.12700000000E+01 0. -1.
          4   -1    0    0  501    0  0.00000000000E+00 -0.00000000000E+00 -0.79003499776E+01  0.80017766633E+01  0.12700000000E+01 0. -1.
         25    2    1    2    0    0  0.00000000000E+00  0.00000000000E+00  0.48327334019E+03  0.49917710872E+03  0.12499865809E+03 0.  0.
    9000005    1    3    3    0    0 -0.34519062687E+02 -0.44193827852E+02  0.13150793802E+03  0.14296852056E+03  0.10000000000E+01 0.  0.
    9000005    1    3    3    0    0  0.34519062687E+02  0.44193827852E+02  0.35176540217E+03  0.35620858815E+03  0.10000000000E+01 0.  0.
<mgrwt>
<rscale>  0 0.12499866E+03</rscale>
<asrwt>0</asrwt>
<pdfrwt beam="2">  1        4 0.12233666E-02 0.12499866E+03</pdfrwt>
<pdfrwt beam="1">  1       -4 0.75573121E-01 0.12499866E+03</pdfrwt>
<totfact> 0.55929913E+03</totfact>
</mgrwt>
</event>
<event>
 5    1  0.3331626E-002  0.1249958E+03  0.7818608E-02  0.1235076E+00
          4   -1    0    0  501    0  0.00000000000E+00  0.00000000000E+00  0.41891320126E+01  0.43774109950E+01  0.12700000000E+01 0. -1.
         -4   -1    0    0    0  501 -0.00000000000E+00 -0.00000000000E+00 -0.91172856661E+03  0.91172945114E+03  0.12700000000E+01 0. -1.
         25    2    1    2    0    0  0.00000000000E+00  0.00000000000E+00 -0.90753943460E+03  0.91610686213E+03  0.12499582992E+03 0.  0.
    9000005    1    3    3    0    0  0.19420082707E+02  0.43039379689E+02 -0.15377207213E+03  0.16086136262E+03  0.10000000000E+01 0.  0.
    9000005    1    3    3    0    0 -0.19420082707E+02 -0.43039379689E+02 -0.75376736246E+03  0.75524549951E+03  0.10000000000E+01 0.  0.
<mgrwt>
<rscale>  0 0.12499583E+03</rscale>
<asrwt>0</asrwt>
<pdfrwt beam="1">  1        4 0.65903361E-03 0.12499583E+03</pdfrwt>
<pdfrwt beam="2">  1       -4 0.14028033E+00 0.12499583E+03</pdfrwt>
<totfact> 0.33553726E+03</totfact>
</mgrwt>
</event>
<event>
 5    1  0.3331626E-002  0.1250051E+03  0.7818608E-02  0.1235061E+00
          4   -1    0    0  501    0  0.00000000000E+00  0.00000000000E+00  0.15245886429E+02  0.15298691219E+02  0.12700000000E+01 0. -1.
         -4   -1    0    0    0  501 -0.00000000000E+00 -0.00000000000E+00 -0.25574023701E+03  0.25574339039E+03  0.12700000000E+01 0. -1.
         25    2    1    2    0    0  0.00000000000E+00  0.00000000000E+00 -0.24049435059E+03  0.27104208161E+03  0.12500510925E+03 0.  0.
    9000005    1    3    3    0    0  0.58975238482E+02 -0.83459977928E+01 -0.16126289238E+03  0.17191409160E+03  0.10000000000E+01 0.  0.
    9000005    1    3    3    0    0 -0.58975238482E+02  0.83459977928E+01 -0.79231458210E+02  0.99127990009E+02  0.10000000000E+01 0.  0.
<mgrwt>
<rscale>  0 0.12500511E+03</rscale>
<asrwt>0</asrwt>
<pdfrwt beam="1">  1        4 0.23498256E-02 0.12500511E+03</pdfrwt>
<pdfrwt beam="2">  1       -4 0.39348953E-01 0.12500511E+03</pdfrwt>
<totfact> 0.79371988E+03</totfact>
</mgrwt>
</event>
<event>
 5    1  0.3331626E-002  0.1250001E+03  0.7818608E-02  0.1235069E+00
         -4   -1    0    0    0  501 -0.00000000000E+00  0.00000000000E+00  0.26222830788E+03  0.26223138323E+03  0.12700000000E+01 0.  1.
          4   -1    0    0  501    0  0.00000000000E+00 -0.00000000000E+00 -0.14866148154E+02  0.14920296946E+02  0.12700000000E+01 0.  1.
         25    2    1    2    0    0  0.00000000000E+00  0.00000000000E+00  0.24736215972E+03  0.27715168018E+03  0.12500006305E+03 0.  0.
    9000005    1    3    3    0    0 -0.44067299553E+02 -0.95760351286E+01  0.21960278457E+03  0.22418744463E+03  0.10000000000E+01 0.  0.
    9000005    1    3    3    0    0  0.44067299553E+02  0.95760351286E+01  0.27759375158E+02  0.52964235554E+02  0.10000000000E+01 0.  0.
<mgrwt>
<rscale>  0 0.12500006E+03</rscale>
<asrwt>0</asrwt>
<pdfrwt beam="2">  1        4 0.22915019E-02 0.12500006E+03</pdfrwt>
<pdfrwt beam="1">  1       -4 0.40347213E-01 0.12500006E+03</pdfrwt>
<totfact> 0.78557187E+03</totfact>
</mgrwt>
</event>
<event>
 5    1  0.3331626E-002  0.1250046E+03  0.7818608E-02  0.1235062E+00
          4   -1    0    0  501    0  0.00000000000E+00  0.00000000000E+00  0.65037880804E+02  0.65050279319E+02  0.12700000000E+01 0. -1.
         -4   -1    0    0    0  501 -0.00000000000E+00 -0.00000000000E+00 -0.60040775958E+02  0.60054206161E+02  0.12700000000E+01 0. -1.
         25    2    1    2    0    0  0.00000000000E+00  0.00000000000E+00  0.49971048460E+01  0.12510448548E+03  0.12500464484E+03 0.  0.
    9000005    1    3    3    0    0 -0.22955883090E+02 -0.38238433045E+02  0.46310108250E+02  0.64302227460E+02  0.10000000000E+01 0.  0.
    9000005    1    3    3    0    0  0.22955883090E+02  0.38238433045E+02 -0.41313003404E+02  0.60802258021E+02  0.10000000000E+01 0.  0.
<mgrwt>
<rscale>  0 0.12500464E+03</rscale>
<asrwt>0</asrwt>
<pdfrwt beam="1">  1        4 0.10007815E-01 0.12500464E+03</pdfrwt>
<pdfrwt beam="2">  1       -4 0.92390293E-02 0.12500464E+03</pdfrwt>
<totfact> 0.10449497E+04</totfact>
</mgrwt>
</event>
<event>
 5    1  0.3331626E-002  0.1250003E+03  0.7818608E-02  0.1235069E+00
          4   -1    0    0  501    0  0.00000000000E+00  0.00000000000E+00  0.67141344791E+02  0.67153354945E+02  0.12700000000E+01 0.  1.
         -4   -1    0    0    0  501 -0.00000000000E+00 -0.00000000000E+00 -0.58155634087E+02  0.58169499534E+02  0.12700000000E+01 0.  1.
         25    2    1    2    0    0  0.00000000000E+00  0.00000000000E+00  0.89857107041E+01  0.12532285448E+03  0.12500029943E+03 0.  0.
    9000005    1    3    3    0    0 -0.12324728006E+02  0.79523557288E+01 -0.56410335682E+02  0.58294638294E+02  0.10000000000E+01 0.  0.
    9000005    1    3    3    0    0  0.12324728006E+02 -0.79523557288E+01  0.65396046386E+02  0.67028216185E+02  0.10000000000E+01 0.  0.
<mgrwt>
<rscale>  0 0.12500030E+03</rscale>
<asrwt>0</asrwt>
<pdfrwt beam="1">  1        4 0.10331428E-01 0.12500030E+03</pdfrwt>
<pdfrwt beam="2">  1       -4 0.89490111E-02 0.12500030E+03</pdfrwt>
<totfact> 0.10445783E+04</totfact>
</mgrwt>
</event>
<event>
 5    1  0.3331626E-002  0.1249981E+03  0.7818608E-02  0.1235072E+00
         -4   -1    0    0    0  501 -0.00000000000E+00  0.00000000000E+00  0.29674982832E+01  0.32278392248E+01  0.12700000000E+01 0. -1.
          4   -1    0    0  501    0  0.00000000000E+00 -0.00000000000E+00 -0.12607301803E+04  0.12607308199E+04  0.12700000000E+01 0. -1.
         25    2    1    2    0    0  0.00000000000E+00  0.00000000000E+00 -0.12577626820E+04  0.12639586592E+04  0.12499811149E+03 0.  0.
    9000005    1    3    3    0    0  0.55296208653E+02 -0.19867800400E+02 -0.84403558193E+03  0.84607887561E+03  0.10000000000E+01 0.  0.
    9000005    1    3    3    0    0 -0.55296208653E+02  0.19867800400E+02 -0.41372710007E+03  0.41787978357E+03  0.10000000000E+01 0.  0.
<mgrwt>
<rscale>  0 0.12499811E+03</rscale>
<asrwt>0</asrwt>
<pdfrwt beam="2">  1        4 0.19397815E+00 0.12499811E+03</pdfrwt>
<pdfrwt beam="1">  1       -4 0.47661464E-03 0.12499811E+03</pdfrwt>
<totfact> 0.23096475E+03</totfact>
</mgrwt>
</event>
<event>
 5    1  0.3331626E-002  0.1250013E+03  0.7818608E-02  0.1235067E+00
          4   -1    0    0  501    0  0.00000000000E+00  0.00000000000E+00  0.76893954655E+01  0.77935680291E+01  0.12700000000E+01 0. -1.
         -4   -1    0    0    0  501 -0.00000000000E+00 -0.00000000000E+00 -0.50449216067E+03  0.50449375920E+03  0.12700000000E+01 0. -1.
         25    2    1    2    0    0  0.00000000000E+00  0.00000000000E+00 -0.49680276520E+03  0.51228732723E+03  0.12500127252E+03 0.  0.
    9000005    1    3    3    0    0  0.53168413055E+01  0.58777184827E+02 -0.16418212610E+03  0.17447004553E+03  0.10000000000E+01 0.  0.
    9000005    1    3    3    0    0 -0.53168413055E+01 -0.58777184827E+02 -0.33262063910E+03  0.33781728170E+03  0.10000000000E+01 0.  0.
<mgrwt>
<rscale>  0 0.12500127E+03</rscale>
<asrwt>0</asrwt>
<pdfrwt beam="1">  1        4 0.11911206E-02 0.12500127E+03</pdfrwt>
<pdfrwt beam="2">  1       -4 0.77622289E-01 0.12500127E+03</pdfrwt>
<totfact> 0.54921942E+03</totfact>
</mgrwt>
</event>
<event>
 5    1  0.3331626E-002  0.1250257E+03  0.7818608E-02  0.1235029E+00
         -4   -1    0    0    0  501 -0.00000000000E+00  0.00000000000E+00  0.32672426380E+03  0.32672673208E+03  0.12700000000E+01 0. -1.
          4   -1    0    0  501    0  0.00000000000E+00 -0.00000000000E+00 -0.11924487915E+02  0.11991926953E+02  0.12700000000E+01 0. -1.
         25    2    1    2    0    0  0.00000000000E+00  0.00000000000E+00  0.31479977588E+03  0.33871865903E+03  0.12502572167E+03 0.  0.
    9000005    1    3    3    0    0  0.85456372053E+01 -0.36149787624E+02  0.29358960690E+03  0.29593190490E+03  0.10000000000E+01 0.  0.
    9000005    1    3    3    0    0 -0.85456372053E+01  0.36149787624E+02  0.21210168984E+02  0.42786754128E+02  0.10000000000E+01 0.  0.
<mgrwt>
<rscale>  0 0.12502572E+03</rscale>
<asrwt>0</asrwt>
<pdfrwt beam="2">  1        4 0.18399145E-02 0.12502572E+03</pdfrwt>
<pdfrwt beam="1">  1       -4 0.50270637E-01 0.12502572E+03</pdfrwt>
<totfact> 0.70943328E+03</totfact>
</mgrwt>
</event>
<event>
 5    1  0.3331626E-002  0.1249992E+03  0.7818608E-02  0.1235070E+00
          4   -1    0    0  501    0  0.00000000000E+00  0.00000000000E+00  0.24596005500E+02  0.24628771520E+02  0.12700000000E+01 0. -1.
         -4   -1    0    0    0  501 -0.00000000000E+00 -0.00000000000E+00 -0.15867346749E+03  0.15867854986E+03  0.12700000000E+01 0. -1.
         25    2    1    2    0    0  0.00000000000E+00  0.00000000000E+00 -0.13407746199E+03  0.18330732138E+03  0.12499923303E+03 0.  0.
    9000005    1    3    3    0    0  0.39842819774E+01  0.43948283284E+02 -0.13192682980E+03  0.13911511250E+03  0.10000000000E+01 0.  0.
    9000005    1    3    3    0    0 -0.39842819774E+01 -0.43948283284E+02 -0.21506321929E+01  0.44192208876E+02  0.10000000000E+01 0.  0.
<mgrwt>
<rscale>  0 0.12499923E+03</rscale>
<asrwt>0</asrwt>
<pdfrwt beam="1">  1        4 0.37869123E-02 0.12499923E+03</pdfrwt>
<pdfrwt beam="2">  1       -4 0.24414214E-01 0.12499923E+03</pdfrwt>
<totfact> 0.93026639E+03</totfact>
</mgrwt>
</event>
<event>
 5    1  0.3331626E-002  0.1249994E+03  0.7818608E-02  0.1235070E+00
          4   -1    0    0  501    0  0.00000000000E+00  0.00000000000E+00  0.18804322644E+02  0.18847160266E+02  0.12700000000E+01 0.  1.
         -4   -1    0    0    0  501 -0.00000000000E+00 -0.00000000000E+00 -0.20744842094E+03  0.20745230838E+03  0.12700000000E+01 0.  1.
         25    2    1    2    0    0  0.00000000000E+00  0.00000000000E+00 -0.18864409830E+03  0.22629946864E+03  0.12499941474E+03 0.  0.
    9000005    1    3    3    0    0 -0.58245455478E+02  0.22529908490E+01 -0.13511059576E+03  0.14715122201E+03  0.10000000000E+01 0.  0.
    9000005    1    3    3    0    0  0.58245455478E+02 -0.22529908490E+01 -0.53533502537E+02  0.79148246636E+02  0.10000000000E+01 0.  0.
<mgrwt>
<rscale>  0 0.12499941E+03</rscale>
<asrwt>0</asrwt>
<pdfrwt beam="1">  1        4 0.28965671E-02 0.12499941E+03</pdfrwt>
<pdfrwt beam="2">  1       -4 0.31918734E-01 0.12499941E+03</pdfrwt>
<totfact> 0.85882198E+03</totfact>
</mgrwt>
</event>
<event>
 5    1  0.3331626E-002  0.1249818E+03  0.7818608E-02  0.1235098E+00
          4   -1    0    0  501    0  0.00000000000E+00  0.00000000000E+00  0.23330942936E+02  0.23365483052E+02  0.12700000000E+01 0.  1.
         -4   -1    0    0    0  501 -0.00000000000E+00 -0.00000000000E+00 -0.16721840221E+03  0.16722322488E+03  0.12700000000E+01 0.  1.
         25    2    1    2    0    0  0.00000000000E+00  0.00000000000E+00 -0.14388745928E+03  0.19058870793E+03  0.12498181729E+03 0.  0.
    9000005    1    3    3    0    0  0.14790288335E+02 -0.56935454229E+02 -0.39821740719E+02  0.71043434680E+02  0.10000000000E+01 0.  0.
    9000005    1    3    3    0    0 -0.14790288335E+02  0.56935454229E+02 -0.10406571856E+03  0.11954527325E+03  0.10000000000E+01 0.  0.
<mgrwt>
<rscale>  0 0.12498182E+03</rscale>
<asrwt>0</asrwt>
<pdfrwt beam="1">  1        4 0.35924038E-02 0.12498182E+03</pdfrwt>
<pdfrwt beam="2">  1       -4 0.25728935E-01 0.12498182E+03</pdfrwt>
<totfact> 0.91782357E+03</totfact>
</mgrwt>
</event>
<event>
 4    1  0.3331626E-002  0.1250644E+03  0.7818608E-02  0.1234969E+00
         -4   -1    0    0    0  501 -0.00000000000E+00  0.00000000000E+00  0.77873924258E+02  0.77884279411E+02  0.12700000000E+01 0. -1.
          4   -1    0    0  501    0  0.00000000000E+00 -0.00000000000E+00 -0.50191200849E+02  0.50207265835E+02  0.12700000000E+01 0. -1.
    9000005    1    1    2    0    0  0.16891497836E+02 -0.66470615632E+01  0.75120736547E+02  0.77289269539E+02  0.10000000000E+01 0.  0.
    9000005    1    1    2    0    0 -0.16891497836E+02  0.66470615632E+01 -0.47438013138E+02  0.50802275707E+02  0.10000000000E+01 0.  0.
<mgrwt>
<rscale>  0 0.12506443E+03</rscale>
<asrwt>0</asrwt>
<pdfrwt beam="2">  1        4 0.77237555E-02 0.12506443E+03</pdfrwt>
<pdfrwt beam="1">  1       -4 0.11982636E-01 0.12506443E+03</pdfrwt>
<totfact> 0.10370421E+04</totfact>
</mgrwt>
</event>
<event>
 5    1  0.3331626E-002  0.1250165E+03  0.7818608E-02  0.1235044E+00
          4   -1    0    0  501    0  0.00000000000E+00  0.00000000000E+00  0.24295339220E+02  0.24328510184E+02  0.12700000000E+01 0. -1.
         -4   -1    0    0    0  501 -0.00000000000E+00 -0.00000000000E+00 -0.16067887869E+03  0.16068389763E+03  0.12700000000E+01 0. -1.
         25    2    1    2    0    0  0.00000000000E+00  0.00000000000E+00 -0.13638353947E+03  0.18501240782E+03  0.12501648374E+03 0.  0.
    9000005    1    3    3    0    0  0.34879712335E+02  0.28438988458E+02 -0.40091303977E+01  0.45193401328E+02  0.10000000000E+01 0.  0.
    9000005    1    3    3    0    0 -0.34879712335E+02 -0.28438988458E+02 -0.13237440908E+03  0.13981900649E+03  0.10000000000E+01 0.  0.
<mgrwt>
<rscale>  0 0.12501648E+03</rscale>
<asrwt>0</asrwt>
<pdfrwt beam="1">  1        4 0.37406823E-02 0.12501648E+03</pdfrwt>
<pdfrwt beam="2">  1       -4 0.24722765E-01 0.12501648E+03</pdfrwt>
<totfact> 0.92688211E+03</totfact>
</mgrwt>
</event>
<event>
 5    1  0.3331626E-002  0.1249974E+03  0.7818608E-02  0.1235073E+00
         -4   -1    0    0    0  501 -0.00000000000E+00  0.00000000000E+00  0.83587282805E+02  0.83596930247E+02  0.12700000000E+01 0. -1.
          4   -1    0    0  501    0  0.00000000000E+00 -0.00000000000E+00 -0.46709688981E+02  0.46726950946E+02  0.12700000000E+01 0. -1.
         25    2    1    2    0    0  0.00000000000E+00  0.00000000000E+00  0.36877593824E+02  0.13032388119E+03  0.12499742831E+03 0.  0.
    9000005    1    3    3    0    0  0.39717257287E+02  0.18979384372E+01  0.68701225859E+02  0.79384640399E+02  0.10000000000E+01 0.  0.
    9000005    1    3    3    0    0 -0.39717257287E+02 -0.18979384372E+01 -0.31823632035E+02  0.50939240794E+02  0.10000000000E+01 0.  0.
<mgrwt>
<rscale>  0 0.12499743E+03</rscale>
<asrwt>0</asrwt>
<pdfrwt beam="2">  1        4 0.71881759E-02 0.12499743E+03</pdfrwt>
<pdfrwt beam="1">  1       -4 0.12861652E-01 0.12499743E+03</pdfrwt>
<totfact> 0.10338184E+04</totfact>
</mgrwt>
</event>
<event>
 5    1  0.3331626E-002  0.1249953E+03  0.7818608E-02  0.1235077E+00
         -4   -1    0    0    0  501 -0.00000000000E+00  0.00000000000E+00  0.34227489873E+03  0.34227725487E+03  0.12700000000E+01 0.  1.
          4   -1    0    0  501    0  0.00000000000E+00 -0.00000000000E+00 -0.11374023260E+02  0.11444706424E+02  0.12700000000E+01 0.  1.
         25    2    1    2    0    0  0.00000000000E+00  0.00000000000E+00  0.33090087547E+03  0.35372196130E+03  0.12499534597E+03 0.  0.
    9000005    1    3    3    0    0 -0.56890098706E+02  0.69628570906E+01  0.23591359056E+03  0.24277806104E+03  0.10000000000E+01 0.  0.
    9000005    1    3    3    0    0  0.56890098706E+02 -0.69628570906E+01  0.94987284914E+02  0.11094390026E+03  0.10000000000E+01 0.  0.
<mgrwt>
<rscale>  0 0.12499535E+03</rscale>
<asrwt>0</asrwt>
<pdfrwt beam="2">  1        4 0.17554678E-02 0.12499535E+03</pdfrwt>
<pdfrwt beam="1">  1       -4 0.52663304E-01 0.12499535E+03</pdfrwt>
<totfact> 0.69324156E+03</totfact>
</mgrwt>
</event>
<event>
 5    1  0.3331626E-002  0.1249958E+03  0.7818608E-02  0.1235076E+00
          4   -1    0    0  501    0  0.00000000000E+00  0.00000000000E+00  0.21976456237E+03  0.21976823195E+03  0.12700000000E+01 0.  1.
         -4   -1    0    0    0  501 -0.00000000000E+00 -0.00000000000E+00 -0.17746994050E+02  0.17792377520E+02  0.12700000000E+01 0.  1.
         25    2    1    2    0    0  0.00000000000E+00  0.00000000000E+00  0.20201756832E+03  0.23756060947E+03  0.12499578097E+03 0.  0.
    9000005    1    3    3    0    0 -0.55662493487E+02  0.18418883519E+00  0.15498702671E+03  0.16468249924E+03  0.10000000000E+01 0.  0.
    9000005    1    3    3    0    0  0.55662493487E+02 -0.18418883519E+00  0.47030541610E+02  0.72878110231E+02  0.10000000000E+01 0.  0.
<mgrwt>
<rscale>  0 0.12499578E+03</rscale>
<asrwt>0</asrwt>
<pdfrwt beam="1">  1        4 0.33813706E-01 0.12499578E+03</pdfrwt>
<pdfrwt beam="2">  1       -4 0.27340801E-02 0.12499578E+03</pdfrwt>
<totfact> 0.84169935E+03</totfact>
</mgrwt>
</event>
<event>
 5    1  0.3331626E-002  0.1250009E+03  0.7818608E-02  0.1235068E+00
         -4   -1    0    0    0  501 -0.00000000000E+00  0.00000000000E+00  0.11531035455E+03  0.11531734807E+03  0.12700000000E+01 0. -1.
          4   -1    0    0  501    0  0.00000000000E+00 -0.00000000000E+00 -0.33856555320E+02  0.33880366558E+02  0.12700000000E+01 0. -1.
         25    2    1    2    0    0  0.00000000000E+00  0.00000000000E+00  0.81453799228E+02  0.14919771463E+03  0.12500094656E+03 0.  0.
    9000005    1    3    3    0    0  0.58771109251E+02  0.20747505217E+02  0.46171332038E+02  0.77571219904E+02  0.10000000000E+01 0.  0.
    9000005    1    3    3    0    0 -0.58771109251E+02 -0.20747505217E+02  0.35282467191E+02  0.71626494724E+02  0.10000000000E+01 0.  0.
<mgrwt>
<rscale>  0 0.12500095E+03</rscale>
<asrwt>0</asrwt>
<pdfrwt beam="2">  1        4 0.52110705E-02 0.12500095E+03</pdfrwt>
<pdfrwt beam="1">  1       -4 0.17742424E-01 0.12500095E+03</pdfrwt>
<totfact> 0.99461743E+03</totfact>
</mgrwt>
</event>
<event>
 5    1  0.3331626E-002  0.1250003E+03  0.7818608E-02  0.1235069E+00
          4   -1    0    0  501    0  0.00000000000E+00  0.00000000000E+00  0.99524024856E+03  0.99524105886E+03  0.12700000000E+01 0. -1.
         -4   -1    0    0    0  501 -0.00000000000E+00 -0.00000000000E+00 -0.38213827109E+01  0.40268928249E+01  0.12700000000E+01 0. -1.
         25    2    1    2    0    0  0.00000000000E+00  0.00000000000E+00  0.99141886584E+03  0.99926795169E+03  0.12500028686E+03 0.  0.
    9000005    1    3    3    0    0 -0.36269469623E+02 -0.50645813126E+02  0.53551593479E+03  0.53912780417E+03  0.10000000000E+01 0.  0.
    9000005    1    3    3    0    0  0.36269469623E+02  0.50645813126E+02  0.45590293106E+03  0.46014014752E+03  0.10000000000E+01 0.  0.
<mgrwt>
<rscale>  0 0.12500029E+03</rscale>
<asrwt>0</asrwt>
<pdfrwt beam="1">  1        4 0.15312982E+00 0.12500029E+03</pdfrwt>
<pdfrwt beam="2">  1       -4 0.60377559E-03 0.12500029E+03</pdfrwt>
<totfact> 0.30628460E+03</totfact>
</mgrwt>
</event>
<event>
 5    1  0.3331626E-002  0.1249963E+03  0.7818608E-02  0.1235075E+00
          4   -1    0    0  501    0  0.00000000000E+00  0.00000000000E+00  0.51801989078E+01  0.53336067276E+01  0.12700000000E+01 0. -1.
         -4   -1    0    0    0  501 -0.00000000000E+00 -0.00000000000E+00 -0.74287252815E+03  0.74287361373E+03  0.12700000000E+01 0. -1.
         25    2    1    2    0    0  0.00000000000E+00  0.00000000000E+00 -0.73769232924E+03  0.74820722046E+03  0.12499628845E+03 0.  0.
    9000005    1    3    3    0    0 -0.12264611611E+02  0.61274539314E+02 -0.36985073883E+03  0.37509406670E+03  0.10000000000E+01 0.  0.
    9000005    1    3    3    0    0  0.12264611611E+02 -0.61274539314E+02 -0.36784159041E+03  0.37311315375E+03  0.10000000000E+01 0.  0.
<mgrwt>
<rscale>  0 0.12499629E+03</rscale>
<asrwt>0</asrwt>
<pdfrwt beam="1">  1        4 0.80883837E-03 0.12499629E+03</pdfrwt>
<pdfrwt beam="2">  1       -4 0.11429988E+00 0.12499629E+03</pdfrwt>
<totfact> 0.40663355E+03</totfact>
</mgrwt>
</event>
<event>
 5    1  0.3331626E-002  0.1250135E+03  0.7818608E-02  0.1235048E+00
          4   -1    0    0  501    0  0.00000000000E+00  0.00000000000E+00  0.28274613886E+02  0.28303121566E+02  0.12700000000E+01 0.  1.
         -4   -1    0    0    0  501 -0.00000000000E+00 -0.00000000000E+00 -0.13808267471E+03  0.13808851493E+03  0.12700000000E+01 0.  1.
         25    2    1    2    0    0  0.00000000000E+00  0.00000000000E+00 -0.10980806083E+03  0.16639163650E+03  0.12501346517E+03 0.  0.
    9000005    1    3    3    0    0  0.61132601143E+02 -0.12975059266E+02 -0.53921860185E+02  0.82547647400E+02  0.10000000000E+01 0.  0.
    9000005    1    3    3    0    0 -0.61132601143E+02  0.12975059266E+02 -0.55886200641E+02  0.83843989096E+02  0.10000000000E+01 0.  0.
<mgrwt>
<rscale>  0 0.12501347E+03</rscale>
<asrwt>0</asrwt>
<pdfrwt beam="1">  1        4 0.43525828E-02 0.12501347E+03</pdfrwt>
<pdfrwt beam="2">  1       -4 0.21246130E-01 0.12501347E+03</pdfrwt>
<totfact> 0.96095419E+03</totfact>
</mgrwt>
</event>
<event>
 5    1  0.3331626E-002  0.1250010E+03  0.7818608E-02  0.1235068E+00
         -4   -1    0    0    0  501 -0.00000000000E+00  0.00000000000E+00  0.84089399861E+01  0.85043031278E+01  0.12700000000E+01 0.  1.
          4   -1    0    0  501    0  0.00000000000E+00 -0.00000000000E+00 -0.46182740462E+03  0.46182915084E+03  0.12700000000E+01 0.  1.
         25    2    1    2    0    0  0.00000000000E+00  0.00000000000E+00 -0.45341846464E+03  0.47033345396E+03  0.12500101537E+03 0.  0.
    9000005    1    3    3    0    0  0.34811071044E+02  0.48605359632E+02 -0.15825179566E+03  0.16917128149E+03  0.10000000000E+01 0.  0.
    9000005    1    3    3    0    0 -0.34811071044E+02 -0.48605359632E+02 -0.29516666898E+03  0.30116217247E+03  0.10000000000E+01 0.  0.
<mgrwt>
<rscale>  0 0.12500102E+03</rscale>
<asrwt>0</asrwt>
<pdfrwt beam="2">  1        4 0.71057820E-01 0.12500102E+03</pdfrwt>
<pdfrwt beam="1">  1       -4 0.13011534E-02 0.12500102E+03</pdfrwt>
<totfact> 0.58240615E+03</totfact>
</mgrwt>
</event>
<event>
 5    1  0.3331626E-002  0.1250004E+03  0.7818608E-02  0.1235069E+00
          4   -1    0    0  501    0  0.00000000000E+00  0.00000000000E+00  0.26322626743E+02  0.26353246074E+02  0.12700000000E+01 0. -1.
         -4   -1    0    0    0  501 -0.00000000000E+00 -0.00000000000E+00 -0.14828024509E+03  0.14828568368E+03  0.12700000000E+01 0. -1.
         25    2    1    2    0    0  0.00000000000E+00  0.00000000000E+00 -0.12195761834E+03  0.17463892975E+03  0.12500038045E+03 0.  0.
    9000005    1    3    3    0    0  0.32872693099E+02  0.41331622542E+02 -0.14298767154E+02  0.54720852658E+02  0.10000000000E+01 0.  0.
    9000005    1    3    3    0    0 -0.32872693099E+02 -0.41331622542E+02 -0.10765885119E+03  0.11991807709E+03  0.10000000000E+01 0.  0.
<mgrwt>
<rscale>  0 0.12500038E+03</rscale>
<asrwt>0</asrwt>
<pdfrwt beam="1">  1        4 0.40524086E-02 0.12500038E+03</pdfrwt>
<pdfrwt beam="2">  1       -4 0.22815119E-01 0.12500038E+03</pdfrwt>
<totfact> 0.94590204E+03</totfact>
</mgrwt>
</event>
<event>
 5    1  0.3331626E-002  0.1250000E+03  0.7818608E-02  0.1235069E+00
         -4   -1    0    0    0  501 -0.00000000000E+00  0.00000000000E+00  0.24883049369E+03  0.24883373463E+03  0.12700000000E+01 0.  1.
          4   -1    0    0  501    0  0.00000000000E+00 -0.00000000000E+00 -0.15669395941E+02  0.15720778262E+02  0.12700000000E+01 0.  1.
         25    2    1    2    0    0  0.00000000000E+00  0.00000000000E+00  0.23316109774E+03  0.26455451289E+03  0.12499997115E+03 0.  0.
    9000005    1    3    3    0    0  0.59323030030E+02 -0.12390304029E+02  0.14885233262E+03  0.16071950240E+03  0.10000000000E+01 0.  0.
    9000005    1    3    3    0    0 -0.59323030030E+02  0.12390304029E+02  0.84308765129E+02  0.10383501049E+03  0.10000000000E+01 0.  0.
<mgrwt>
<rscale>  0 0.12499997E+03</rscale>
<asrwt>0</asrwt>
<pdfrwt beam="2">  1        4 0.24148781E-02 0.12499997E+03</pdfrwt>
<pdfrwt beam="1">  1       -4 0.38285816E-01 0.12499997E+03</pdfrwt>
<totfact> 0.80271169E+03</totfact>
</mgrwt>
</event>
<event>
 5    1  0.3331626E-002  0.1250010E+03  0.7818608E-02  0.1235068E+00
          4   -1    0    0  501    0  0.00000000000E+00  0.00000000000E+00  0.17203832525E+03  0.17204301280E+03  0.12700000000E+01 0.  1.
         -4   -1    0    0    0  501 -0.00000000000E+00 -0.00000000000E+00 -0.22683315214E+02  0.22718839960E+02  0.12700000000E+01 0.  1.
         25    2    1    2    0    0  0.00000000000E+00  0.00000000000E+00  0.14935501003E+03  0.19476185276E+03  0.12500104107E+03 0.  0.
    9000005    1    3    3    0    0 -0.58201493297E+02 -0.22441323949E+02  0.68787991776E+02  0.92864496203E+02  0.10000000000E+01 0.  0.
    9000005    1    3    3    0    0  0.58201493297E+02  0.22441323949E+02  0.80567018255E+02  0.10189735656E+03  0.10000000000E+01 0.  0.
<mgrwt>
<rscale>  0 0.12500104E+03</rscale>
<asrwt>0</asrwt>
<pdfrwt beam="1">  1        4 0.26470528E-01 0.12500104E+03</pdfrwt>
<pdfrwt beam="2">  1       -4 0.34928341E-02 0.12500104E+03</pdfrwt>
<totfact> 0.91023184E+03</totfact>
</mgrwt>
</event>
<event>
 5    1  0.3331626E-002  0.1249970E+03  0.7818608E-02  0.1235074E+00
         -4   -1    0    0    0  501 -0.00000000000E+00  0.00000000000E+00  0.14471881882E+02  0.14527500308E+02  0.12700000000E+01 0. -1.
          4   -1    0    0  501    0  0.00000000000E+00 -0.00000000000E+00 -0.26933245545E+03  0.26933544969E+03  0.12700000000E+01 0. -1.
         25    2    1    2    0    0  0.00000000000E+00  0.00000000000E+00 -0.25486057357E+03  0.28386295000E+03  0.12499704965E+03 0.  0.
    9000005    1    3    3    0    0  0.47052857179E+02 -0.40410399988E+02 -0.14473936249E+03  0.15747207641E+03  0.10000000000E+01 0.  0.
    9000005    1    3    3    0    0 -0.47052857179E+02  0.40410399988E+02 -0.11012121108E+03  0.12639087359E+03  0.10000000000E+01 0.  0.
<mgrwt>
<rscale>  0 0.12499705E+03</rscale>
<asrwt>0</asrwt>
<pdfrwt beam="2">  1        4 0.41440267E-01 0.12499705E+03</pdfrwt>
<pdfrwt beam="1">  1       -4 0.22309522E-02 0.12499705E+03</pdfrwt>
<totfact> 0.77673773E+03</totfact>
</mgrwt>
</event>
<event>
 5    1  0.3331626E-002  0.1250002E+03  0.7818608E-02  0.1235069E+00
         -4   -1    0    0    0  501 -0.00000000000E+00  0.00000000000E+00  0.10206822083E+03  0.10207612162E+03  0.12700000000E+01 0. -1.
          4   -1    0    0  501    0  0.00000000000E+00 -0.00000000000E+00 -0.38251194931E+02  0.38272272126E+02  0.12700000000E+01 0. -1.
         25    2    1    2    0    0  0.00000000000E+00  0.00000000000E+00  0.63817025902E+02  0.14034839374E+03  0.12500023532E+03 0.  0.
    9000005    1    3    3    0    0 -0.36130250169E+02  0.12828794259E+01  0.89139983731E+02  0.96197595898E+02  0.10000000000E+01 0.  0.
    9000005    1    3    3    0    0  0.36130250169E+02 -0.12828794259E+01 -0.25322957830E+02  0.44150797843E+02  0.10000000000E+01 0.  0.
<mgrwt>
<rscale>  0 0.12500024E+03</rscale>
<asrwt>0</asrwt>
<pdfrwt beam="2">  1        4 0.58870283E-02 0.12500024E+03</pdfrwt>
<pdfrwt beam="1">  1       -4 0.15705032E-01 0.12500024E+03</pdfrwt>
<totfact> 0.10126317E+04</totfact>
</mgrwt>
</event>
<event>
 5    1  0.3331626E-002  0.1250009E+03  0.7818608E-02  0.1235068E+00
         -4   -1    0    0    0  501 -0.00000000000E+00  0.00000000000E+00  0.34666744479E+02  0.34689999608E+02  0.12700000000E+01 0.  1.
          4   -1    0    0  501    0  0.00000000000E+00 -0.00000000000E+00 -0.11261695565E+03  0.11262411643E+03  0.12700000000E+01 0.  1.
         25    2    1    2    0    0  0.00000000000E+00  0.00000000000E+00 -0.77950211176E+02  0.14731411603E+03  0.12500085344E+03 0.  0.
    9000005    1    3    3    0    0  0.34545021358E+02 -0.46418029591E+02 -0.66796592501E+02  0.88378598889E+02  0.10000000000E+01 0.  0.
    9000005    1    3    3    0    0 -0.34545021358E+02  0.46418029591E+02 -0.11153618674E+02  0.58935517146E+02  0.10000000000E+01 0.  0.
<mgrwt>
<rscale>  0 0.12500085E+03</rscale>
<asrwt>0</asrwt>
<pdfrwt beam="2">  1        4 0.17328025E-01 0.12500085E+03</pdfrwt>
<pdfrwt beam="1">  1       -4 0.53356850E-02 0.12500085E+03</pdfrwt>
<totfact> 0.99839890E+03</totfact>
</mgrwt>
</event>
<event>
 5    1  0.3331626E-002  0.1250056E+03  0.7818608E-02  0.1235061E+00
         -4   -1    0    0    0  501 -0.00000000000E+00  0.00000000000E+00  0.20445559693E+02  0.20484965491E+02  0.12700000000E+01 0.  1.
          4   -1    0    0  501    0  0.00000000000E+00 -0.00000000000E+00 -0.19084769357E+03  0.19085191915E+03  0.12700000000E+01 0.  1.
         25    2    1    2    0    0  0.00000000000E+00  0.00000000000E+00 -0.17040213388E+03  0.21133688464E+03  0.12500556619E+03 0.  0.
    9000005    1    3    3    0    0 -0.15595330010E+02  0.46330037011E+02 -0.15102484977E+03  0.15874253335E+03  0.10000000000E+01 0.  0.
    9000005    1    3    3    0    0  0.15595330010E+02 -0.46330037011E+02 -0.19377284111E+02  0.52594351285E+02  0.10000000000E+01 0.  0.
<mgrwt>
<rscale>  0 0.12500557E+03</rscale>
<asrwt>0</asrwt>
<pdfrwt beam="2">  1        4 0.29364539E-01 0.12500557E+03</pdfrwt>
<pdfrwt beam="1">  1       -4 0.31488271E-02 0.12500557E+03</pdfrwt>
<totfact> 0.88247034E+03</totfact>
</mgrwt>
</event>
<event>
 5    1  0.3331626E-002  0.1250057E+03  0.7818608E-02  0.1235060E+00
         -4   -1    0    0    0  501 -0.00000000000E+00  0.00000000000E+00  0.14007861401E+03  0.14008437102E+03  0.12700000000E+01 0.  1.
          4   -1    0    0  501    0  0.00000000000E+00 -0.00000000000E+00 -0.27867858562E+02  0.27896781908E+02  0.12700000000E+01 0.  1.
         25    2    1    2    0    0  0.00000000000E+00  0.00000000000E+00  0.11221075545E+03  0.16798115293E+03  0.12500565627E+03 0.  0.
    9000005    1    3    3    0    0 -0.29364045131E+02  0.16188340288E+02  0.12697405778E+03  0.13133057853E+03  0.10000000000E+01 0.  0.
    9000005    1    3    3    0    0  0.29364045131E+02 -0.16188340288E+02 -0.14763302332E+02  0.36650574395E+02  0.10000000000E+01 0.  0.
<mgrwt>
<rscale>  0 0.12500566E+03</rscale>
<asrwt>0</asrwt>
<pdfrwt beam="2">  1        4 0.42900306E-02 0.12500566E+03</pdfrwt>
<pdfrwt beam="1">  1       -4 0.21553224E-01 0.12500566E+03</pdfrwt>
<totfact> 0.95813598E+03</totfact>
</mgrwt>
</event>
<event>
 5    1  0.3331626E-002  0.1249984E+03  0.7818608E-02  0.1235072E+00
          4   -1    0    0  501    0  0.00000000000E+00  0.00000000000E+00  0.55361470757E+02  0.55376035831E+02  0.12700000000E+01 0. -1.
         -4   -1    0    0    0  501 -0.00000000000E+00 -0.00000000000E+00 -0.70527668204E+02  0.70539101797E+02  0.12700000000E+01 0. -1.
         25    2    1    2    0    0  0.00000000000E+00  0.00000000000E+00 -0.15166197447E+02  0.12591513763E+03  0.12499843335E+03 0.  0.
    9000005    1    3    3    0    0 -0.31302451505E+02  0.54033033442E+02 -0.51697172498E+01  0.62666882399E+02  0.10000000000E+01 0.  0.
    9000005    1    3    3    0    0  0.31302451505E+02 -0.54033033442E+02 -0.99964801971E+01  0.63248255229E+02  0.10000000000E+01 0.  0.
<mgrwt>
<rscale>  0 0.12499843E+03</rscale>
<asrwt>0</asrwt>
<pdfrwt beam="1">  1        4 0.85191493E-02 0.12499843E+03</pdfrwt>
<pdfrwt beam="2">  1       -4 0.10852410E-01 0.12499843E+03</pdfrwt>
<totfact> 0.10433186E+04</totfact>
</mgrwt>
</event>
<event>
 5    1  0.3331626E-002  0.1250017E+03  0.7818608E-02  0.1235067E+00
         -4   -1    0    0    0  501 -0.00000000000E+00  0.00000000000E+00  0.71162490039E+02  0.71173821652E+02  0.12700000000E+01 0. -1.
          4   -1    0    0  501    0  0.00000000000E+00 -0.00000000000E+00 -0.54870402446E+02  0.54885097837E+02  0.12700000000E+01 0. -1.
         25    2    1    2    0    0  0.00000000000E+00  0.00000000000E+00  0.16292087593E+02  0.12605891949E+03  0.12500167625E+03 0.  0.
    9000005    1    3    3    0    0 -0.28032678818E+02  0.26916363197E+02 -0.41206949856E+02  0.56650987687E+02  0.10000000000E+01 0.  0.
    9000005    1    3    3    0    0  0.28032678818E+02 -0.26916363197E+02  0.57499037449E+02  0.69407931802E+02  0.10000000000E+01 0.  0.
<mgrwt>
<rscale>  0 0.12500168E+03</rscale>
<asrwt>0</asrwt>
<pdfrwt beam="2">  1        4 0.84436024E-02 0.12500168E+03</pdfrwt>
<pdfrwt beam="1">  1       -4 0.10950078E-01 0.12500168E+03</pdfrwt>
<totfact> 0.10429272E+04</totfact>
</mgrwt>
</event>
<event>
 5    1  0.3331626E-002  0.1249976E+03  0.7818608E-02  0.1235073E+00
         -4   -1    0    0    0  501 -0.00000000000E+00  0.00000000000E+00  0.89104644570E+02  0.89113694705E+02  0.12700000000E+01 0.  1.
          4   -1    0    0  501    0  0.00000000000E+00 -0.00000000000E+00 -0.43816722365E+02  0.43835123575E+02  0.12700000000E+01 0.  1.
         25    2    1    2    0    0  0.00000000000E+00  0.00000000000E+00  0.45287922205E+02  0.13294881828E+03  0.12499756951E+03 0.  0.
    9000005    1    3    3    0    0  0.31159489532E+02  0.53716353397E+02  0.30069284359E+02  0.69003784476E+02  0.10000000000E+01 0.  0.
    9000005    1    3    3    0    0 -0.31159489532E+02 -0.53716353397E+02  0.15218637846E+02  0.63945033803E+02  0.10000000000E+01 0.  0.
<mgrwt>
<rscale>  0 0.12499757E+03</rscale>
<asrwt>0</asrwt>
<pdfrwt beam="2">  1        4 0.67431459E-02 0.12499757E+03</pdfrwt>
<pdfrwt beam="1">  1       -4 0.13710518E-01 0.12499757E+03</pdfrwt>
<totfact> 0.10282052E+04</totfact>
</mgrwt>
</event>
<event>
 5    1  0.3331626E-002  0.1249983E+03  0.7818608E-02  0.1235072E+00
         -4   -1    0    0    0  501 -0.00000000000E+00  0.00000000000E+00  0.23142255062E+03  0.23142603534E+03  0.12700000000E+01 0. -1.
          4   -1    0    0  501    0  0.00000000000E+00 -0.00000000000E+00 -0.16851331989E+02  0.16899120977E+02  0.12700000000E+01 0. -1.
         25    2    1    2    0    0  0.00000000000E+00  0.00000000000E+00  0.21457121863E+03  0.24832515632E+03  0.12499830158E+03 0.  0.
    9000005    1    3    3    0    0 -0.47226660888E+00  0.60646593400E+02  0.13721134808E+03  0.15002061981E+03  0.10000000000E+01 0.  0.
    9000005    1    3    3    0    0  0.47226660888E+00 -0.60646593400E+02  0.77359870547E+02  0.98304536507E+02  0.10000000000E+01 0.  0.
<mgrwt>
<rscale>  0 0.12499830E+03</rscale>
<asrwt>0</asrwt>
<pdfrwt beam="2">  1        4 0.25964568E-02 0.12499830E+03</pdfrwt>
<pdfrwt beam="1">  1       -4 0.35607413E-01 0.12499830E+03</pdfrwt>
<totfact> 0.82576023E+03</totfact>
</mgrwt>
</event>
<event>
 5    1  0.3331626E-002  0.1249976E+03  0.7818608E-02  0.1235073E+00
         -4   -1    0    0    0  501 -0.00000000000E+00  0.00000000000E+00  0.51197236576E+02  0.51212985981E+02  0.12700000000E+01 0.  1.
          4   -1    0    0  501    0  0.00000000000E+00 -0.00000000000E+00 -0.76262343109E+02  0.76272917058E+02  0.12700000000E+01 0.  1.
         25    2    1    2    0    0  0.00000000000E+00  0.00000000000E+00 -0.25065106533E+02  0.12748590304E+03  0.12499758361E+03 0.  0.
    9000005    1    3    3    0    0 -0.21902169262E+02  0.58526702330E+02 -0.12673407634E+02  0.63770645010E+02  0.10000000000E+01 0.  0.
    9000005    1    3    3    0    0  0.21902169262E+02 -0.58526702330E+02 -0.12391698899E+02  0.63715258028E+02  0.10000000000E+01 0.  0.
<mgrwt>
<rscale>  0 0.12499758E+03</rscale>
<asrwt>0</asrwt>
<pdfrwt beam="2">  1        4 0.11734693E-01 0.12499758E+03</pdfrwt>
<pdfrwt beam="1">  1       -4 0.78785228E-02 0.12499758E+03</pdfrwt>
<totfact> 0.10399173E+04</totfact>
</mgrwt>
</event>
<event>
 5    1  0.3331626E-002  0.1250005E+03  0.7818608E-02  0.1235069E+00
          4   -1    0    0  501    0  0.00000000000E+00  0.00000000000E+00  0.10452571471E+02  0.10529442072E+02  0.12700000000E+01 0. -1.
         -4   -1    0    0    0  501 -0.00000000000E+00 -0.00000000000E+00 -0.37226751182E+03  0.37226967813E+03  0.12700000000E+01 0. -1.
         25    2    1    2    0    0  0.00000000000E+00  0.00000000000E+00 -0.36181494035E+03  0.38279912020E+03  0.12500046148E+03 0.  0.
    9000005    1    3    3    0    0 -0.58508763083E+02 -0.15740551346E+02 -0.22777677152E+03  0.23569959262E+03  0.10000000000E+01 0.  0.
    9000005    1    3    3    0    0  0.58508763083E+02  0.15740551346E+02 -0.13403816883E+03  0.14709952759E+03  0.10000000000E+01 0.  0.
<mgrwt>
<rscale>  0 0.12500046E+03</rscale>
<asrwt>0</asrwt>
<pdfrwt beam="1">  1        4 0.16141680E-02 0.12500046E+03</pdfrwt>
<pdfrwt beam="2">  1       -4 0.57277994E-01 0.12500046E+03</pdfrwt>
<totfact> 0.66260158E+03</totfact>
</mgrwt>
</event>
<event>
 5    1  0.3331626E-002  0.1250049E+03  0.7818608E-02  0.1235062E+00
          4   -1    0    0  501    0  0.00000000000E+00  0.00000000000E+00  0.25356059126E+03  0.25356377175E+03  0.12700000000E+01 0. -1.
         -4   -1    0    0    0  501 -0.00000000000E+00 -0.00000000000E+00 -0.15377351330E+02  0.15429706217E+02  0.12700000000E+01 0. -1.
         25    2    1    2    0    0  0.00000000000E+00  0.00000000000E+00  0.23818323993E+03  0.26899347796E+03  0.12500494151E+03 0.  0.
    9000005    1    3    3    0    0 -0.20916442462E+02 -0.36431489846E+02  0.19527373435E+02  0.46336479483E+02  0.10000000000E+01 0.  0.
    9000005    1    3    3    0    0  0.20916442462E+02  0.36431489846E+02  0.21865586650E+03  0.22265699848E+03  0.10000000000E+01 0.  0.
<mgrwt>
<rscale>  0 0.12500494E+03</rscale>
<asrwt>0</asrwt>
<pdfrwt beam="1">  1        4 0.39013592E-01 0.12500494E+03</pdfrwt>
<pdfrwt beam="2">  1       -4 0.23700184E-02 0.12500494E+03</pdfrwt>
<totfact> 0.79651533E+03</totfact>
</mgrwt>
</event>
<event>
 5    1  0.3331626E-002  0.1250018E+03  0.7818608E-02  0.1235067E+00
         -4   -1    0    0    0  501 -0.00000000000E+00  0.00000000000E+00  0.28888865718E+03  0.28889144873E+03  0.12700000000E+01 0. -1.
          4   -1    0    0  501    0  0.00000000000E+00 -0.00000000000E+00 -0.13489341673E+02  0.13548994013E+02  0.12700000000E+01 0. -1.
         25    2    1    2    0    0  0.00000000000E+00  0.00000000000E+00  0.27539931551E+03  0.30244044274E+03  0.12500175368E+03 0.  0.
    9000005    1    3    3    0    0  0.61395290303E+02 -0.11280760049E+02  0.14484530275E+03  0.15772697597E+03  0.10000000000E+01 0.  0.
    9000005    1    3    3    0    0 -0.61395290303E+02  0.11280760049E+02  0.13055401276E+03  0.14471346678E+03  0.10000000000E+01 0.  0.
<mgrwt>
<rscale>  0 0.12500175E+03</rscale>
<asrwt>0</asrwt>
<pdfrwt beam="2">  1        4 0.20800869E-02 0.12500175E+03</pdfrwt>
<pdfrwt beam="1">  1       -4 0.44449207E-01 0.12500175E+03</pdfrwt>
<totfact> 0.75290802E+03</totfact>
</mgrwt>
</event>
<event>
 5    1  0.3331626E-002  0.1249979E+03  0.7818608E-02  0.1235072E+00
          4   -1    0    0  501    0  0.00000000000E+00  0.00000000000E+00  0.11145321817E+02  0.11217446162E+02  0.12700000000E+01 0.  1.
         -4   -1    0    0    0  501 -0.00000000000E+00 -0.00000000000E+00 -0.34926825483E+03  0.34927056379E+03  0.12700000000E+01 0.  1.
         25    2    1    2    0    0  0.00000000000E+00  0.00000000000E+00 -0.33812293302E+03  0.36048800996E+03  0.12499794995E+03 0.  0.
    9000005    1    3    3    0    0  0.14492922535E+02 -0.41131010249E+02 -0.29814260266E+03  0.30131680393E+03  0.10000000000E+01 0.  0.
    9000005    1    3    3    0    0 -0.14492922535E+02  0.41131010249E+02 -0.39980330353E+02  0.59171206028E+02  0.10000000000E+01 0.  0.
<mgrwt>
<rscale>  0 0.12499795E+03</rscale>
<asrwt>0</asrwt>
<pdfrwt beam="1">  1        4 0.17203908E-02 0.12499795E+03</pdfrwt>
<pdfrwt beam="2">  1       -4 0.53739295E-01 0.12499795E+03</pdfrwt>
<totfact> 0.68589065E+03</totfact>
</mgrwt>
</event>
<event>
 5    1  0.3331626E-002  0.1249985E+03  0.7818608E-02  0.1235072E+00
         -4   -1    0    0    0  501 -0.00000000000E+00  0.00000000000E+00  0.32638716762E+02  0.32663415802E+02  0.12700000000E+01 0. -1.
          4   -1    0    0  501    0  0.00000000000E+00 -0.00000000000E+00 -0.11960528640E+03  0.11961202881E+03  0.12700000000E+01 0. -1.
         25    2    1    2    0    0  0.00000000000E+00  0.00000000000E+00 -0.86966569639E+02  0.15227544461E+03  0.12499850717E+03 0.  0.
    9000005    1    3    3    0    0 -0.14042850502E+02 -0.20374947842E+02 -0.11338837780E+03  0.11606146807E+03  0.10000000000E+01 0.  0.
    9000005    1    3    3    0    0  0.14042850502E+02  0.20374947842E+02  0.26421808165E+02  0.36213976536E+02  0.10000000000E+01 0.  0.
<mgrwt>
<rscale>  0 0.12499851E+03</rscale>
<asrwt>0</asrwt>
<pdfrwt beam="2">  1        4 0.18403232E-01 0.12499851E+03</pdfrwt>
<pdfrwt beam="1">  1       -4 0.50237597E-02 0.12499851E+03</pdfrwt>
<totfact> 0.98855362E+03</totfact>
</mgrwt>
</event>
<event>
 5    1  0.3331626E-002  0.1250032E+03  0.7818608E-02  0.1235064E+00
         -4   -1    0    0    0  501 -0.00000000000E+00  0.00000000000E+00  0.19773983438E+02  0.19814724853E+02  0.12700000000E+01 0. -1.
          4   -1    0    0  501    0  0.00000000000E+00 -0.00000000000E+00 -0.19730903081E+03  0.19731311801E+03  0.12700000000E+01 0. -1.
         25    2    1    2    0    0  0.00000000000E+00  0.00000000000E+00 -0.17753504737E+03  0.21712784287E+03  0.12500322836E+03 0.  0.
    9000005    1    3    3    0    0 -0.44259624777E+02 -0.37705654800E+02 -0.12855990090E+03  0.14110024418E+03  0.10000000000E+01 0.  0.
    9000005    1    3    3    0    0  0.44259624777E+02  0.37705654800E+02 -0.48975146477E+02  0.76027598685E+02  0.10000000000E+01 0.  0.
<mgrwt>
<rscale>  0 0.12500323E+03</rscale>
<asrwt>0</asrwt>
<pdfrwt beam="2">  1        4 0.30358683E-01 0.12500323E+03</pdfrwt>
<pdfrwt beam="1">  1       -4 0.30455998E-02 0.12500323E+03</pdfrwt>
<totfact> 0.87318583E+03</totfact>
</mgrwt>
</event>
<event>
 5    1  0.3331626E-002  0.1249973E+03  0.7818608E-02  0.1235073E+00
          4   -1    0    0  501    0  0.00000000000E+00  0.00000000000E+00  0.92292115713E+01  0.93161819555E+01  0.12700000000E+01 0.  1.
         -4   -1    0    0    0  501 -0.00000000000E+00 -0.00000000000E+00 -0.42115769707E+03  0.42115961190E+03  0.12700000000E+01 0.  1.
         25    2    1    2    0    0  0.00000000000E+00  0.00000000000E+00 -0.41192848550E+03  0.43047579386E+03  0.12499732771E+03 0.  0.
    9000005    1    3    3    0    0 -0.39852210154E+02  0.22259231612E+02 -0.35294212222E+03  0.35588314611E+03  0.10000000000E+01 0.  0.
    9000005    1    3    3    0    0  0.39852210154E+02 -0.22259231612E+02 -0.58986363274E+02  0.74592647750E+02  0.10000000000E+01 0.  0.
<mgrwt>
<rscale>  0 0.12499733E+03</rscale>
<asrwt>0</asrwt>
<pdfrwt beam="1">  1        4 0.14267164E-02 0.12499733E+03</pdfrwt>
<pdfrwt beam="2">  1       -4 0.64800314E-01 0.12499733E+03</pdfrwt>
<totfact> 0.61696529E+03</totfact>
</mgrwt>
</event>
<event>
 5    1  0.3331626E-002  0.1249995E+03  0.7818608E-02  0.1235070E+00
          4   -1    0    0  501    0  0.00000000000E+00  0.00000000000E+00  0.36003793968E+03  0.36004017957E+03  0.12700000000E+01 0.  1.
         -4   -1    0    0    0  501 -0.00000000000E+00 -0.00000000000E+00 -0.10810020959E+02  0.10884367374E+02  0.12700000000E+01 0.  1.
         25    2    1    2    0    0  0.00000000000E+00  0.00000000000E+00  0.34922791872E+03  0.37092454695E+03  0.12499952126E+03 0.  0.
    9000005    1    3    3    0    0  0.60931311558E+02 -0.61284249470E+01  0.13766553138E+03  0.15067508371E+03  0.10000000000E+01 0.  0.
    9000005    1    3    3    0    0 -0.60931311558E+02  0.61284249470E+01  0.21156238734E+03  0.22024946324E+03  0.10000000000E+01 0.  0.
<mgrwt>
<rscale>  0 0.12499952E+03</rscale>
<asrwt>0</asrwt>
<pdfrwt beam="1">  1        4 0.55396343E-01 0.12499952E+03</pdfrwt>
<pdfrwt beam="2">  1       -4 0.16689714E-02 0.12499952E+03</pdfrwt>
<totfact> 0.67483036E+03</totfact>
</mgrwt>
</event>
<event>
 5    1  0.3331626E-002  0.1250149E+03  0.7818608E-02  0.1235046E+00
          4   -1    0    0  501    0  0.00000000000E+00  0.00000000000E+00  0.19574507175E+03  0.19574919160E+03  0.12700000000E+01 0. -1.
         -4   -1    0    0    0  501 -0.00000000000E+00 -0.00000000000E+00 -0.19936040523E+02  0.19976451430E+02  0.12700000000E+01 0. -1.
         25    2    1    2    0    0  0.00000000000E+00  0.00000000000E+00  0.17580903122E+03  0.21572564303E+03  0.12501494951E+03 0.  0.
    9000005    1    3    3    0    0  0.12192315162E+02  0.34611628177E+02  0.17520629135E+03  0.17901078705E+03  0.10000000000E+01 0.  0.
    9000005    1    3    3    0    0 -0.12192315162E+02 -0.34611628177E+02  0.60273987518E+00  0.36714855977E+02  0.10000000000E+01 0.  0.
<mgrwt>
<rscale>  0 0.12501495E+03</rscale>
<asrwt>0</asrwt>
<pdfrwt beam="1">  1        4 0.30118052E-01 0.12501495E+03</pdfrwt>
<pdfrwt beam="2">  1       -4 0.30705086E-02 0.12501495E+03</pdfrwt>
<totfact> 0.87520023E+03</totfact>
</mgrwt>
</event>
<event>
 5    1  0.3331626E-002  0.1250055E+03  0.7818608E-02  0.1235061E+00
          4   -1    0    0  501    0  0.00000000000E+00  0.00000000000E+00  0.80202045442E+02  0.80212100041E+02  0.12700000000E+01 0. -1.
         -4   -1    0    0    0  501 -0.00000000000E+00 -0.00000000000E+00 -0.48688014375E+02  0.48704575183E+02  0.12700000000E+01 0. -1.
         25    2    1    2    0    0  0.00000000000E+00  0.00000000000E+00  0.31514031067E+02  0.12891667522E+03  0.12500549987E+03 0.  0.
    9000005    1    3    3    0    0  0.22099223929E+02 -0.22946042829E+02  0.71204426726E+02  0.78012607732E+02  0.10000000000E+01 0.  0.
    9000005    1    3    3    0    0 -0.22099223929E+02  0.22946042829E+02 -0.39690395659E+02  0.50904067493E+02  0.10000000000E+01 0.  0.
<mgrwt>
<rscale>  0 0.12500550E+03</rscale>
<asrwt>0</asrwt>
<pdfrwt beam="1">  1        4 0.12340824E-01 0.12500550E+03</pdfrwt>
<pdfrwt beam="2">  1       -4 0.74925110E-02 0.12500550E+03</pdfrwt>
<totfact> 0.10366450E+04</totfact>
</mgrwt>
</event>
<event>
 5    1  0.3331626E-002  0.1250048E+03  0.7818608E-02  0.1235062E+00
         -4   -1    0    0    0  501 -0.00000000000E+00  0.00000000000E+00  0.86253879324E+02  0.86263228542E+02  0.12700000000E+01 0.  1.
          4   -1    0    0  501    0  0.00000000000E+00 -0.00000000000E+00 -0.45270620651E+02  0.45288431129E+02  0.12700000000E+01 0.  1.
         25    2    1    2    0    0  0.00000000000E+00  0.00000000000E+00  0.40983258673E+02  0.13155165967E+03  0.12500484659E+03 0.  0.
    9000005    1    3    3    0    0  0.16205397717E+02  0.18743039351E+02 -0.39885910537E+02  0.46965969581E+02  0.10000000000E+01 0.  0.
    9000005    1    3    3    0    0 -0.16205397717E+02 -0.18743039351E+02  0.80869169210E+02  0.84585690090E+02  0.10000000000E+01 0.  0.
<mgrwt>
<rscale>  0 0.12500485E+03</rscale>
<asrwt>0</asrwt>
<pdfrwt beam="2">  1        4 0.69668002E-02 0.12500485E+03</pdfrwt>
<pdfrwt beam="1">  1       -4 0.13271917E-01 0.12500485E+03</pdfrwt>
<totfact> 0.10310150E+04</totfact>
</mgrwt>
</event>
<event>
 5    1  0.3331626E-002  0.1250017E+03  0.7818608E-02  0.1235067E+00
         -4   -1    0    0    0  501 -0.00000000000E+00  0.00000000000E+00  0.43795343916E+03  0.43795528056E+03  0.12700000000E+01 0.  1.
          4   -1    0    0  501    0  0.00000000000E+00 -0.00000000000E+00 -0.88724863538E+01  0.89629188381E+01  0.12700000000E+01 0.  1.
         25    2    1    2    0    0  0.00000000000E+00  0.00000000000E+00  0.42908095281E+03  0.44691819940E+03  0.12500165156E+03 0.  0.
    9000005    1    3    3    0    0 -0.23568017242E+02 -0.57216570594E+02  0.18333776053E+03  0.19350173597E+03  0.10000000000E+01 0.  0.
    9000005    1    3    3    0    0  0.23568017242E+02  0.57216570594E+02  0.24574319227E+03  0.25341646343E+03  0.10000000000E+01 0.  0.
<mgrwt>
<rscale>  0 0.12500165E+03</rscale>
<asrwt>0</asrwt>
<pdfrwt beam="2">  1        4 0.13720962E-02 0.12500165E+03</pdfrwt>
<pdfrwt beam="1">  1       -4 0.67384536E-01 0.12500165E+03</pdfrwt>
<totfact> 0.60229518E+03</totfact>
</mgrwt>
</event>
<event>
 5    1  0.3331626E-002  0.1250032E+03  0.7818608E-02  0.1235064E+00
         -4   -1    0    0    0  501 -0.00000000000E+00  0.00000000000E+00  0.38320832327E+02  0.38341871241E+02  0.12700000000E+01 0.  1.
          4   -1    0    0  501    0  0.00000000000E+00 -0.00000000000E+00 -0.10188759868E+03  0.10189551347E+03  0.12700000000E+01 0.  1.
         25    2    1    2    0    0  0.00000000000E+00  0.00000000000E+00 -0.63566766357E+02  0.14023738471E+03  0.12500316110E+03 0.  0.
    9000005    1    3    3    0    0  0.11183583445E+02  0.53835312863E+02 -0.65103776478E+02  0.85222151824E+02  0.10000000000E+01 0.  0.
    9000005    1    3    3    0    0 -0.11183583445E+02 -0.53835312863E+02  0.15370101219E+01  0.55015232889E+02  0.10000000000E+01 0.  0.
<mgrwt>
<rscale>  0 0.12500316E+03</rscale>
<asrwt>0</asrwt>
<pdfrwt beam="2">  1        4 0.15677242E-01 0.12500316E+03</pdfrwt>
<pdfrwt beam="1">  1       -4 0.58977399E-02 0.12500316E+03</pdfrwt>
<totfact> 0.10127947E+04</totfact>
</mgrwt>
</event>
<event>
 5    1  0.3331626E-002  0.1250047E+03  0.7818608E-02  0.1235062E+00
         -4   -1    0    0    0  501 -0.00000000000E+00  0.00000000000E+00  0.44254963316E+02  0.44273182381E+02  0.12700000000E+01 0.  1.
          4   -1    0    0  501    0  0.00000000000E+00 -0.00000000000E+00 -0.88232668293E+02  0.88241807858E+02  0.12700000000E+01 0.  1.
         25    2    1    2    0    0  0.00000000000E+00  0.00000000000E+00 -0.43977704977E+02  0.13251499024E+03  0.12500473632E+03 0.  0.
    9000005    1    3    3    0    0 -0.25136356969E+02  0.22185277405E+02 -0.77897614039E+02  0.84811916900E+02  0.10000000000E+01 0.  0.
    9000005    1    3    3    0    0  0.25136356969E+02 -0.22185277405E+02  0.33919909063E+02  0.47703073339E+02  0.10000000000E+01 0.  0.
<mgrwt>
<rscale>  0 0.12500474E+03</rscale>
<asrwt>0</asrwt>
<pdfrwt beam="2">  1        4 0.13576361E-01 0.12500474E+03</pdfrwt>
<pdfrwt beam="1">  1       -4 0.68105604E-02 0.12500474E+03</pdfrwt>
<totfact> 0.10289619E+04</totfact>
</mgrwt>
</event>
<event>
 5    1  0.3331626E-002  0.1249998E+03  0.7818608E-02  0.1235070E+00
         -4   -1    0    0    0  501 -0.00000000000E+00  0.00000000000E+00  0.26140900745E+01  0.29062633944E+01  0.12700000000E+01 0. -1.
          4   -1    0    0  501    0  0.00000000000E+00 -0.00000000000E+00 -0.14149197080E+04  0.14149202780E+04  0.12700000000E+01 0. -1.
         25    2    1    2    0    0  0.00000000000E+00  0.00000000000E+00 -0.14123056179E+04  0.14178265414E+04  0.12499977180E+03 0.  0.
    9000005    1    3    3    0    0 -0.43429505250E+02 -0.33355807385E+02 -0.36464650395E+03  0.36873676879E+03  0.10000000000E+01 0.  0.
    9000005    1    3    3    0    0  0.43429505250E+02  0.33355807385E+02 -0.10476591140E+04  0.10490897726E+04  0.10000000000E+01 0.  0.
<mgrwt>
<rscale>  0 0.12499977E+03</rscale>
<asrwt>0</asrwt>
<pdfrwt beam="2">  1        4 0.21770189E+00 0.12499977E+03</pdfrwt>
<pdfrwt beam="1">  1       -4 0.42468755E-03 0.12499977E+03</pdfrwt>
<totfact> 0.19601756E+03</totfact>
</mgrwt>
</event>
<event>
 5    1  0.3331626E-002  0.1250007E+03  0.7818608E-02  0.1235068E+00
         -4   -1    0    0    0  501 -0.00000000000E+00  0.00000000000E+00  0.89546290509E+03  0.89546380569E+03  0.12700000000E+01 0.  1.
          4   -1    0    0  501    0  0.00000000000E+00 -0.00000000000E+00 -0.42689648110E+01  0.44538702897E+01  0.12700000000E+01 0.  1.
         25    2    1    2    0    0  0.00000000000E+00  0.00000000000E+00  0.89119394028E+03  0.89991767598E+03  0.12500073737E+03 0.  0.
    9000005    1    3    3    0    0 -0.29036213448E+02  0.24023680274E+02  0.86709413764E+02  0.94550311161E+02  0.10000000000E+01 0.  0.
    9000005    1    3    3    0    0  0.29036213448E+02 -0.24023680274E+02  0.80448452652E+03  0.80536736481E+03  0.10000000000E+01 0.  0.
<mgrwt>
<rscale>  0 0.12500074E+03</rscale>
<asrwt>0</asrwt>
<pdfrwt beam="2">  1        4 0.67105507E-03 0.12500074E+03</pdfrwt>
<pdfrwt beam="1">  1       -4 0.13777813E+00 0.12500074E+03</pdfrwt>
<totfact> 0.34162440E+03</totfact>
</mgrwt>
</event>
<event>
 5    1  0.3331626E-002  0.1250010E+03  0.7818608E-02  0.1235068E+00
         -4   -1    0    0    0  501 -0.00000000000E+00  0.00000000000E+00  0.12488728671E+02  0.12553136812E+02  0.12700000000E+01 0. -1.
          4   -1    0    0  501    0  0.00000000000E+00 -0.00000000000E+00 -0.31191691841E+03  0.31191950386E+03  0.12700000000E+01 0. -1.
         25    2    1    2    0    0  0.00000000000E+00  0.00000000000E+00 -0.29942818974E+03  0.32447264067E+03  0.12500101494E+03 0.  0.
    9000005    1    3    3    0    0  0.42241810806E+02  0.15369082865E+02 -0.26240518844E+03  0.26622934138E+03  0.10000000000E+01 0.  0.
    9000005    1    3    3    0    0 -0.42241810806E+02 -0.15369082865E+02 -0.37023001296E+02  0.58243299298E+02  0.10000000000E+01 0.  0.
<mgrwt>
<rscale>  0 0.12500101E+03</rscale>
<asrwt>0</asrwt>
<pdfrwt beam="2">  1        4 0.47992366E-01 0.12500101E+03</pdfrwt>
<pdfrwt beam="1">  1       -4 0.19264965E-02 0.12500101E+03</pdfrwt>
<totfact> 0.72625672E+03</totfact>
</mgrwt>
</event>
<event>
 5    1  0.3331626E-002  0.1249989E+03  0.7818608E-02  0.1235071E+00
         -4   -1    0    0    0  501 -0.00000000000E+00  0.00000000000E+00  0.40289625349E+03  0.40289825511E+03  0.12700000000E+01 0. -1.
          4   -1    0    0  501    0  0.00000000000E+00 -0.00000000000E+00 -0.96516319828E+01  0.97348292194E+01  0.12700000000E+01 0. -1.
         25    2    1    2    0    0  0.00000000000E+00  0.00000000000E+00  0.39324462150E+03  0.41263308433E+03  0.12499891977E+03 0.  0.
    9000005    1    3    3    0    0 -0.19350048860E+02  0.25046352070E+01  0.64508151740E+00  0.19547729243E+02  0.10000000000E+01 0.  0.
    9000005    1    3    3    0    0  0.19350048860E+02 -0.25046352070E+01  0.39259953998E+03  0.39308535509E+03  0.10000000000E+01 0.  0.
<mgrwt>
<rscale>  0 0.12499892E+03</rscale>
<asrwt>0</asrwt>
<pdfrwt beam="2">  1        4 0.14914204E-02 0.12499892E+03</pdfrwt>
<pdfrwt beam="1">  1       -4 0.61990586E-01 0.12499892E+03</pdfrwt>
<totfact> 0.63343892E+03</totfact>
</mgrwt>
</event>
<event>
 5    1  0.3331626E-002  0.1250004E+03  0.7818608E-02  0.1235069E+00
         -4   -1    0    0    0  501 -0.00000000000E+00  0.00000000000E+00  0.37225204933E+01  0.39331995656E+01  0.12700000000E+01 0. -1.
          4   -1    0    0  501    0  0.00000000000E+00 -0.00000000000E+00 -0.10202745462E+04  0.10202753366E+04  0.12700000000E+01 0. -1.
         25    2    1    2    0    0  0.00000000000E+00  0.00000000000E+00 -0.10165520257E+04  0.10242085362E+04  0.12500041854E+03 0.  0.
    9000005    1    3    3    0    0  0.49635977844E+02  0.67695547160E+01 -0.20216714022E+03  0.20828372417E+03  0.10000000000E+01 0.  0.
    9000005    1    3    3    0    0 -0.49635977844E+02 -0.67695547160E+01 -0.81438488545E+03  0.81592481199E+03  0.10000000000E+01 0.  0.
<mgrwt>
<rscale>  0 0.12500042E+03</rscale>
<asrwt>0</asrwt>
<pdfrwt beam="2">  1        4 0.15698136E+00 0.12500042E+03</pdfrwt>
<pdfrwt beam="1">  1       -4 0.58896316E-03 0.12500042E+03</pdfrwt>
<totfact> 0.29813704E+03</totfact>
</mgrwt>
</event>
<event>
 5    1  0.3331626E-002  0.1250123E+03  0.7818608E-02  0.1235050E+00
         -4   -1    0    0    0  501 -0.00000000000E+00  0.00000000000E+00  0.22693462954E+04  0.22693466508E+04  0.12700000000E+01 0.  1.
          4   -1    0    0  501    0  0.00000000000E+00 -0.00000000000E+00 -0.14870385282E+01  0.19555519897E+01  0.12700000000E+01 0.  1.
         25    2    1    2    0    0  0.00000000000E+00  0.00000000000E+00  0.22678592569E+04  0.22713022028E+04  0.12501234846E+03 0.  0.
    9000005    1    3    3    0    0  0.33091660236E+02 -0.15920321159E+02  0.21510962418E+03  0.21822388737E+03  0.10000000000E+01 0.  0.
    9000005    1    3    3    0    0 -0.33091660236E+02  0.15920321159E+02  0.20527496327E+04  0.20530783154E+04  0.10000000000E+01 0.  0.
<mgrwt>
<rscale>  0 0.12501235E+03</rscale>
<asrwt>0</asrwt>
<pdfrwt beam="2">  1        4 0.26484173E-03 0.12501235E+03</pdfrwt>
<pdfrwt beam="1">  1       -4 0.34916661E+00 0.12501235E+03</pdfrwt>
<totfact> 0.67208643E+02</totfact>
</mgrwt>
</event>
<event>
 5    1  0.3331626E-002  0.1250001E+03  0.7818608E-02  0.1235069E+00
         -4   -1    0    0    0  501 -0.00000000000E+00  0.00000000000E+00  0.34120421901E+03  0.34120658254E+03  0.12700000000E+01 0.  1.
          4   -1    0    0  501    0  0.00000000000E+00 -0.00000000000E+00 -0.11410816043E+02  0.11481272698E+02  0.12700000000E+01 0.  1.
         25    2    1    2    0    0  0.00000000000E+00  0.00000000000E+00  0.32979340296E+03  0.35268785524E+03  0.12500013837E+03 0.  0.
    9000005    1    3    3    0    0 -0.43382309875E+01 -0.62336965394E+02  0.16282113258E+03  0.17440309263E+03  0.10000000000E+01 0.  0.
    9000005    1    3    3    0    0  0.43382309875E+01  0.62336965394E+02  0.16697227038E+03  0.17828476261E+03  0.10000000000E+01 0.  0.
<mgrwt>
<rscale>  0 0.12500014E+03</rscale>
<asrwt>0</asrwt>
<pdfrwt beam="2">  1        4 0.17611121E-02 0.12500014E+03</pdfrwt>
<pdfrwt beam="1">  1       -4 0.52498547E-01 0.12500014E+03</pdfrwt>
<totfact> 0.69429661E+03</totfact>
</mgrwt>
</event>
<event>
 5    1  0.3331626E-002  0.1250011E+03  0.7818608E-02  0.1235067E+00
          4   -1    0    0  501    0  0.00000000000E+00  0.00000000000E+00  0.14638962458E+02  0.14693948477E+02  0.12700000000E+01 0. -1.
         -4   -1    0    0    0  501 -0.00000000000E+00 -0.00000000000E+00 -0.26628742701E+03  0.26629045549E+03  0.12700000000E+01 0. -1.
         25    2    1    2    0    0  0.00000000000E+00  0.00000000000E+00 -0.25164846455E+03  0.28098440397E+03  0.12500114224E+03 0.  0.
    9000005    1    3    3    0    0  0.48376948772E+02 -0.34606794508E+02 -0.82740299070E+02  0.10190641044E+03  0.10000000000E+01 0.  0.
    9000005    1    3    3    0    0 -0.48376948772E+02  0.34606794508E+02 -0.16890816548E+03  0.17907799353E+03  0.10000000000E+01 0.  0.
<mgrwt>
<rscale>  0 0.12500114E+03</rscale>
<asrwt>0</asrwt>
<pdfrwt beam="1">  1        4 0.22566109E-02 0.12500114E+03</pdfrwt>
<pdfrwt beam="2">  1       -4 0.40971756E-01 0.12500114E+03</pdfrwt>
<totfact> 0.78045781E+03</totfact>
</mgrwt>
</event>
<event>
 4    1  0.3331626E-002  0.1250687E+03  0.7818608E-02  0.1234962E+00
         -4   -1    0    0    0  501 -0.00000000000E+00  0.00000000000E+00  0.32819330063E+02  0.32843893280E+02  0.12700000000E+01 0. -1.
          4   -1    0    0  501    0  0.00000000000E+00 -0.00000000000E+00 -0.11908125108E+03  0.11908802316E+03  0.12700000000E+01 0. -1.
    9000005    1    1    2    0    0 -0.60492838387E+02 -0.15703410444E+02 -0.45425094687E+02  0.77268491787E+02  0.10000000000E+01 0.  0.
    9000005    1    1    2    0    0  0.60492838387E+02  0.15703410444E+02 -0.40836826335E+02  0.74663424652E+02  0.10000000000E+01 0.  0.
<mgrwt>
<rscale>  0 0.12506873E+03</rscale>
<asrwt>0</asrwt>
<pdfrwt beam="2">  1        4 0.18322603E-01 0.12506873E+03</pdfrwt>
<pdfrwt beam="1">  1       -4 0.50515382E-02 0.12506873E+03</pdfrwt>
<totfact> 0.98767154E+03</totfact>
</mgrwt>
</event>
<event>
 5    1  0.3331626E-002  0.1249944E+03  0.7818608E-02  0.1235078E+00
         -4   -1    0    0    0  501 -0.00000000000E+00  0.00000000000E+00  0.69037114151E+03  0.69037230964E+03  0.12700000000E+01 0.  1.
          4   -1    0    0  501    0  0.00000000000E+00 -0.00000000000E+00 -0.55852263312E+01  0.57277965371E+01  0.12700000000E+01 0.  1.
         25    2    1    2    0    0  0.00000000000E+00  0.00000000000E+00  0.68478591517E+03  0.69610010618E+03  0.12499443269E+03 0.  0.
    9000005    1    3    3    0    0 -0.27855898077E+02 -0.42030298716E+02  0.54795084326E+03  0.55026686589E+03  0.10000000000E+01 0.  0.
    9000005    1    3    3    0    0  0.27855898077E+02  0.42030298716E+02  0.13683507191E+03  0.14583324029E+03  0.10000000000E+01 0.  0.
<mgrwt>
<rscale>  0 0.12499443E+03</rscale>
<asrwt>0</asrwt>
<pdfrwt beam="2">  1        4 0.87032228E-03 0.12499443E+03</pdfrwt>
<pdfrwt beam="1">  1       -4 0.10622201E+00 0.12499443E+03</pdfrwt>
<totfact> 0.43298628E+03</totfact>
</mgrwt>
</event>
<event>
 5    1  0.3331626E-002  0.1250002E+03  0.7818608E-02  0.1235069E+00
          4   -1    0    0  501    0  0.00000000000E+00  0.00000000000E+00  0.10803404896E+03  0.10804151348E+03  0.12700000000E+01 0. -1.
         -4   -1    0    0    0  501 -0.00000000000E+00 -0.00000000000E+00 -0.36137825480E+02  0.36160134547E+02  0.12700000000E+01 0. -1.
         25    2    1    2    0    0  0.00000000000E+00  0.00000000000E+00  0.71896223480E+02  0.14420164803E+03  0.12500019337E+03 0.  0.
    9000005    1    3    3    0    0 -0.18662392431E+02 -0.31139381029E+02 -0.22731102288E+02  0.42844474012E+02  0.10000000000E+01 0.  0.
    9000005    1    3    3    0    0  0.18662392431E+02  0.31139381029E+02  0.94627325768E+02  0.10135717401E+03  0.10000000000E+01 0.  0.
<mgrwt>
<rscale>  0 0.12500019E+03</rscale>
<asrwt>0</asrwt>
<pdfrwt beam="1">  1        4 0.16622913E-01 0.12500019E+03</pdfrwt>
<pdfrwt beam="2">  1       -4 0.55619558E-02 0.12500019E+03</pdfrwt>
<totfact> 0.10047191E+04</totfact>
</mgrwt>
</event>
<event>
 5    1  0.3331626E-002  0.1249917E+03  0.7818608E-02  0.1235082E+00
          4   -1    0    0  501    0  0.00000000000E+00  0.00000000000E+00  0.32682934457E+02  0.32707600107E+02  0.12700000000E+01 0. -1.
         -4   -1    0    0    0  501 -0.00000000000E+00 -0.00000000000E+00 -0.11943053975E+03  0.11943729202E+03  0.12700000000E+01 0. -1.
         25    2    1    2    0    0  0.00000000000E+00  0.00000000000E+00 -0.86747605297E+02  0.15214489213E+03  0.12499168443E+03 0.  0.
    9000005    1    3    3    0    0  0.91050897870E+00  0.12589118524E+01 -0.11941299509E+03  0.11942728868E+03  0.10000000000E+01 0.  0.
    9000005    1    3    3    0    0 -0.91050897870E+00 -0.12589118524E+01  0.32665389788E+02  0.32717603453E+02  0.10000000000E+01 0.  0.
<mgrwt>
<rscale>  0 0.12499168E+03</rscale>
<asrwt>0</asrwt>
<pdfrwt beam="1">  1        4 0.50305606E-02 0.12499168E+03</pdfrwt>
<pdfrwt beam="2">  1       -4 0.18376346E-01 0.12499168E+03</pdfrwt>
<totfact> 0.98896355E+03</totfact>
</mgrwt>
</event>
<event>
 5    1  0.3331626E-002  0.1250010E+03  0.7818608E-02  0.1235068E+00
          4   -1    0    0  501    0  0.00000000000E+00  0.00000000000E+00  0.67151040920E+02  0.67163049340E+02  0.12700000000E+01 0.  1.
         -4   -1    0    0    0  501 -0.00000000000E+00 -0.00000000000E+00 -0.58147932562E+02  0.58161799845E+02  0.12700000000E+01 0.  1.
         25    2    1    2    0    0  0.00000000000E+00  0.00000000000E+00  0.90031083587E+01  0.12532484919E+03  0.12500104745E+03 0.  0.
    9000005    1    3    3    0    0  0.44019788916E+02 -0.41777570894E+02  0.19446818436E+02  0.63736065091E+02  0.10000000000E+01 0.  0.
    9000005    1    3    3    0    0 -0.44019788916E+02  0.41777570894E+02 -0.10443710078E+02  0.61588784094E+02  0.10000000000E+01 0.  0.
<mgrwt>
<rscale>  0 0.12500105E+03</rscale>
<asrwt>0</asrwt>
<pdfrwt beam="1">  1        4 0.10332920E-01 0.12500105E+03</pdfrwt>
<pdfrwt beam="2">  1       -4 0.89478262E-02 0.12500105E+03</pdfrwt>
<totfact> 0.10445564E+04</totfact>
</mgrwt>
</event>
<event>
 5    1  0.3331626E-002  0.1249971E+03  0.7818608E-02  0.1235074E+00
         -4   -1    0    0    0  501 -0.00000000000E+00  0.00000000000E+00  0.39758403067E+03  0.39758605904E+03  0.12700000000E+01 0. -1.
          4   -1    0    0  501    0  0.00000000000E+00 -0.00000000000E+00 -0.97814027405E+01  0.98635054403E+01  0.12700000000E+01 0. -1.
         25    2    1    2    0    0  0.00000000000E+00  0.00000000000E+00  0.38780262793E+03  0.40744956448E+03  0.12499707743E+03 0.  0.
    9000005    1    3    3    0    0  0.28178407723E+02  0.53790704688E+02  0.24198615711E+03  0.24949100747E+03  0.10000000000E+01 0.  0.
    9000005    1    3    3    0    0 -0.28178407723E+02 -0.53790704688E+02  0.14581647082E+03  0.15795855701E+03  0.10000000000E+01 0.  0.
<mgrwt>
<rscale>  0 0.12499708E+03</rscale>
<asrwt>0</asrwt>
<pdfrwt beam="2">  1        4 0.15113028E-02 0.12499708E+03</pdfrwt>
<pdfrwt beam="1">  1       -4 0.61173245E-01 0.12499708E+03</pdfrwt>
<totfact> 0.63838762E+03</totfact>
</mgrwt>
</event>
<event>
 5    1  0.3331626E-002  0.1249998E+03  0.7818608E-02  0.1235070E+00
          4   -1    0    0  501    0  0.00000000000E+00  0.00000000000E+00  0.70882880724E+02  0.70894257030E+02  0.12700000000E+01 0. -1.
         -4   -1    0    0    0  501 -0.00000000000E+00 -0.00000000000E+00 -0.55085208184E+02  0.55099846286E+02  0.12700000000E+01 0. -1.
         25    2    1    2    0    0  0.00000000000E+00  0.00000000000E+00  0.15797672540E+02  0.12599410332E+03  0.12499979045E+03 0.  0.
    9000005    1    3    3    0    0  0.52591288795E+01 -0.56725854776E+01  0.70403397329E+02  0.70834137377E+02  0.10000000000E+01 0.  0.
    9000005    1    3    3    0    0 -0.52591288795E+01  0.56725854776E+01 -0.54605724789E+02  0.55159965938E+02  0.10000000000E+01 0.  0.
<mgrwt>
<rscale>  0 0.12499979E+03</rscale>
<asrwt>0</asrwt>
<pdfrwt beam="1">  1        4 0.10907060E-01 0.12499979E+03</pdfrwt>
<pdfrwt beam="2">  1       -4 0.84766485E-02 0.12499979E+03</pdfrwt>
<totfact> 0.10431135E+04</totfact>
</mgrwt>
</event>
<event>
 5    1  0.3331626E-002  0.1249973E+03  0.7818608E-02  0.1235073E+00
         -4   -1    0    0    0  501 -0.00000000000E+00  0.00000000000E+00  0.40187940365E+01  0.42146892540E+01  0.12700000000E+01 0.  1.
          4   -1    0    0  501    0  0.00000000000E+00 -0.00000000000E+00 -0.94863277850E+03  0.94863362862E+03  0.12700000000E+01 0.  1.
         25    2    1    2    0    0  0.00000000000E+00  0.00000000000E+00 -0.94461398447E+03  0.95284831788E+03  0.12499734888E+03 0.  0.
    9000005    1    3    3    0    0 -0.50391743884E+02  0.27642076019E+02 -0.65929032752E+03  0.66179161991E+03  0.10000000000E+01 0.  0.
    9000005    1    3    3    0    0  0.50391743884E+02 -0.27642076019E+02 -0.28532365694E+03  0.29105669797E+03  0.10000000000E+01 0.  0.
<mgrwt>
<rscale>  0 0.12499735E+03</rscale>
<asrwt>0</asrwt>
<pdfrwt beam="2">  1        4 0.14595846E+00 0.12499735E+03</pdfrwt>
<pdfrwt beam="1">  1       -4 0.63341102E-03 0.12499735E+03</pdfrwt>
<totfact> 0.32216960E+03</totfact>
</mgrwt>
</event>
<event>
 5    1  0.3331626E-002  0.1249982E+03  0.7818608E-02  0.1235072E+00
         -4   -1    0    0    0  501 -0.00000000000E+00  0.00000000000E+00  0.43706634979E+02  0.43725082518E+02  0.12700000000E+01 0. -1.
          4   -1    0    0  501    0  0.00000000000E+00 -0.00000000000E+00 -0.89329912011E+02  0.89338939326E+02  0.12700000000E+01 0. -1.
         25    2    1    2    0    0  0.00000000000E+00  0.00000000000E+00 -0.45623277032E+02  0.13306402184E+03  0.12499820200E+03 0.  0.
    9000005    1    3    3    0    0  0.28686695848E+02 -0.33123962137E+02 -0.70240062436E+02  0.82793657712E+02  0.10000000000E+01 0.  0.
    9000005    1    3    3    0    0 -0.28686695848E+02  0.33123962137E+02  0.24616785404E+02  0.50270364132E+02  0.10000000000E+01 0.  0.
<mgrwt>
<rscale>  0 0.12499820E+03</rscale>
<asrwt>0</asrwt>
<pdfrwt beam="2">  1        4 0.13745177E-01 0.12499820E+03</pdfrwt>
<pdfrwt beam="1">  1       -4 0.67262111E-02 0.12499820E+03</pdfrwt>
<totfact> 0.10279456E+04</totfact>
</mgrwt>
</event>
<event>
 5    1  0.3331626E-002  0.1249881E+03  0.7818608E-02  0.1235088E+00
         -4   -1    0    0    0  501 -0.00000000000E+00  0.00000000000E+00  0.39439756743E+01  0.41434097214E+01  0.12700000000E+01 0. -1.
          4   -1    0    0  501    0  0.00000000000E+00 -0.00000000000E+00 -0.96562659950E+03  0.96562743466E+03  0.12700000000E+01 0. -1.
         25    2    1    2    0    0  0.00000000000E+00  0.00000000000E+00 -0.96168262382E+03  0.96977084438E+03  0.12498808598E+03 0.  0.
    9000005    1    3    3    0    0  0.53964966088E+02  0.16684950230E+02 -0.68815084902E+03  0.69046592685E+03  0.10000000000E+01 0.  0.
    9000005    1    3    3    0    0 -0.53964966088E+02 -0.16684950230E+02 -0.27353177480E+03  0.27930491753E+03  0.10000000000E+01 0.  0.
<mgrwt>
<rscale>  0 0.12498809E+03</rscale>
<asrwt>0</asrwt>
<pdfrwt beam="2">  1        4 0.14857316E+00 0.12498809E+03</pdfrwt>
<pdfrwt beam="1">  1       -4 0.62217158E-03 0.12498809E+03</pdfrwt>
<totfact> 0.31632527E+03</totfact>
</mgrwt>
</event>
<event>
 5    1  0.3331626E-002  0.1249983E+03  0.7818608E-02  0.1235072E+00
         -4   -1    0    0    0  501 -0.00000000000E+00  0.00000000000E+00  0.28054209006E+02  0.28082940426E+02  0.12700000000E+01 0. -1.
          4   -1    0    0  501    0  0.00000000000E+00 -0.00000000000E+00 -0.13913263034E+03  0.13913842649E+03  0.12700000000E+01 0. -1.
         25    2    1    2    0    0  0.00000000000E+00  0.00000000000E+00 -0.11107842133E+03  0.16722136691E+03  0.12499827945E+03 0.  0.
    9000005    1    3    3    0    0  0.58003792613E+02 -0.18372001169E+02 -0.36470569357E+02  0.70944152780E+02  0.10000000000E+01 0.  0.
    9000005    1    3    3    0    0 -0.58003792613E+02  0.18372001169E+02 -0.74607851976E+02  0.96277214132E+02  0.10000000000E+01 0.  0.
<mgrwt>
<rscale>  0 0.12499828E+03</rscale>
<asrwt>0</asrwt>
<pdfrwt beam="2">  1        4 0.21407676E-01 0.12499828E+03</pdfrwt>
<pdfrwt beam="1">  1       -4 0.43186882E-02 0.12499828E+03</pdfrwt>
<totfact> 0.95972056E+03</totfact>
</mgrwt>
</event>
<event>
 5    1  0.3331626E-002  0.1250002E+03  0.7818608E-02  0.1235069E+00
          4   -1    0    0  501    0  0.00000000000E+00  0.00000000000E+00  0.62347306508E+02  0.62360239967E+02  0.12700000000E+01 0.  1.
         -4   -1    0    0    0  501 -0.00000000000E+00 -0.00000000000E+00 -0.62627423357E+02  0.62640298980E+02  0.12700000000E+01 0.  1.
         25    2    1    2    0    0  0.00000000000E+00  0.00000000000E+00 -0.28011684911E+00  0.12500053895E+03  0.12500022509E+03 0.  0.
    9000005    1    3    3    0    0 -0.44642720253E+02 -0.42280714476E+02  0.11023874825E+02  0.62475251935E+02  0.10000000000E+01 0.  0.
    9000005    1    3    3    0    0  0.44642720253E+02  0.42280714476E+02 -0.11303991674E+02  0.62525287012E+02  0.10000000000E+01 0.  0.
<mgrwt>
<rscale>  0 0.12500023E+03</rscale>
<asrwt>0</asrwt>
<pdfrwt beam="1">  1        4 0.95938787E-02 0.12500023E+03</pdfrwt>
<pdfrwt beam="2">  1       -4 0.96369735E-02 0.12500023E+03</pdfrwt>
<totfact> 0.10452798E+04</totfact>
</mgrwt>
</event>
<event>
 5    1  0.3331626E-002  0.1249972E+03  0.7818608E-02  0.1235074E+00
         -4   -1    0    0    0  501 -0.00000000000E+00  0.00000000000E+00  0.69755248728E+02  0.69766808908E+02  0.12700000000E+01 0.  1.
          4   -1    0    0  501    0  0.00000000000E+00 -0.00000000000E+00 -0.55973464688E+02  0.55987870554E+02  0.12700000000E+01 0.  1.
         25    2    1    2    0    0  0.00000000000E+00  0.00000000000E+00  0.13781784041E+02  0.12575467946E+03  0.12499720731E+03 0.  0.
    9000005    1    3    3    0    0 -0.46685975667E+02 -0.18298607909E+02  0.44408376750E+02  0.66988978952E+02  0.10000000000E+01 0.  0.
    9000005    1    3    3    0    0  0.46685975667E+02  0.18298607909E+02 -0.30626592709E+02  0.58765700510E+02  0.10000000000E+01 0.  0.
<mgrwt>
<rscale>  0 0.12499721E+03</rscale>
<asrwt>0</asrwt>
<pdfrwt beam="2">  1        4 0.86132997E-02 0.12499721E+03</pdfrwt>
<pdfrwt beam="1">  1       -4 0.10733574E-01 0.12499721E+03</pdfrwt>
<totfact> 0.10436999E+04</totfact>
</mgrwt>
</event>
<event>
 5    1  0.3331626E-002  0.1249991E+03  0.7818608E-02  0.1235071E+00
          4   -1    0    0  501    0  0.00000000000E+00  0.00000000000E+00  0.11026543431E+02  0.11099439627E+02  0.12700000000E+01 0.  1.
         -4   -1    0    0    0  501 -0.00000000000E+00 -0.00000000000E+00 -0.35301262288E+03  0.35301490735E+03  0.12700000000E+01 0.  1.
         25    2    1    2    0    0  0.00000000000E+00  0.00000000000E+00 -0.34198607944E+03  0.36411434697E+03  0.12499911655E+03 0.  0.
    9000005    1    3    3    0    0  0.56996912520E+01 -0.10191805635E+01  0.10257784753E+02  0.11821478648E+02  0.10000000000E+01 0.  0.
    9000005    1    3    3    0    0 -0.56996912520E+01  0.10191805635E+01 -0.35224386420E+03  0.35229286833E+03  0.10000000000E+01 0.  0.
<mgrwt>
<rscale>  0 0.12499912E+03</rscale>
<asrwt>0</asrwt>
<pdfrwt beam="1">  1        4 0.17021747E-02 0.12499912E+03</pdfrwt>
<pdfrwt beam="2">  1       -4 0.54315409E-01 0.12499912E+03</pdfrwt>
<totfact> 0.68200551E+03</totfact>
</mgrwt>
</event>
<event>
 5    1  0.3331626E-002  0.1249993E+03  0.7818608E-02  0.1235070E+00
          4   -1    0    0  501    0  0.00000000000E+00  0.00000000000E+00  0.11688222065E+02  0.11757016418E+02  0.12700000000E+01 0. -1.
         -4   -1    0    0    0  501 -0.00000000000E+00 -0.00000000000E+00 -0.33314974282E+03  0.33315216350E+03  0.12700000000E+01 0. -1.
         25    2    1    2    0    0  0.00000000000E+00  0.00000000000E+00 -0.32146152076E+03  0.34490917992E+03  0.12499933224E+03 0.  0.
    9000005    1    3    3    0    0 -0.22503500930E+02 -0.28529459529E+02 -0.30101745032E+03  0.30320429254E+03  0.10000000000E+01 0.  0.
    9000005    1    3    3    0    0  0.22503500930E+02  0.28529459529E+02 -0.20444070436E+02  0.41704887377E+02  0.10000000000E+01 0.  0.
<mgrwt>
<rscale>  0 0.12499933E+03</rscale>
<asrwt>0</asrwt>
<pdfrwt beam="1">  1        4 0.18036663E-02 0.12499933E+03</pdfrwt>
<pdfrwt beam="2">  1       -4 0.51259277E-01 0.12499933E+03</pdfrwt>
<totfact> 0.70289305E+03</totfact>
</mgrwt>
</event>
<event>
 5    1  0.3331626E-002  0.1249980E+03  0.7818608E-02  0.1235072E+00
          4   -1    0    0  501    0  0.00000000000E+00  0.00000000000E+00  0.12156700906E+03  0.12157364267E+03  0.12700000000E+01 0. -1.
         -4   -1    0    0    0  501 -0.00000000000E+00 -0.00000000000E+00 -0.32111383058E+02  0.32136487392E+02  0.12700000000E+01 0. -1.
         25    2    1    2    0    0  0.00000000000E+00  0.00000000000E+00  0.89455626004E+02  0.15371013006E+03  0.12499798023E+03 0.  0.
    9000005    1    3    3    0    0  0.30385074877E+01  0.53121434492E+02  0.85027579691E+02  0.10030856712E+03  0.10000000000E+01 0.  0.
    9000005    1    3    3    0    0 -0.30385074877E+01 -0.53121434492E+02  0.44280463125E+01  0.53401562940E+02  0.10000000000E+01 0.  0.
<mgrwt>
<rscale>  0 0.12499798E+03</rscale>
<asrwt>0</asrwt>
<pdfrwt beam="1">  1        4 0.18705058E-01 0.12499798E+03</pdfrwt>
<pdfrwt beam="2">  1       -4 0.49426542E-02 0.12499798E+03</pdfrwt>
<totfact> 0.98573693E+03</totfact>
</mgrwt>
</event>
<event>
 5    1  0.3331626E-002  0.1249943E+03  0.7818608E-02  0.1235078E+00
         -4   -1    0    0    0  501 -0.00000000000E+00  0.00000000000E+00  0.78653749126E+03  0.78653851657E+03  0.12700000000E+01 0. -1.
          4   -1    0    0  501    0  0.00000000000E+00 -0.00000000000E+00 -0.48836909694E+01  0.50461210334E+01  0.12700000000E+01 0. -1.
         25    2    1    2    0    0  0.00000000000E+00  0.00000000000E+00  0.78165380029E+03  0.79158463761E+03  0.12499429983E+03 0.  0.
    9000005    1    3    3    0    0 -0.60414919872E+02 -0.33065654720E+00  0.49192092766E+03  0.49561806964E+03  0.10000000000E+01 0.  0.
    9000005    1    3    3    0    0  0.60414919872E+02  0.33065654720E+00  0.28973287262E+03  0.29596656797E+03  0.10000000000E+01 0.  0.
<mgrwt>
<rscale>  0 0.12499430E+03</rscale>
<asrwt>0</asrwt>
<pdfrwt beam="2">  1        4 0.76391034E-03 0.12499430E+03</pdfrwt>
<pdfrwt beam="1">  1       -4 0.12101838E+00 0.12499430E+03</pdfrwt>
<totfact> 0.38647985E+03</totfact>
</mgrwt>
</event>
<event>
 5    1  0.3331626E-002  0.1250070E+03  0.7818608E-02  0.1235058E+00
         -4   -1    0    0    0  501 -0.00000000000E+00  0.00000000000E+00  0.24177230248E+03  0.24177563803E+03  0.12700000000E+01 0. -1.
          4   -1    0    0  501    0  0.00000000000E+00 -0.00000000000E+00 -0.16130129822E+02  0.16180049075E+02  0.12700000000E+01 0. -1.
         25    2    1    2    0    0  0.00000000000E+00  0.00000000000E+00  0.22564217266E+03  0.25795568711E+03  0.12500698552E+03 0.  0.
    9000005    1    3    3    0    0  0.40450714106E+02 -0.47383106533E+02  0.10265570207E+03  0.12008585355E+03  0.10000000000E+01 0.  0.
    9000005    1    3    3    0    0 -0.40450714106E+02  0.47383106533E+02  0.12298647059E+03  0.13786983355E+03  0.10000000000E+01 0.  0.
<mgrwt>
<rscale>  0 0.12500699E+03</rscale>
<asrwt>0</asrwt>
<pdfrwt beam="2">  1        4 0.24856550E-02 0.12500699E+03</pdfrwt>
<pdfrwt beam="1">  1       -4 0.37199834E-01 0.12500699E+03</pdfrwt>
<totfact> 0.81181184E+03</totfact>
</mgrwt>
</event>
<event>
 5    1  0.3331626E-002  0.1249969E+03  0.7818608E-02  0.1235074E+00
          4   -1    0    0  501    0  0.00000000000E+00  0.00000000000E+00  0.27206274097E+02  0.27235900027E+02  0.12700000000E+01 0.  1.
         -4   -1    0    0    0  501 -0.00000000000E+00 -0.00000000000E+00 -0.14346126239E+03  0.14346688366E+03  0.12700000000E+01 0.  1.
         25    2    1    2    0    0  0.00000000000E+00  0.00000000000E+00 -0.11625498829E+03  0.17070278369E+03  0.12499687218E+03 0.  0.
    9000005    1    3    3    0    0 -0.10877133537E+02  0.38118912585E+02 -0.12410002299E+03  0.13028115457E+03  0.10000000000E+01 0.  0.
    9000005    1    3    3    0    0  0.10877133537E+02 -0.38118912585E+02  0.78450346980E+01  0.40421629111E+02  0.10000000000E+01 0.  0.
<mgrwt>
<rscale>  0 0.12499687E+03</rscale>
<asrwt>0</asrwt>
<pdfrwt beam="1">  1        4 0.41882920E-02 0.12499687E+03</pdfrwt>
<pdfrwt beam="2">  1       -4 0.22073674E-01 0.12499687E+03</pdfrwt>
<totfact> 0.95324501E+03</totfact>
</mgrwt>
</event>
<event>
 5    1  0.3331626E-002  0.1249998E+03  0.7818608E-02  0.1235070E+00
         -4   -1    0    0    0  501 -0.00000000000E+00  0.00000000000E+00  0.10404255925E+03  0.10405031012E+03  0.12700000000E+01 0.  1.
          4   -1    0    0  501    0  0.00000000000E+00 -0.00000000000E+00 -0.37524730303E+02  0.37546215313E+02  0.12700000000E+01 0.  1.
         25    2    1    2    0    0  0.00000000000E+00  0.00000000000E+00  0.66517828950E+02  0.14159652543E+03  0.12499981779E+03 0.  0.
    9000005    1    3    3    0    0  0.60214684547E+02  0.14730436867E+02  0.24307520292E+02  0.66593164425E+02  0.10000000000E+01 0.  0.
    9000005    1    3    3    0    0 -0.60214684547E+02 -0.14730436867E+02  0.42210308658E+02  0.75003361008E+02  0.10000000000E+01 0.  0.
<mgrwt>
<rscale>  0 0.12499982E+03</rscale>
<asrwt>0</asrwt>
<pdfrwt beam="2">  1        4 0.57752843E-02 0.12499982E+03</pdfrwt>
<pdfrwt beam="1">  1       -4 0.16008797E-01 0.12499982E+03</pdfrwt>
<totfact> 0.10100645E+04</totfact>
</mgrwt>
</event>
<event>
 5    1  0.3331626E-002  0.1249939E+03  0.7818608E-02  0.1235079E+00
         -4   -1    0    0    0  501 -0.00000000000E+00  0.00000000000E+00  0.40166545617E+02  0.40186618255E+02  0.12700000000E+01 0.  1.
          4   -1    0    0  501    0  0.00000000000E+00 -0.00000000000E+00 -0.97193296515E+02  0.97201593544E+02  0.12700000000E+01 0.  1.
         25    2    1    2    0    0  0.00000000000E+00  0.00000000000E+00 -0.57026750898E+02  0.13738821180E+03  0.12499388154E+03 0.  0.
    9000005    1    3    3    0    0  0.20375774958E+02 -0.16090507007E+02 -0.90989653249E+02  0.94626601013E+02  0.10000000000E+01 0.  0.
    9000005    1    3    3    0    0 -0.20375774958E+02  0.16090507007E+02  0.33962902351E+02  0.42761610786E+02  0.10000000000E+01 0.  0.
<mgrwt>
<rscale>  0 0.12499388E+03</rscale>
<asrwt>0</asrwt>
<pdfrwt beam="2">  1        4 0.14954997E-01 0.12499388E+03</pdfrwt>
<pdfrwt beam="1">  1       -4 0.61816509E-02 0.12499388E+03</pdfrwt>
<totfact> 0.10189381E+04</totfact>
</mgrwt>
</event>
<event>
 5    1  0.3331626E-002  0.1249967E+03  0.7818608E-02  0.1235074E+00
          4   -1    0    0  501    0  0.00000000000E+00  0.00000000000E+00  0.75078931777E+02  0.75089672371E+02  0.12700000000E+01 0. -1.
         -4   -1    0    0    0  501 -0.00000000000E+00 -0.00000000000E+00 -0.52003633488E+02  0.52019138747E+02  0.12700000000E+01 0. -1.
         25    2    1    2    0    0  0.00000000000E+00  0.00000000000E+00  0.23075298289E+02  0.12710881112E+03  0.12499672185E+03 0.  0.
    9000005    1    3    3    0    0  0.12441555214E+02  0.60686561592E+02  0.19885753261E+02  0.65069918063E+02  0.10000000000E+01 0.  0.
    9000005    1    3    3    0    0 -0.12441555214E+02 -0.60686561592E+02  0.31895450280E+01  0.62038893055E+02  0.10000000000E+01 0.  0.
<mgrwt>
<rscale>  0 0.12499672E+03</rscale>
<asrwt>0</asrwt>
<pdfrwt beam="1">  1        4 0.11552624E-01 0.12499672E+03</pdfrwt>
<pdfrwt beam="2">  1       -4 0.80025779E-02 0.12499672E+03</pdfrwt>
<totfact> 0.10407553E+04</totfact>
</mgrwt>
</event>
<event>
 5    1  0.3331626E-002  0.1249996E+03  0.7818608E-02  0.1235070E+00
         -4   -1    0    0    0  501 -0.00000000000E+00  0.00000000000E+00  0.99943992525E+02  0.99952061218E+02  0.12700000000E+01 0. -1.
          4   -1    0    0  501    0  0.00000000000E+00 -0.00000000000E+00 -0.39064198664E+02  0.39084837435E+02  0.12700000000E+01 0. -1.
         25    2    1    2    0    0  0.00000000000E+00  0.00000000000E+00  0.60879793860E+02  0.13903689865E+03  0.12499963955E+03 0.  0.
    9000005    1    3    3    0    0  0.28348406613E+01  0.61019501905E+02  0.45104172444E+02  0.75939464748E+02  0.10000000000E+01 0.  0.
    9000005    1    3    3    0    0 -0.28348406613E+01 -0.61019501905E+02  0.15775621416E+02  0.63097433905E+02  0.10000000000E+01 0.  0.
<mgrwt>
<rscale>  0 0.12499964E+03</rscale>
<asrwt>0</asrwt>
<pdfrwt beam="2">  1        4 0.60120850E-02 0.12499964E+03</pdfrwt>
<pdfrwt beam="1">  1       -4 0.15378207E-01 0.12499964E+03</pdfrwt>
<totfact> 0.10153668E+04</totfact>
</mgrwt>
</event>
<event>
 5    1  0.3331626E-002  0.1250002E+03  0.7818608E-02  0.1235069E+00
          4   -1    0    0  501    0  0.00000000000E+00  0.00000000000E+00  0.54942155066E+02  0.54956831271E+02  0.12700000000E+01 0. -1.
         -4   -1    0    0    0  501 -0.00000000000E+00 -0.00000000000E+00 -0.71067927084E+02  0.71079273772E+02  0.12700000000E+01 0. -1.
         25    2    1    2    0    0  0.00000000000E+00  0.00000000000E+00 -0.16125772017E+02  0.12603610504E+03  0.12500023700E+03 0.  0.
    9000005    1    3    3    0    0 -0.31878309236E+02  0.53193445414E+02 -0.28562845830E+00  0.62022986210E+02  0.10000000000E+01 0.  0.
    9000005    1    3    3    0    0  0.31878309236E+02 -0.53193445414E+02 -0.15840143559E+02  0.64013118833E+02  0.10000000000E+01 0.  0.
<mgrwt>
<rscale>  0 0.12500024E+03</rscale>
<asrwt>0</asrwt>
<pdfrwt beam="1">  1        4 0.84546410E-02 0.12500024E+03</pdfrwt>
<pdfrwt beam="2">  1       -4 0.10935529E-01 0.12500024E+03</pdfrwt>
<totfact> 0.10430110E+04</totfact>
</mgrwt>
</event>
<event>
 5    1  0.3331626E-002  0.1250003E+03  0.7818608E-02  0.1235069E+00
          4   -1    0    0  501    0  0.00000000000E+00  0.00000000000E+00  0.20618291362E+02  0.20657367661E+02  0.12700000000E+01 0.  1.
         -4   -1    0    0    0  501 -0.00000000000E+00 -0.00000000000E+00 -0.18923604442E+03  0.18924030598E+03  0.12700000000E+01 0.  1.
         25    2    1    2    0    0  0.00000000000E+00  0.00000000000E+00 -0.16861775306E+03  0.20989767364E+03  0.12500034702E+03 0.  0.
    9000005    1    3    3    0    0 -0.18668046965E+01 -0.77911437016E+01  0.19760596303E+02  0.21346382509E+02  0.10000000000E+01 0.  0.
    9000005    1    3    3    0    0  0.18668046965E+01  0.77911437016E+01 -0.18837834936E+03  0.18855129113E+03  0.10000000000E+01 0.  0.
<mgrwt>
<rscale>  0 0.12500035E+03</rscale>
<asrwt>0</asrwt>
<pdfrwt beam="1">  1        4 0.31753786E-02 0.12500035E+03</pdfrwt>
<pdfrwt beam="2">  1       -4 0.29116570E-01 0.12500035E+03</pdfrwt>
<totfact> 0.88491909E+03</totfact>
</mgrwt>
</event>
<event>
 5    1  0.3331626E-002  0.1250185E+03  0.7818608E-02  0.1235040E+00
         -4   -1    0    0    0  501 -0.00000000000E+00  0.00000000000E+00  0.13392043377E+02  0.13452127185E+02  0.12700000000E+01 0.  1.
          4   -1    0    0  501    0  0.00000000000E+00 -0.00000000000E+00 -0.29105629444E+03  0.29105906519E+03  0.12700000000E+01 0.  1.
         25    2    1    2    0    0  0.00000000000E+00  0.00000000000E+00 -0.27766425106E+03  0.30451119238E+03  0.12501851850E+03 0.  0.
    9000005    1    3    3    0    0 -0.26097459714E+02  0.11215545873E+02 -0.32265182732E+01  0.28605529062E+02  0.10000000000E+01 0.  0.
    9000005    1    3    3    0    0  0.26097459714E+02 -0.11215545873E+02 -0.27443773279E+03  0.27590566331E+03  0.10000000000E+01 0.  0.
<mgrwt>
<rscale>  0 0.12501852E+03</rscale>
<asrwt>0</asrwt>
<pdfrwt beam="2">  1        4 0.44782721E-01 0.12501852E+03</pdfrwt>
<pdfrwt beam="1">  1       -4 0.20651496E-02 0.12501852E+03</pdfrwt>
<totfact> 0.75005597E+03</totfact>
</mgrwt>
</event>
<event>
 4    1  0.3331626E-002  0.1254025E+03  0.7818608E-02  0.1234442E+00
          4   -1    0    0  501    0  0.00000000000E+00  0.00000000000E+00  0.22740478232E+03  0.22740832861E+03  0.12700000000E+01 0.  1.
         -4   -1    0    0    0  501 -0.00000000000E+00 -0.00000000000E+00 -0.17261312162E+02  0.17307969192E+02  0.12700000000E+01 0.  1.
    9000005    1    1    2    0    0  0.54133229240E+02  0.54830937459E+01  0.16584845170E+03  0.17454850259E+03  0.10000000000E+01 0.  0.
    9000005    1    1    2    0    0 -0.54133229240E+02 -0.54830937459E+01  0.44295018460E+02  0.70167795216E+02  0.10000000000E+01 0.  0.
<mgrwt>
<rscale>  0 0.12540251E+03</rscale>
<asrwt>0</asrwt>
<pdfrwt beam="1">  1        4 0.34989210E-01 0.12540251E+03</pdfrwt>
<pdfrwt beam="2">  1       -4 0.26594485E-02 0.12540251E+03</pdfrwt>
<totfact> 0.82358912E+03</totfact>
</mgrwt>
</event>
<event>
 5    1  0.3331626E-002  0.1249986E+03  0.7818608E-02  0.1235072E+00
         -4   -1    0    0    0  501 -0.00000000000E+00  0.00000000000E+00  0.93892202438E+02  0.93900791150E+02  0.12700000000E+01 0. -1.
          4   -1    0    0  501    0  0.00000000000E+00 -0.00000000000E+00 -0.41582412473E+02  0.41601801969E+02  0.12700000000E+01 0. -1.
         25    2    1    2    0    0  0.00000000000E+00  0.00000000000E+00  0.52309789965E+02  0.13550259312E+03  0.12499855445E+03 0.  0.
    9000005    1    3    3    0    0 -0.33986826809E+02 -0.23753943477E+02 -0.24526477308E+02  0.48186121616E+02  0.10000000000E+01 0.  0.
    9000005    1    3    3    0    0  0.33986826809E+02  0.23753943477E+02  0.76836267273E+02  0.87316471503E+02  0.10000000000E+01 0.  0.
<mgrwt>
<rscale>  0 0.12499855E+03</rscale>
<asrwt>0</asrwt>
<pdfrwt beam="2">  1        4 0.63994465E-02 0.12499855E+03</pdfrwt>
<pdfrwt beam="1">  1       -4 0.14447106E-01 0.12499855E+03</pdfrwt>
<totfact> 0.10227822E+04</totfact>
</mgrwt>
</event>
<event>
 5    1  0.3331626E-002  0.1249982E+03  0.7818608E-02  0.1235072E+00
          4   -1    0    0  501    0  0.00000000000E+00  0.00000000000E+00  0.49740668948E+02  0.49756879398E+02  0.12700000000E+01 0.  1.
         -4   -1    0    0    0  501 -0.00000000000E+00 -0.00000000000E+00 -0.78495944229E+02  0.78506217336E+02  0.12700000000E+01 0.  1.
         25    2    1    2    0    0  0.00000000000E+00  0.00000000000E+00 -0.28755275281E+02  0.12826309673E+03  0.12499822450E+03 0.  0.
    9000005    1    3    3    0    0 -0.62415962268E+02 -0.21629980464E+01 -0.12151141805E+02  0.63632390758E+02  0.10000000000E+01 0.  0.
    9000005    1    3    3    0    0  0.62415962268E+02  0.21629980464E+01 -0.16604133476E+02  0.64630705976E+02  0.10000000000E+01 0.  0.
<mgrwt>
<rscale>  0 0.12499822E+03</rscale>
<asrwt>0</asrwt>
<pdfrwt beam="1">  1        4 0.76544478E-02 0.12499822E+03</pdfrwt>
<pdfrwt beam="2">  1       -4 0.12078336E-01 0.12499822E+03</pdfrwt>
<totfact> 0.10382226E+04</totfact>
</mgrwt>
</event>
<event>
 5    1  0.3331626E-002  0.1249990E+03  0.7818608E-02  0.1235071E+00
          4   -1    0    0  501    0  0.00000000000E+00  0.00000000000E+00  0.65017452043E+01  0.66246200421E+01  0.12700000000E+01 0.  1.
         -4   -1    0    0    0  501 -0.00000000000E+00 -0.00000000000E+00 -0.59504270393E+03  0.59504405921E+03  0.12700000000E+01 0.  1.
         25    2    1    2    0    0  0.00000000000E+00  0.00000000000E+00 -0.58854095873E+03  0.60166867925E+03  0.12499895797E+03 0.  0.
    9000005    1    3    3    0    0 -0.60488655058E+02  0.15460018511E+02 -0.30727136395E+03  0.31355155983E+03  0.10000000000E+01 0.  0.
    9000005    1    3    3    0    0  0.60488655058E+02 -0.15460018511E+02 -0.28126959477E+03  0.28811711943E+03  0.10000000000E+01 0.  0.
<mgrwt>
<rscale>  0 0.12499896E+03</rscale>
<asrwt>0</asrwt>
<pdfrwt beam="1">  1        4 0.10098251E-02 0.12499896E+03</pdfrwt>
<pdfrwt beam="2">  1       -4 0.91554545E-01 0.12499896E+03</pdfrwt>
<totfact> 0.48763579E+03</totfact>
</mgrwt>
</event>
<event>
 5    1  0.3331626E-002  0.1249964E+03  0.7818608E-02  0.1235075E+00
          4   -1    0    0  501    0  0.00000000000E+00  0.00000000000E+00  0.45856898319E+02  0.45874481179E+02  0.12700000000E+01 0. -1.
         -4   -1    0    0    0  501 -0.00000000000E+00 -0.00000000000E+00 -0.85139883492E+02  0.85149355024E+02  0.12700000000E+01 0. -1.
         25    2    1    2    0    0  0.00000000000E+00  0.00000000000E+00 -0.39282985173E+02  0.13102383620E+03  0.12499637086E+03 0.  0.
    9000005    1    3    3    0    0 -0.36228853007E+02  0.32575903881E+02 -0.60660353714E+02  0.77810011030E+02  0.10000000000E+01 0.  0.
    9000005    1    3    3    0    0  0.36228853007E+02 -0.32575903881E+02  0.21377368541E+02  0.53213825173E+02  0.10000000000E+01 0.  0.
<mgrwt>
<rscale>  0 0.12499637E+03</rscale>
<asrwt>0</asrwt>
<pdfrwt beam="1">  1        4 0.70569885E-02 0.12499637E+03</pdfrwt>
<pdfrwt beam="2">  1       -4 0.13100525E-01 0.12499637E+03</pdfrwt>
<totfact> 0.10323424E+04</totfact>
</mgrwt>
</event>
<event>
 5    1  0.3331626E-002  0.1249987E+03  0.7818608E-02  0.1235071E+00
          4   -1    0    0  501    0  0.00000000000E+00  0.00000000000E+00  0.31886845109E+03  0.31887098018E+03  0.12700000000E+01 0. -1.
         -4   -1    0    0    0  501 -0.00000000000E+00 -0.00000000000E+00 -0.12214603462E+02  0.12280449411E+02  0.12700000000E+01 0. -1.
         25    2    1    2    0    0  0.00000000000E+00  0.00000000000E+00  0.30665384763E+03  0.33115142959E+03  0.12499874821E+03 0.  0.
    9000005    1    3    3    0    0  0.38071157534E+02  0.45208815471E+02  0.99558374110E+02  0.11578479990E+03  0.10000000000E+01 0.  0.
    9000005    1    3    3    0    0 -0.38071157534E+02 -0.45208815471E+02  0.20709547352E+03  0.21536662969E+03  0.10000000000E+01 0.  0.
<mgrwt>
<rscale>  0 0.12499875E+03</rscale>
<asrwt>0</asrwt>
<pdfrwt beam="1">  1        4 0.49061950E-01 0.12499875E+03</pdfrwt>
<pdfrwt beam="2">  1       -4 0.18844292E-02 0.12499875E+03</pdfrwt>
<totfact> 0.71851137E+03</totfact>
</mgrwt>
</event>
<event>
 5    1  0.3331626E-002  0.1249985E+03  0.7818608E-02  0.1235072E+00
          4   -1    0    0  501    0  0.00000000000E+00  0.00000000000E+00  0.13730279767E+03  0.13730867106E+03  0.12700000000E+01 0. -1.
         -4   -1    0    0    0  501 -0.00000000000E+00 -0.00000000000E+00 -0.28428568277E+02  0.28456921728E+02  0.12700000000E+01 0. -1.
         25    2    1    2    0    0  0.00000000000E+00  0.00000000000E+00  0.10887422939E+03  0.16576559279E+03  0.12499853570E+03 0.  0.
    9000005    1    3    3    0    0 -0.42178379272E+02  0.25540452577E+02  0.35259679137E+01  0.49444543133E+02  0.10000000000E+01 0.  0.
    9000005    1    3    3    0    0  0.42178379272E+02 -0.25540452577E+02  0.10534826148E+03  0.11632104965E+03  0.10000000000E+01 0.  0.
<mgrwt>
<rscale>  0 0.12499854E+03</rscale>
<asrwt>0</asrwt>
<pdfrwt beam="1">  1        4 0.21126140E-01 0.12499854E+03</pdfrwt>
<pdfrwt beam="2">  1       -4 0.43762588E-02 0.12499854E+03</pdfrwt>
<totfact> 0.96245763E+03</totfact>
</mgrwt>
</event>
