<event>
 5    1  0.3199195E-002  0.1249982E+03  0.7818608E-02  0.1235072E+00
          4   -1    0    0  501    0  0.00000000000E+00  0.00000000000E+00  0.87768463422E+03  0.87768555306E+03  0.12700000000E+01 0. -1.
         -4   -1    0    0    0  501 -0.00000000000E+00 -0.00000000000E+00 -0.43589627372E+01  0.45402044166E+01  0.12700000000E+01 0. -1.
         25    2    1    2    0    0  0.00000000000E+00  0.00000000000E+00  0.87332567148E+03  0.88222575747E+03  0.12499823471E+03 0.  0.
    9000005    1    3    3    0    0  0.55830973439E+02  0.13614099482E+02  0.60993382786E+03  0.61263587527E+03  0.10000000000E+01 0.  0.
    9000005    1    3    3    0    0 -0.55830973439E+02 -0.13614099482E+02  0.26339184362E+03  0.26958988220E+03  0.10000000000E+01 0.  0.
<mgrwt>
<rscale>  0 0.12499823E+03</rscale>
<asrwt>0</asrwt>
<pdfrwt beam="1">  1        4 0.13504243E+00 0.12499823E+03</pdfrwt>
<pdfrwt beam="2">  1       -4 0.68462193E-03 0.12499823E+03</pdfrwt>
<totfact> 0.34844992E+03</totfact>
</mgrwt>
</event>
<event>
 5    1  0.3199195E-002  0.1250000E+03  0.7818608E-02  0.1235069E+00
         -4   -1    0    0    0  501 -0.00000000000E+00  0.00000000000E+00  0.26179002650E+02  0.26209789770E+02  0.12700000000E+01 0.  1.
          4   -1    0    0  501    0  0.00000000000E+00 -0.00000000000E+00 -0.14909189784E+03  0.14909730682E+03  0.12700000000E+01 0.  1.
         25    2    1    2    0    0  0.00000000000E+00  0.00000000000E+00 -0.12291289519E+03  0.17530709659E+03  0.12499999325E+03 0.  0.
    9000005    1    3    3    0    0  0.30563396001E+02  0.30523006619E+02  0.18792625110E+01  0.43247043087E+02  0.10000000000E+01 0.  0.
    9000005    1    3    3    0    0 -0.30563396001E+02 -0.30523006619E+02 -0.12479215770E+03  0.13206005351E+03  0.10000000000E+01 0.  0.
<mgrwt>
<rscale>  0 0.12499999E+03</rscale>
<asrwt>0</asrwt>
<pdfrwt beam="2">  1        4 0.22939999E-01 0.12499999E+03</pdfrwt>
<pdfrwt beam="1">  1       -4 0.40303233E-02 0.12499999E+03</pdfrwt>
<totfact> 0.94468641E+03</totfact>
</mgrwt>
</event>
<event>
 5    1  0.3199195E-002  0.1250187E+03  0.7818608E-02  0.1235040E+00
         -4   -1    0    0    0  501 -0.00000000000E+00  0.00000000000E+00  0.45277098767E+02  0.45294906698E+02  0.12700000000E+01 0. -1.
          4   -1    0    0  501    0  0.00000000000E+00 -0.00000000000E+00 -0.86260732481E+02  0.86270080956E+02  0.12700000000E+01 0. -1.
         25    2    1    2    0    0  0.00000000000E+00  0.00000000000E+00 -0.40983633714E+02  0.13156498765E+03  0.12501874957E+03 0.  0.
    9000005    1    3    3    0    0  0.48139826192E+02  0.34592993808E+02 -0.41335596029E+02  0.72275511658E+02  0.10000000000E+01 0.  0.
    9000005    1    3    3    0    0 -0.48139826192E+02 -0.34592993808E+02  0.35196231438E+00  0.59289475996E+02  0.10000000000E+01 0.  0.
<mgrwt>
<rscale>  0 0.12501875E+03</rscale>
<asrwt>0</asrwt>
<pdfrwt beam="2">  1        4 0.13272971E-01 0.12501875E+03</pdfrwt>
<pdfrwt beam="1">  1       -4 0.69677965E-02 0.12501875E+03</pdfrwt>
<totfact> 0.10306632E+04</totfact>
</mgrwt>
</event>
<event>
 5    1  0.3199195E-002  0.1249982E+03  0.7818608E-02  0.1235072E+00
         -4   -1    0    0    0  501 -0.00000000000E+00  0.00000000000E+00  0.99226110334E+02  0.99234237398E+02  0.12700000000E+01 0.  1.
          4   -1    0    0  501    0  0.00000000000E+00 -0.00000000000E+00 -0.39346055289E+02  0.39366546290E+02  0.12700000000E+01 0.  1.
         25    2    1    2    0    0  0.00000000000E+00  0.00000000000E+00  0.59880055044E+02  0.13860078369E+03  0.12499822497E+03 0.  0.
    9000005    1    3    3    0    0  0.47320369260E+02  0.38133826023E+01 -0.15119364508E+02  0.49833266167E+02  0.10000000000E+01 0.  0.
    9000005    1    3    3    0    0 -0.47320369260E+02 -0.38133826023E+01  0.74999419552E+02  0.88767517521E+02  0.10000000000E+01 0.  0.
<mgrwt>
<rscale>  0 0.12499822E+03</rscale>
<asrwt>0</asrwt>
<pdfrwt beam="2">  1        4 0.60554406E-02 0.12499822E+03</pdfrwt>
<pdfrwt beam="1">  1       -4 0.15267757E-01 0.12499822E+03</pdfrwt>
<totfact> 0.10163074E+04</totfact>
</mgrwt>
</event>
<event>
 5    1  0.3199195E-002  0.1249843E+03  0.7818608E-02  0.1235094E+00
          4   -1    0    0  501    0  0.00000000000E+00  0.00000000000E+00  0.48406209737E+03  0.48406376338E+03  0.12700000000E+01 0.  1.
         -4   -1    0    0    0  501 -0.00000000000E+00 -0.00000000000E+00 -0.80160366144E+01  0.81160176813E+01  0.12700000000E+01 0.  1.
         25    2    1    2    0    0  0.00000000000E+00  0.00000000000E+00  0.47604606076E+03  0.49217978106E+03  0.12498433869E+03 0.  0.
    9000005    1    3    3    0    0  0.58991762929E+02 -0.17120703268E+02  0.19292990343E+03  0.20247492243E+03  0.10000000000E+01 0.  0.
    9000005    1    3    3    0    0 -0.58991762929E+02  0.17120703268E+02  0.28311615733E+03  0.28970485863E+03  0.10000000000E+01 0.  0.
<mgrwt>
<rscale>  0 0.12498434E+03</rscale>
<asrwt>0</asrwt>
<pdfrwt beam="1">  1        4 0.74478931E-01 0.12498434E+03</pdfrwt>
<pdfrwt beam="2">  1       -4 0.12410551E-02 0.12498434E+03</pdfrwt>
<totfact> 0.56495711E+03</totfact>
</mgrwt>
</event>
<event>
 5    1  0.3199195E-002  0.1249995E+03  0.7818608E-02  0.1235070E+00
          4   -1    0    0  501    0  0.00000000000E+00  0.00000000000E+00  0.18185169266E+04  0.18185173701E+04  0.12700000000E+01 0.  1.
         -4   -1    0    0    0  501 -0.00000000000E+00 -0.00000000000E+00 -0.19598225755E+01  0.23353382041E+01  0.12700000000E+01 0.  1.
         25    2    1    2    0    0  0.00000000000E+00  0.00000000000E+00  0.18165571041E+04  0.18208527083E+04  0.12499949213E+03 0.  0.
    9000005    1    3    3    0    0 -0.62064226308E+02 -0.70876801637E+01  0.93357154335E+03  0.93565967635E+03  0.10000000000E+01 0.  0.
    9000005    1    3    3    0    0  0.62064226308E+02  0.70876801637E+01  0.88298556070E+03  0.88519303194E+03  0.10000000000E+01 0.  0.
<mgrwt>
<rscale>  0 0.12499949E+03</rscale>
<asrwt>0</asrwt>
<pdfrwt beam="1">  1        4 0.27980030E+00 0.12499949E+03</pdfrwt>
<pdfrwt beam="2">  1       -4 0.33043163E-03 0.12499949E+03</pdfrwt>
<totfact> 0.12385145E+03</totfact>
</mgrwt>
</event>
<event>
 5    1  0.3199195E-002  0.1250002E+03  0.7818608E-02  0.1235069E+00
         -4   -1    0    0    0  501 -0.00000000000E+00  0.00000000000E+00  0.59347421595E+02  0.59361008667E+02  0.12700000000E+01 0. -1.
          4   -1    0    0  501    0  0.00000000000E+00 -0.00000000000E+00 -0.65792972650E+02  0.65805228896E+02  0.12700000000E+01 0. -1.
         25    2    1    2    0    0  0.00000000000E+00  0.00000000000E+00 -0.64455510543E+01  0.12516623756E+03  0.12500016759E+03 0.  0.
    9000005    1    3    3    0    0 -0.49766270217E+02  0.36235937269E+02  0.75402569850E+01  0.62028866478E+02  0.10000000000E+01 0.  0.
    9000005    1    3    3    0    0  0.49766270217E+02 -0.36235937269E+02 -0.13985808039E+02  0.63137371086E+02  0.10000000000E+01 0.  0.
<mgrwt>
<rscale>  0 0.12500017E+03</rscale>
<asrwt>0</asrwt>
<pdfrwt beam="2">  1        4 0.10123984E-01 0.12500017E+03</pdfrwt>
<pdfrwt beam="1">  1       -4 0.91323605E-02 0.12500017E+03</pdfrwt>
<totfact> 0.10449213E+04</totfact>
</mgrwt>
</event>
<event>
 5    1  0.3199195E-002  0.1250007E+03  0.7818608E-02  0.1235068E+00
          4   -1    0    0  501    0  0.00000000000E+00  0.00000000000E+00  0.58216605556E+03  0.58216744082E+03  0.12700000000E+01 0.  1.
         -4   -1    0    0    0  501 -0.00000000000E+00 -0.00000000000E+00 -0.66484263789E+01  0.67686389559E+01  0.12700000000E+01 0.  1.
         25    2    1    2    0    0  0.00000000000E+00  0.00000000000E+00  0.57551762918E+03  0.58893607978E+03  0.12500065823E+03 0.  0.
    9000005    1    3    3    0    0  0.22677653882E+01  0.56190522658E+02  0.41616444708E+03  0.41994804989E+03  0.10000000000E+01 0.  0.
    9000005    1    3    3    0    0 -0.22677653882E+01 -0.56190522658E+02  0.15935318211E+03  0.16898802989E+03  0.10000000000E+01 0.  0.
<mgrwt>
<rscale>  0 0.12500066E+03</rscale>
<asrwt>0</asrwt>
<pdfrwt beam="1">  1        4 0.89573397E-01 0.12500066E+03</pdfrwt>
<pdfrwt beam="2">  1       -4 0.10321881E-02 0.12500066E+03</pdfrwt>
<totfact> 0.49572798E+03</totfact>
</mgrwt>
</event>
<event>
 5    1  0.3199195E-002  0.1249850E+03  0.7818608E-02  0.1235093E+00
          4   -1    0    0  501    0  0.00000000000E+00  0.00000000000E+00  0.10593819737E+04  0.10593827350E+04  0.12700000000E+01 0. -1.
         -4   -1    0    0    0  501 -0.00000000000E+00 -0.00000000000E+00 -0.35762404475E+01  0.37950488454E+01  0.12700000000E+01 0. -1.
         25    2    1    2    0    0  0.00000000000E+00  0.00000000000E+00  0.10558057333E+04  0.10631777838E+04  0.12498501341E+03 0.  0.
    9000005    1    3    3    0    0 -0.59230492419E+02 -0.19459551126E+02  0.56337384528E+03  0.56681391560E+03  0.10000000000E+01 0.  0.
    9000005    1    3    3    0    0  0.59230492419E+02  0.19459551126E+02  0.49243188800E+03  0.49636386823E+03  0.10000000000E+01 0.  0.
<mgrwt>
<rscale>  0 0.12498501E+03</rscale>
<asrwt>0</asrwt>
<pdfrwt beam="1">  1        4 0.16299897E+00 0.12498501E+03</pdfrwt>
<pdfrwt beam="2">  1       -4 0.56707998E-03 0.12498501E+03</pdfrwt>
<totfact> 0.28596148E+03</totfact>
</mgrwt>
</event>
<event>
 5    1  0.3199195E-002  0.1250010E+03  0.7818608E-02  0.1235068E+00
          4   -1    0    0  501    0  0.00000000000E+00  0.00000000000E+00  0.35761057978E+02  0.35783601938E+02  0.12700000000E+01 0. -1.
         -4   -1    0    0    0  501 -0.00000000000E+00 -0.00000000000E+00 -0.10917307843E+03  0.10918046507E+03  0.12700000000E+01 0. -1.
         25    2    1    2    0    0  0.00000000000E+00  0.00000000000E+00 -0.73412020451E+02  0.14496406701E+03  0.12500102391E+03 0.  0.
    9000005    1    3    3    0    0  0.48318404805E+01  0.48725116185E+02 -0.81738196988E+02  0.95287021553E+02  0.10000000000E+01 0.  0.
    9000005    1    3    3    0    0 -0.48318404805E+01 -0.48725116185E+02  0.83261765365E+01  0.49677045458E+02  0.10000000000E+01 0.  0.
<mgrwt>
<rscale>  0 0.12500102E+03</rscale>
<asrwt>0</asrwt>
<pdfrwt beam="1">  1        4 0.55040037E-02 0.12500102E+03</pdfrwt>
<pdfrwt beam="2">  1       -4 0.16798160E-01 0.12500102E+03</pdfrwt>
<totfact> 0.10031487E+04</totfact>
</mgrwt>
</event>
<event>
 5    1  0.3199195E-002  0.1250051E+03  0.7818608E-02  0.1235061E+00
         -4   -1    0    0    0  501 -0.00000000000E+00  0.00000000000E+00  0.74950406293E+01  0.76018770073E+01  0.12700000000E+01 0. -1.
          4   -1    0    0  501    0  0.00000000000E+00 -0.00000000000E+00 -0.51742467178E+03  0.51742623036E+03  0.12700000000E+01 0. -1.
         25    2    1    2    0    0  0.00000000000E+00  0.00000000000E+00 -0.50992963115E+03  0.52502810737E+03  0.12500513910E+03 0.  0.
    9000005    1    3    3    0    0  0.27199824660E+02  0.38160867467E+02 -0.42862003179E+03  0.43117538650E+03  0.10000000000E+01 0.  0.
    9000005    1    3    3    0    0 -0.27199824660E+02 -0.38160867467E+02 -0.81309599360E+02  0.93852720874E+02  0.10000000000E+01 0.  0.
<mgrwt>
<rscale>  0 0.12500514E+03</rscale>
<asrwt>0</asrwt>
<pdfrwt beam="2">  1        4 0.79612106E-01 0.12500514E+03</pdfrwt>
<pdfrwt beam="1">  1       -4 0.11614217E-02 0.12500514E+03</pdfrwt>
<totfact> 0.53967390E+03</totfact>
</mgrwt>
</event>
<event>
 5    1  0.3199195E-002  0.1249958E+03  0.7818608E-02  0.1235076E+00
          4   -1    0    0  501    0  0.00000000000E+00  0.00000000000E+00  0.18380360864E+02  0.18424184255E+02  0.12700000000E+01 0.  1.
         -4   -1    0    0    0  501 -0.00000000000E+00 -0.00000000000E+00 -0.21221013619E+03  0.21221393640E+03  0.12700000000E+01 0.  1.
         25    2    1    2    0    0  0.00000000000E+00  0.00000000000E+00 -0.19382977533E+03  0.23063812066E+03  0.12499584351E+03 0.  0.
    9000005    1    3    3    0    0 -0.14207043399E+02  0.58612485418E+02 -0.66723619387E+02  0.89946122280E+02  0.10000000000E+01 0.  0.
    9000005    1    3    3    0    0  0.14207043399E+02 -0.58612485418E+02 -0.12710615594E+03  0.14069199838E+03  0.10000000000E+01 0.  0.
<mgrwt>
<rscale>  0 0.12499584E+03</rscale>
<asrwt>0</asrwt>
<pdfrwt beam="1">  1        4 0.28314113E-02 0.12499584E+03</pdfrwt>
<pdfrwt beam="2">  1       -4 0.32651375E-01 0.12499584E+03</pdfrwt>
<totfact> 0.85219612E+03</totfact>
</mgrwt>
</event>
<event>
 5    1  0.3199195E-002  0.1250019E+03  0.7818608E-02  0.1235066E+00
          4   -1    0    0  501    0  0.00000000000E+00  0.00000000000E+00  0.23722549080E+02  0.23756519838E+02  0.12700000000E+01 0.  1.
         -4   -1    0    0    0  501 -0.00000000000E+00 -0.00000000000E+00 -0.16451485458E+03  0.16451975649E+03  0.12700000000E+01 0.  1.
         25    2    1    2    0    0  0.00000000000E+00  0.00000000000E+00 -0.14079230550E+03  0.18827627633E+03  0.12500193175E+03 0.  0.
    9000005    1    3    3    0    0  0.15039968307E+02 -0.24517722422E+02  0.13167383081E+02  0.31649634068E+02  0.10000000000E+01 0.  0.
    9000005    1    3    3    0    0 -0.15039968307E+02  0.24517722422E+02 -0.15395968858E+03  0.15662664226E+03  0.10000000000E+01 0.  0.
<mgrwt>
<rscale>  0 0.12500193E+03</rscale>
<asrwt>0</asrwt>
<pdfrwt beam="1">  1        4 0.36526132E-02 0.12500193E+03</pdfrwt>
<pdfrwt beam="2">  1       -4 0.25312967E-01 0.12500193E+03</pdfrwt>
<totfact> 0.92144117E+03</totfact>
</mgrwt>
</event>
<event>
 5    1  0.3199195E-002  0.1249985E+03  0.7818608E-02  0.1235072E+00
          4   -1    0    0  501    0  0.00000000000E+00  0.00000000000E+00  0.37507262149E+01  0.39599049407E+01  0.12700000000E+01 0. -1.
         -4   -1    0    0    0  501 -0.00000000000E+00 -0.00000000000E+00 -0.10129768491E+04  0.10129776452E+04  0.12700000000E+01 0. -1.
         25    2    1    2    0    0  0.00000000000E+00  0.00000000000E+00 -0.10092261229E+04  0.10169375501E+04  0.12499845523E+03 0.  0.
    9000005    1    3    3    0    0  0.31888348666E+02  0.14117008010E+02 -0.82737102690E+02  0.89791897504E+02  0.10000000000E+01 0.  0.
    9000005    1    3    3    0    0 -0.31888348666E+02 -0.14117008010E+02 -0.92648902018E+03  0.92714565264E+03  0.10000000000E+01 0.  0.
<mgrwt>
<rscale>  0 0.12499846E+03</rscale>
<asrwt>0</asrwt>
<pdfrwt beam="1">  1        4 0.59318752E-03 0.12499846E+03</pdfrwt>
<pdfrwt beam="2">  1       -4 0.15585853E+00 0.12499846E+03</pdfrwt>
<totfact> 0.30051007E+03</totfact>
</mgrwt>
</event>
<event>
 5    1  0.3199195E-002  0.1250036E+03  0.7818608E-02  0.1235064E+00
          4   -1    0    0  501    0  0.00000000000E+00  0.00000000000E+00  0.65080955137E+02  0.65093345447E+02  0.12700000000E+01 0. -1.
         -4   -1    0    0    0  501 -0.00000000000E+00 -0.00000000000E+00 -0.60000036506E+02  0.60013475826E+02  0.12700000000E+01 0. -1.
         25    2    1    2    0    0  0.00000000000E+00  0.00000000000E+00  0.50809186308E+01  0.12510682127E+03  0.12500360393E+03 0.  0.
    9000005    1    3    3    0    0 -0.54036508632E+02  0.22512688754E+02  0.24437963985E+02  0.63442726169E+02  0.10000000000E+01 0.  0.
    9000005    1    3    3    0    0  0.54036508632E+02 -0.22512688754E+02 -0.19357045354E+02  0.61664095103E+02  0.10000000000E+01 0.  0.
<mgrwt>
<rscale>  0 0.12500360E+03</rscale>
<asrwt>0</asrwt>
<pdfrwt beam="1">  1        4 0.10014441E-01 0.12500360E+03</pdfrwt>
<pdfrwt beam="2">  1       -4 0.92327618E-02 0.12500360E+03</pdfrwt>
<totfact> 0.10449692E+04</totfact>
</mgrwt>
</event>
<event>
 5    1  0.3199195E-002  0.1249653E+03  0.7818608E-02  0.1235124E+00
         -4   -1    0    0    0  501 -0.00000000000E+00  0.00000000000E+00  0.22429466004E+03  0.22429825550E+03  0.12700000000E+01 0.  1.
          4   -1    0    0  501    0  0.00000000000E+00 -0.00000000000E+00 -0.17379131838E+02  0.17425473406E+02  0.12700000000E+01 0.  1.
         25    2    1    2    0    0  0.00000000000E+00  0.00000000000E+00  0.20691552820E+03  0.24172372891E+03  0.12496529641E+03 0.  0.
    9000005    1    3    3    0    0  0.45121734797E+02 -0.12290669383E+01  0.18700634955E+03  0.19237945922E+03  0.10000000000E+01 0.  0.
    9000005    1    3    3    0    0 -0.45121734797E+02  0.12290669383E+01  0.19909178646E+02  0.49344269687E+02  0.10000000000E+01 0.  0.
<mgrwt>
<rscale>  0 0.12496530E+03</rscale>
<asrwt>0</asrwt>
<pdfrwt beam="2">  1        4 0.26775539E-02 0.12496530E+03</pdfrwt>
<pdfrwt beam="1">  1       -4 0.34510711E-01 0.12496530E+03</pdfrwt>
<totfact> 0.83605974E+03</totfact>
</mgrwt>
</event>
<event>
 5    1  0.3199195E-002  0.1249997E+03  0.7818608E-02  0.1235070E+00
          4   -1    0    0  501    0  0.00000000000E+00  0.00000000000E+00  0.22526124675E+02  0.22561896926E+02  0.12700000000E+01 0. -1.
         -4   -1    0    0    0  501 -0.00000000000E+00 -0.00000000000E+00 -0.17323327671E+03  0.17323793193E+03  0.12700000000E+01 0. -1.
         25    2    1    2    0    0  0.00000000000E+00  0.00000000000E+00 -0.15070715203E+03  0.19579982885E+03  0.12499970922E+03 0.  0.
    9000005    1    3    3    0    0  0.55662768068E+02  0.19766759646E+02 -0.43398843285E+02  0.73304352765E+02  0.10000000000E+01 0.  0.
    9000005    1    3    3    0    0 -0.55662768068E+02 -0.19766759646E+02 -0.10730830875E+03  0.12249547609E+03  0.10000000000E+01 0.  0.
<mgrwt>
<rscale>  0 0.12499971E+03</rscale>
<asrwt>0</asrwt>
<pdfrwt beam="1">  1        4 0.34686676E-02 0.12499971E+03</pdfrwt>
<pdfrwt beam="2">  1       -4 0.26654382E-01 0.12499971E+03</pdfrwt>
<totfact> 0.90848433E+03</totfact>
</mgrwt>
</event>
<event>
 5    1  0.3199195E-002  0.1250051E+03  0.7818608E-02  0.1235061E+00
         -4   -1    0    0    0  501 -0.00000000000E+00  0.00000000000E+00  0.16842753858E+02  0.16890567117E+02  0.12700000000E+01 0. -1.
          4   -1    0    0  501    0  0.00000000000E+00 -0.00000000000E+00 -0.23156539109E+03  0.23156887366E+03  0.12700000000E+01 0. -1.
         25    2    1    2    0    0  0.00000000000E+00  0.00000000000E+00 -0.21472263723E+03  0.24845944078E+03  0.12500513099E+03 0.  0.
    9000005    1    3    3    0    0  0.25501599310E+02  0.31505122568E+02 -0.12816458059E+02  0.42522534174E+02  0.10000000000E+01 0.  0.
    9000005    1    3    3    0    0 -0.25501599310E+02 -0.31505122568E+02 -0.20190617917E+03  0.20593690660E+03  0.10000000000E+01 0.  0.
<mgrwt>
<rscale>  0 0.12500513E+03</rscale>
<asrwt>0</asrwt>
<pdfrwt beam="2">  1        4 0.35629388E-01 0.12500513E+03</pdfrwt>
<pdfrwt beam="1">  1       -4 0.25951389E-02 0.12500513E+03</pdfrwt>
<totfact> 0.82543962E+03</totfact>
</mgrwt>
</event>
<event>
 5    1  0.3199195E-002  0.1250013E+03  0.7818608E-02  0.1235067E+00
         -4   -1    0    0    0  501 -0.00000000000E+00  0.00000000000E+00  0.28956482191E+02  0.28984319224E+02  0.12700000000E+01 0.  1.
          4   -1    0    0  501    0  0.00000000000E+00 -0.00000000000E+00 -0.13480790390E+03  0.13481388598E+03  0.12700000000E+01 0.  1.
         25    2    1    2    0    0  0.00000000000E+00  0.00000000000E+00 -0.10585142171E+03  0.16379820521E+03  0.12500131420E+03 0.  0.
    9000005    1    3    3    0    0  0.63142447742E+01 -0.61246120266E+02 -0.38911762939E+02  0.72842859840E+02  0.10000000000E+01 0.  0.
    9000005    1    3    3    0    0 -0.63142447742E+01  0.61246120266E+02 -0.66939658769E+02  0.90955345367E+02  0.10000000000E+01 0.  0.
<mgrwt>
<rscale>  0 0.12500131E+03</rscale>
<asrwt>0</asrwt>
<pdfrwt beam="2">  1        4 0.20742279E-01 0.12500131E+03</pdfrwt>
<pdfrwt beam="1">  1       -4 0.44574450E-02 0.12500131E+03</pdfrwt>
<totfact> 0.96612626E+03</totfact>
</mgrwt>
</event>
<event>
 5    1  0.3199195E-002  0.1249967E+03  0.7818608E-02  0.1235074E+00
          4   -1    0    0  501    0  0.00000000000E+00  0.00000000000E+00  0.13578192749E+02  0.13637456447E+02  0.12700000000E+01 0. -1.
         -4   -1    0    0    0  501 -0.00000000000E+00 -0.00000000000E+00 -0.28698339777E+03  0.28698620785E+03  0.12700000000E+01 0. -1.
         25    2    1    2    0    0  0.00000000000E+00  0.00000000000E+00 -0.27340520502E+03  0.30062366429E+03  0.12499672557E+03 0.  0.
    9000005    1    3    3    0    0  0.41405306490E+02 -0.32620997212E+02 -0.21742486088E+03  0.22372549920E+03  0.10000000000E+01 0.  0.
    9000005    1    3    3    0    0 -0.41405306490E+02  0.32620997212E+02 -0.55980344140E+02  0.76898165093E+02  0.10000000000E+01 0.  0.
<mgrwt>
<rscale>  0 0.12499673E+03</rscale>
<asrwt>0</asrwt>
<pdfrwt beam="1">  1        4 0.20937279E-02 0.12499673E+03</pdfrwt>
<pdfrwt beam="2">  1       -4 0.44156062E-01 0.12499673E+03</pdfrwt>
<totfact> 0.75526166E+03</totfact>
</mgrwt>
</event>
<event>
 5    1  0.3199195E-002  0.1249974E+03  0.7818608E-02  0.1235073E+00
          4   -1    0    0  501    0  0.00000000000E+00  0.00000000000E+00  0.18353718769E+02  0.18397605623E+02  0.12700000000E+01 0.  1.
         -4   -1    0    0    0  501 -0.00000000000E+00 -0.00000000000E+00 -0.21252270960E+03  0.21252650422E+03  0.12700000000E+01 0.  1.
         25    2    1    2    0    0  0.00000000000E+00  0.00000000000E+00 -0.19416899083E+03  0.23092410984E+03  0.12499739000E+03 0.  0.
    9000005    1    3    3    0    0  0.14721394111E+02  0.34071944127E+01  0.14936875549E+02  0.21270605762E+02  0.10000000000E+01 0.  0.
    9000005    1    3    3    0    0 -0.14721394111E+02 -0.34071944127E+01 -0.20910586638E+03  0.20965350408E+03  0.10000000000E+01 0.  0.
<mgrwt>
<rscale>  0 0.12499739E+03</rscale>
<asrwt>0</asrwt>
<pdfrwt beam="1">  1        4 0.28273170E-02 0.12499739E+03</pdfrwt>
<pdfrwt beam="2">  1       -4 0.32699468E-01 0.12499739E+03</pdfrwt>
<totfact> 0.85172861E+03</totfact>
</mgrwt>
</event>
<event>
 5    1  0.3199195E-002  0.1250179E+03  0.7818608E-02  0.1235041E+00
         -4   -1    0    0    0  501 -0.00000000000E+00  0.00000000000E+00  0.44848356180E+03  0.44848535997E+03  0.12700000000E+01 0. -1.
          4   -1    0    0  501    0  0.00000000000E+00 -0.00000000000E+00 -0.86642970632E+01  0.87568797868E+01  0.12700000000E+01 0. -1.
         25    2    1    2    0    0  0.00000000000E+00  0.00000000000E+00  0.43981926474E+03  0.45724223975E+03  0.12501791944E+03 0.  0.
    9000005    1    3    3    0    0  0.28079750908E+02  0.20955405356E+02  0.30613527402E+02  0.46538043412E+02  0.10000000000E+01 0.  0.
    9000005    1    3    3    0    0 -0.28079750908E+02 -0.20955405356E+02  0.40920573733E+03  0.41070419634E+03  0.10000000000E+01 0.  0.
<mgrwt>
<rscale>  0 0.12501792E+03</rscale>
<asrwt>0</asrwt>
<pdfrwt beam="2">  1        4 0.13402287E-02 0.12501792E+03</pdfrwt>
<pdfrwt beam="1">  1       -4 0.69004739E-01 0.12501792E+03</pdfrwt>
<totfact> 0.59318079E+03</totfact>
</mgrwt>
</event>
<event>
 5    1  0.3199195E-002  0.1250015E+03  0.7818608E-02  0.1235067E+00
          4   -1    0    0  501    0  0.00000000000E+00  0.00000000000E+00  0.38609975449E+03  0.38610184319E+03  0.12700000000E+01 0.  1.
         -4   -1    0    0    0  501 -0.00000000000E+00 -0.00000000000E+00 -0.10075461169E+02  0.10155186742E+02  0.12700000000E+01 0.  1.
         25    2    1    2    0    0  0.00000000000E+00  0.00000000000E+00  0.37602429332E+03  0.39625702994E+03  0.12500145841E+03 0.  0.
    9000005    1    3    3    0    0 -0.53924981325E+02 -0.11569926155E+02  0.28116834718E+03  0.28652819453E+03  0.10000000000E+01 0.  0.
    9000005    1    3    3    0    0  0.53924981325E+02  0.11569926155E+02  0.94855946141E+02  0.10972883541E+03  0.10000000000E+01 0.  0.
<mgrwt>
<rscale>  0 0.12500146E+03</rscale>
<asrwt>0</asrwt>
<pdfrwt beam="1">  1        4 0.59406245E-01 0.12500146E+03</pdfrwt>
<pdfrwt beam="2">  1       -4 0.15563646E-02 0.12500146E+03</pdfrwt>
<totfact> 0.64916376E+03</totfact>
</mgrwt>
</event>
<event>
 5    1  0.3199195E-002  0.1250002E+03  0.7818608E-02  0.1235069E+00
         -4   -1    0    0    0  501 -0.00000000000E+00  0.00000000000E+00  0.80484975484E+02  0.80494994743E+02  0.12700000000E+01 0. -1.
          4   -1    0    0  501    0  0.00000000000E+00 -0.00000000000E+00 -0.48512712472E+02  0.48529333103E+02  0.12700000000E+01 0. -1.
         25    2    1    2    0    0  0.00000000000E+00  0.00000000000E+00  0.31972263012E+02  0.12902432785E+03  0.12500020630E+03 0.  0.
    9000005    1    3    3    0    0 -0.42252357513E+02 -0.37370084299E+02  0.43749587971E+02  0.71391955874E+02  0.10000000000E+01 0.  0.
    9000005    1    3    3    0    0  0.42252357513E+02  0.37370084299E+02 -0.11777324958E+02  0.57632371972E+02  0.10000000000E+01 0.  0.
<mgrwt>
<rscale>  0 0.12500021E+03</rscale>
<asrwt>0</asrwt>
<pdfrwt beam="2">  1        4 0.74655435E-02 0.12500021E+03</pdfrwt>
<pdfrwt beam="1">  1       -4 0.12384353E-01 0.12500021E+03</pdfrwt>
<totfact> 0.10365376E+04</totfact>
</mgrwt>
</event>
<event>
 5    1  0.3199195E-002  0.1250025E+03  0.7818608E-02  0.1235065E+00
          4   -1    0    0  501    0  0.00000000000E+00  0.00000000000E+00  0.16775385038E+03  0.16775865766E+03  0.12700000000E+01 0. -1.
         -4   -1    0    0    0  501 -0.00000000000E+00 -0.00000000000E+00 -0.23264069692E+02  0.23298708948E+02  0.12700000000E+01 0. -1.
         25    2    1    2    0    0  0.00000000000E+00  0.00000000000E+00  0.14448978069E+03  0.19105736660E+03  0.12500248241E+03 0.  0.
    9000005    1    3    3    0    0 -0.10374467599E+02 -0.23352068818E+01 -0.21878546001E+02  0.24346530436E+02  0.10000000000E+01 0.  0.
    9000005    1    3    3    0    0  0.10374467599E+02  0.23352068818E+01  0.16636832669E+03  0.16671083617E+03  0.10000000000E+01 0.  0.
<mgrwt>
<rscale>  0 0.12500248E+03</rscale>
<asrwt>0</asrwt>
<pdfrwt beam="1">  1        4 0.25811319E-01 0.12500248E+03</pdfrwt>
<pdfrwt beam="2">  1       -4 0.35821220E-02 0.12500248E+03</pdfrwt>
<totfact> 0.91658564E+03</totfact>
</mgrwt>
</event>
<event>
 5    1  0.3199195E-002  0.1249977E+03  0.7818608E-02  0.1235073E+00
         -4   -1    0    0    0  501 -0.00000000000E+00  0.00000000000E+00  0.97069311427E+02  0.97077619053E+02  0.12700000000E+01 0. -1.
          4   -1    0    0  501    0  0.00000000000E+00 -0.00000000000E+00 -0.40220342836E+02  0.40240388639E+02  0.12700000000E+01 0. -1.
         25    2    1    2    0    0  0.00000000000E+00  0.00000000000E+00  0.56848968591E+02  0.13731800769E+03  0.12499772001E+03 0.  0.
    9000005    1    3    3    0    0 -0.39442129859E+01  0.12998374486E+02 -0.38584260296E+02  0.40917718631E+02  0.10000000000E+01 0.  0.
    9000005    1    3    3    0    0  0.39442129859E+01 -0.12998374486E+02  0.95433228887E+02  0.96400289061E+02  0.10000000000E+01 0.  0.
<mgrwt>
<rscale>  0 0.12499772E+03</rscale>
<asrwt>0</asrwt>
<pdfrwt beam="2">  1        4 0.61899262E-02 0.12499772E+03</pdfrwt>
<pdfrwt beam="1">  1       -4 0.14935921E-01 0.12499772E+03</pdfrwt>
<totfact> 0.10189965E+04</totfact>
</mgrwt>
</event>
<event>
 5    1  0.3199195E-002  0.1250003E+03  0.7818608E-02  0.1235069E+00
          4   -1    0    0  501    0  0.00000000000E+00  0.00000000000E+00  0.26267332401E+03  0.26267639415E+03  0.12700000000E+01 0.  1.
         -4   -1    0    0    0  501 -0.00000000000E+00 -0.00000000000E+00 -0.14840925485E+02  0.14895165969E+02  0.12700000000E+01 0.  1.
         25    2    1    2    0    0  0.00000000000E+00  0.00000000000E+00  0.24783239852E+03  0.27757156012E+03  0.12500029292E+03 0.  0.
    9000005    1    3    3    0    0 -0.18841472305E+02 -0.22377702337E+02  0.12913015601E+01  0.29298977801E+02  0.10000000000E+01 0.  0.
    9000005    1    3    3    0    0  0.18841472305E+02  0.22377702337E+02  0.24654109696E+03  0.24827258232E+03  0.10000000000E+01 0.  0.
<mgrwt>
<rscale>  0 0.12500029E+03</rscale>
<asrwt>0</asrwt>
<pdfrwt beam="1">  1        4 0.40415688E-01 0.12500029E+03</pdfrwt>
<pdfrwt beam="2">  1       -4 0.22876279E-02 0.12500029E+03</pdfrwt>
<totfact> 0.78500693E+03</totfact>
</mgrwt>
</event>
<event>
 5    1  0.3199195E-002  0.1250007E+03  0.7818608E-02  0.1235068E+00
         -4   -1    0    0    0  501 -0.00000000000E+00  0.00000000000E+00  0.74095820403E+02  0.74106703483E+02  0.12700000000E+01 0. -1.
          4   -1    0    0  501    0  0.00000000000E+00 -0.00000000000E+00 -0.52697122178E+02  0.52712423449E+02  0.12700000000E+01 0. -1.
         25    2    1    2    0    0  0.00000000000E+00  0.00000000000E+00  0.21398698225E+02  0.12681912693E+03  0.12500074668E+03 0.  0.
    9000005    1    3    3    0    0  0.49266444221E+02  0.64349604189E+00  0.49699411021E+02  0.69990199808E+02  0.10000000000E+01 0.  0.
    9000005    1    3    3    0    0 -0.49266444221E+02 -0.64349604189E+00 -0.28300712796E+02  0.56828927124E+02  0.10000000000E+01 0.  0.
<mgrwt>
<rscale>  0 0.12500075E+03</rscale>
<asrwt>0</asrwt>
<pdfrwt beam="2">  1        4 0.81092638E-02 0.12500075E+03</pdfrwt>
<pdfrwt beam="1">  1       -4 0.11401371E-01 0.12500075E+03</pdfrwt>
<totfact> 0.10412902E+04</totfact>
</mgrwt>
</event>
<event>
 5    1  0.3199195E-002  0.1250001E+03  0.7818608E-02  0.1235069E+00
          4   -1    0    0  501    0  0.00000000000E+00  0.00000000000E+00  0.39028577257E+02  0.39049234854E+02  0.12700000000E+01 0. -1.
         -4   -1    0    0    0  501 -0.00000000000E+00 -0.00000000000E+00 -0.10003593090E+03  0.10004399218E+03  0.12700000000E+01 0. -1.
         25    2    1    2    0    0  0.00000000000E+00  0.00000000000E+00 -0.61007353645E+02  0.13909322703E+03  0.12500011443E+03 0.  0.
    9000005    1    3    3    0    0  0.23913416230E+02 -0.69933928332E+01 -0.94275683393E+02  0.97517503549E+02  0.10000000000E+01 0.  0.
    9000005    1    3    3    0    0 -0.23913416230E+02  0.69933928332E+01  0.33268329749E+02  0.41575723486E+02  0.10000000000E+01 0.  0.
<mgrwt>
<rscale>  0 0.12500011E+03</rscale>
<asrwt>0</asrwt>
<pdfrwt beam="1">  1        4 0.60066057E-02 0.12500011E+03</pdfrwt>
<pdfrwt beam="2">  1       -4 0.15392352E-01 0.12500011E+03</pdfrwt>
<totfact> 0.10152388E+04</totfact>
</mgrwt>
</event>
<event>
 5    1  0.3199195E-002  0.1250087E+03  0.7818608E-02  0.1235056E+00
          4   -1    0    0  501    0  0.00000000000E+00  0.00000000000E+00  0.10198390436E+03  0.10199181167E+03  0.12700000000E+01 0. -1.
         -4   -1    0    0    0  501 -0.00000000000E+00 -0.00000000000E+00 -0.38288044664E+02  0.38309101585E+02  0.12700000000E+01 0. -1.
         25    2    1    2    0    0  0.00000000000E+00  0.00000000000E+00  0.63695859691E+02  0.14030091325E+03  0.12500873457E+03 0.  0.
    9000005    1    3    3    0    0 -0.37393370078E+02  0.45574008730E+02  0.55135687071E+02  0.80722973101E+02  0.10000000000E+01 0.  0.
    9000005    1    3    3    0    0  0.37393370078E+02 -0.45574008730E+02  0.85601726208E+01  0.59577940153E+02  0.10000000000E+01 0.  0.
<mgrwt>
<rscale>  0 0.12500873E+03</rscale>
<asrwt>0</asrwt>
<pdfrwt beam="1">  1        4 0.15692060E-01 0.12500873E+03</pdfrwt>
<pdfrwt beam="2">  1       -4 0.58926964E-02 0.12500873E+03</pdfrwt>
<totfact> 0.10125360E+04</totfact>
</mgrwt>
</event>
<event>
 5    1  0.3199195E-002  0.1250016E+03  0.7818608E-02  0.1235067E+00
          4   -1    0    0  501    0  0.00000000000E+00  0.00000000000E+00  0.98008313302E+02  0.98016541340E+02  0.12700000000E+01 0.  1.
         -4   -1    0    0    0  501 -0.00000000000E+00 -0.00000000000E+00 -0.39837297288E+02  0.39857535739E+02  0.12700000000E+01 0.  1.
         25    2    1    2    0    0  0.00000000000E+00  0.00000000000E+00  0.58171016014E+02  0.13787407708E+03  0.12500157610E+03 0.  0.
    9000005    1    3    3    0    0  0.13055335648E+02 -0.54631348392E+02 -0.11273014431E+01  0.56189828479E+02  0.10000000000E+01 0.  0.
    9000005    1    3    3    0    0 -0.13055335648E+02  0.54631348392E+02  0.59298317457E+02  0.81684248600E+02  0.10000000000E+01 0.  0.
<mgrwt>
<rscale>  0 0.12500158E+03</rscale>
<asrwt>0</asrwt>
<pdfrwt beam="1">  1        4 0.15080391E-01 0.12500158E+03</pdfrwt>
<pdfrwt beam="2">  1       -4 0.61310049E-02 0.12500158E+03</pdfrwt>
<totfact> 0.10177477E+04</totfact>
</mgrwt>
</event>
<event>
 5    1  0.3199195E-002  0.1249954E+03  0.7818608E-02  0.1235077E+00
         -4   -1    0    0    0  501 -0.00000000000E+00  0.00000000000E+00  0.46843449547E+03  0.46843621706E+03  0.12700000000E+01 0. -1.
          4   -1    0    0  501    0  0.00000000000E+00 -0.00000000000E+00 -0.82882241006E+01  0.83849602707E+01  0.12700000000E+01 0. -1.
         25    2    1    2    0    0  0.00000000000E+00  0.00000000000E+00  0.46014627137E+03  0.47682117733E+03  0.12499537627E+03 0.  0.
    9000005    1    3    3    0    0  0.22802218491E+00 -0.14561994900E+01  0.46838688341E+03  0.46839027003E+03  0.10000000000E+01 0.  0.
    9000005    1    3    3    0    0 -0.22802218491E+00  0.14561994900E+01 -0.82406120363E+01  0.84309072943E+01  0.10000000000E+01 0.  0.
<mgrwt>
<rscale>  0 0.12499538E+03</rscale>
<asrwt>0</asrwt>
<pdfrwt beam="2">  1        4 0.12826848E-02 0.12499538E+03</pdfrwt>
<pdfrwt beam="1">  1       -4 0.72074435E-01 0.12499538E+03</pdfrwt>
<totfact> 0.57714563E+03</totfact>
</mgrwt>
</event>
<event>
 5    1  0.3199195E-002  0.1250035E+03  0.7818608E-02  0.1235064E+00
         -4   -1    0    0    0  501 -0.00000000000E+00  0.00000000000E+00  0.51127134029E+01  0.52680867818E+01  0.12700000000E+01 0.  1.
          4   -1    0    0  501    0  0.00000000000E+00 -0.00000000000E+00 -0.75247759524E+03  0.75247866696E+03  0.12700000000E+01 0.  1.
         25    2    1    2    0    0  0.00000000000E+00  0.00000000000E+00 -0.74736488184E+03  0.75774675375E+03  0.12500350480E+03 0.  0.
    9000005    1    3    3    0    0 -0.56572852389E+02 -0.24673386727E+02 -0.43313925691E+03  0.43751557632E+03  0.10000000000E+01 0.  0.
    9000005    1    3    3    0    0  0.56572852389E+02  0.24673386727E+02 -0.31422562492E+03  0.32023117743E+03  0.10000000000E+01 0.  0.
<mgrwt>
<rscale>  0 0.12500350E+03</rscale>
<asrwt>0</asrwt>
<pdfrwt beam="2">  1        4 0.11577773E+00 0.12500350E+03</pdfrwt>
<pdfrwt beam="1">  1       -4 0.79860613E-03 0.12500350E+03</pdfrwt>
<totfact> 0.40203269E+03</totfact>
</mgrwt>
</event>
<event>
 5    1  0.3199195E-002  0.1250023E+03  0.7818608E-02  0.1235066E+00
          4   -1    0    0  501    0  0.00000000000E+00  0.00000000000E+00  0.19227180040E+03  0.19227599468E+03  0.12700000000E+01 0.  1.
         -4   -1    0    0    0  501 -0.00000000000E+00 -0.00000000000E+00 -0.20292780993E+02  0.20332482889E+02  0.12700000000E+01 0.  1.
         25    2    1    2    0    0  0.00000000000E+00  0.00000000000E+00  0.17197901941E+03  0.21260847757E+03  0.12500232645E+03 0.  0.
    9000005    1    3    3    0    0 -0.30077807874E+02 -0.49168824806E+02  0.12706206355E+03  0.13952783182E+03  0.10000000000E+01 0.  0.
    9000005    1    3    3    0    0  0.30077807874E+02  0.49168824806E+02  0.44916955861E+02  0.73080645749E+02  0.10000000000E+01 0.  0.
<mgrwt>
<rscale>  0 0.12500233E+03</rscale>
<asrwt>0</asrwt>
<pdfrwt beam="1">  1        4 0.29583653E-01 0.12500233E+03</pdfrwt>
<pdfrwt beam="2">  1       -4 0.31253430E-02 0.12500233E+03</pdfrwt>
<totfact> 0.88047068E+03</totfact>
</mgrwt>
</event>
<event>
 5    1  0.3199195E-002  0.1250053E+03  0.7818608E-02  0.1235061E+00
         -4   -1    0    0    0  501 -0.00000000000E+00  0.00000000000E+00  0.48359867160E+02  0.48376540304E+02  0.12700000000E+01 0.  1.
          4   -1    0    0  501    0  0.00000000000E+00 -0.00000000000E+00 -0.80745897948E+02  0.80755884834E+02  0.12700000000E+01 0.  1.
         25    2    1    2    0    0  0.00000000000E+00  0.00000000000E+00 -0.32386030787E+02  0.12913242514E+03  0.12500531281E+03 0.  0.
    9000005    1    3    3    0    0  0.21594961552E+02  0.51771622336E+02  0.12265367496E+02  0.57428934202E+02  0.10000000000E+01 0.  0.
    9000005    1    3    3    0    0 -0.21594961552E+02 -0.51771622336E+02 -0.44651398283E+02  0.71703490936E+02  0.10000000000E+01 0.  0.
<mgrwt>
<rscale>  0 0.12500531E+03</rscale>
<asrwt>0</asrwt>
<pdfrwt beam="2">  1        4 0.12424497E-01 0.12500531E+03</pdfrwt>
<pdfrwt beam="1">  1       -4 0.74420304E-02 0.12500531E+03</pdfrwt>
<totfact> 0.10361859E+04</totfact>
</mgrwt>
</event>
<event>
 5    1  0.3199195E-002  0.1249983E+03  0.7818608E-02  0.1235072E+00
          4   -1    0    0  501    0  0.00000000000E+00  0.00000000000E+00  0.13584811446E+03  0.13585405074E+03  0.12700000000E+01 0.  1.
         -4   -1    0    0    0  501 -0.00000000000E+00 -0.00000000000E+00 -0.28733175057E+02  0.28761228223E+02  0.12700000000E+01 0.  1.
         25    2    1    2    0    0  0.00000000000E+00  0.00000000000E+00  0.10711493940E+03  0.16461527896E+03  0.12499831928E+03 0.  0.
    9000005    1    3    3    0    0 -0.33850986565E+02  0.42738130868E+02  0.13337773938E+02  0.56136737839E+02  0.10000000000E+01 0.  0.
    9000005    1    3    3    0    0  0.33850986565E+02 -0.42738130868E+02  0.93777165460E+02  0.10847854112E+03  0.10000000000E+01 0.  0.
<mgrwt>
<rscale>  0 0.12499832E+03</rscale>
<asrwt>0</asrwt>
<pdfrwt beam="1">  1        4 0.20902324E-01 0.12499832E+03</pdfrwt>
<pdfrwt beam="2">  1       -4 0.44231031E-02 0.12499832E+03</pdfrwt>
<totfact> 0.96463944E+03</totfact>
</mgrwt>
</event>
<event>
 5    1  0.3199195E-002  0.1250100E+03  0.7818608E-02  0.1235054E+00
         -4   -1    0    0    0  501 -0.00000000000E+00  0.00000000000E+00  0.12480972857E+02  0.12545420817E+02  0.12700000000E+01 0.  1.
          4   -1    0    0  501    0  0.00000000000E+00 -0.00000000000E+00 -0.31215469304E+03  0.31215727653E+03  0.12700000000E+01 0.  1.
         25    2    1    2    0    0  0.00000000000E+00  0.00000000000E+00 -0.29967372018E+03  0.32470269734E+03  0.12501001197E+03 0.  0.
    9000005    1    3    3    0    0 -0.24252395429E+02  0.55191655806E+02 -0.10703244499E+03  0.12284641564E+03  0.10000000000E+01 0.  0.
    9000005    1    3    3    0    0  0.24252395429E+02 -0.55191655806E+02 -0.19264127520E+03  0.20185628171E+03  0.10000000000E+01 0.  0.
<mgrwt>
<rscale>  0 0.12501001E+03</rscale>
<asrwt>0</asrwt>
<pdfrwt beam="2">  1        4 0.48028949E-01 0.12501001E+03</pdfrwt>
<pdfrwt beam="1">  1       -4 0.19253062E-02 0.12501001E+03</pdfrwt>
<totfact> 0.72584168E+03</totfact>
</mgrwt>
</event>
<event>
 5    1  0.3199195E-002  0.1250011E+03  0.7818608E-02  0.1235068E+00
         -4   -1    0    0    0  501 -0.00000000000E+00  0.00000000000E+00  0.14427151850E+02  0.14482942053E+02  0.12700000000E+01 0.  1.
          4   -1    0    0  501    0  0.00000000000E+00 -0.00000000000E+00 -0.27018166200E+03  0.27018464683E+03  0.12700000000E+01 0.  1.
         25    2    1    2    0    0  0.00000000000E+00  0.00000000000E+00 -0.25575451015E+03  0.28466758888E+03  0.12500106678E+03 0.  0.
    9000005    1    3    3    0    0 -0.24588182538E+02  0.28376936910E+02 -0.24164050617E+03  0.24454235521E+03  0.10000000000E+01 0.  0.
    9000005    1    3    3    0    0  0.24588182538E+02 -0.28376936910E+02 -0.14114003981E+02  0.40125233672E+02  0.10000000000E+01 0.  0.
<mgrwt>
<rscale>  0 0.12500107E+03</rscale>
<asrwt>0</asrwt>
<pdfrwt beam="2">  1        4 0.41570927E-01 0.12500107E+03</pdfrwt>
<pdfrwt beam="1">  1       -4 0.22240832E-02 0.12500107E+03</pdfrwt>
<totfact> 0.77561423E+03</totfact>
</mgrwt>
</event>
<event>
 5    1  0.3199195E-002  0.1249812E+03  0.7818608E-02  0.1235099E+00
         -4   -1    0    0    0  501 -0.00000000000E+00  0.00000000000E+00  0.22688171492E+02  0.22723688645E+02  0.12700000000E+01 0.  1.
          4   -1    0    0  501    0  0.00000000000E+00 -0.00000000000E+00 -0.17194689311E+03  0.17195158316E+03  0.12700000000E+01 0.  1.
         25    2    1    2    0    0  0.00000000000E+00  0.00000000000E+00 -0.14925872162E+03  0.19467527180E+03  0.12498118047E+03 0.  0.
    9000005    1    3    3    0    0  0.21195912973E+02  0.43307382193E+02 -0.13653004241E+03  0.14479726710E+03  0.10000000000E+01 0.  0.
    9000005    1    3    3    0    0 -0.21195912973E+02 -0.43307382193E+02 -0.12728679215E+02  0.49878004709E+02  0.10000000000E+01 0.  0.
<mgrwt>
<rscale>  0 0.12498118E+03</rscale>
<asrwt>0</asrwt>
<pdfrwt beam="2">  1        4 0.26456460E-01 0.12498118E+03</pdfrwt>
<pdfrwt beam="1">  1       -4 0.34935809E-02 0.12498118E+03</pdfrwt>
<totfact> 0.91078508E+03</totfact>
</mgrwt>
</event>
<event>
 5    1  0.3199195E-002  0.1250037E+03  0.7818608E-02  0.1235064E+00
         -4   -1    0    0    0  501 -0.00000000000E+00  0.00000000000E+00  0.28889219634E+03  0.28889498785E+03  0.12700000000E+01 0.  1.
          4   -1    0    0  501    0  0.00000000000E+00 -0.00000000000E+00 -0.13489595399E+02  0.13549246622E+02  0.12700000000E+01 0.  1.
         25    2    1    2    0    0  0.00000000000E+00  0.00000000000E+00  0.27540260094E+03  0.30244423448E+03  0.12500368939E+03 0.  0.
    9000005    1    3    3    0    0  0.36949846104E+02 -0.49479271700E+02  0.11449555801E+03  0.13009120746E+03  0.10000000000E+01 0.  0.
    9000005    1    3    3    0    0 -0.36949846104E+02  0.49479271700E+02  0.16090704293E+03  0.17235302701E+03  0.10000000000E+01 0.  0.
<mgrwt>
<rscale>  0 0.12500369E+03</rscale>
<asrwt>0</asrwt>
<pdfrwt beam="2">  1        4 0.20801258E-02 0.12500369E+03</pdfrwt>
<pdfrwt beam="1">  1       -4 0.44449754E-01 0.12500369E+03</pdfrwt>
<totfact> 0.75287093E+03</totfact>
</mgrwt>
</event>
<event>
 5    1  0.3199195E-002  0.1249982E+03  0.7818608E-02  0.1235072E+00
         -4   -1    0    0    0  501 -0.00000000000E+00  0.00000000000E+00  0.27634753327E+03  0.27635045150E+03  0.12700000000E+01 0. -1.
          4   -1    0    0  501    0  0.00000000000E+00 -0.00000000000E+00 -0.14103341994E+02  0.14160408024E+02  0.12700000000E+01 0. -1.
         25    2    1    2    0    0  0.00000000000E+00  0.00000000000E+00  0.26224419128E+03  0.29051085953E+03  0.12499817456E+03 0.  0.
    9000005    1    3    3    0    0  0.48267374129E+02 -0.43791543195E+01  0.22280621731E+03  0.22801869851E+03  0.10000000000E+01 0.  0.
    9000005    1    3    3    0    0 -0.48267374129E+02  0.43791543195E+01  0.39437973965E+02  0.62492161015E+02  0.10000000000E+01 0.  0.
<mgrwt>
<rscale>  0 0.12499817E+03</rscale>
<asrwt>0</asrwt>
<pdfrwt beam="2">  1        4 0.21743593E-02 0.12499817E+03</pdfrwt>
<pdfrwt beam="1">  1       -4 0.42519615E-01 0.12499817E+03</pdfrwt>
<totfact> 0.76807884E+03</totfact>
</mgrwt>
</event>
<event>
 5    1  0.3199195E-002  0.1250025E+03  0.7818608E-02  0.1235065E+00
          4   -1    0    0  501    0  0.00000000000E+00  0.00000000000E+00  0.41745111134E+02  0.41764425096E+02  0.12700000000E+01 0.  1.
         -4   -1    0    0    0  501 -0.00000000000E+00 -0.00000000000E+00 -0.93532277346E+02  0.93540899106E+02  0.12700000000E+01 0.  1.
         25    2    1    2    0    0  0.00000000000E+00  0.00000000000E+00 -0.51787166212E+02  0.13530532420E+03  0.12500248067E+03 0.  0.
    9000005    1    3    3    0    0  0.29195882805E+02  0.14854968427E+02 -0.83499698963E+02  0.89700999920E+02  0.10000000000E+01 0.  0.
    9000005    1    3    3    0    0 -0.29195882805E+02 -0.14854968427E+02  0.31712532751E+02  0.45604324282E+02  0.10000000000E+01 0.  0.
<mgrwt>
<rscale>  0 0.12500248E+03</rscale>
<asrwt>0</asrwt>
<pdfrwt beam="1">  1        4 0.64244737E-02 0.12500248E+03</pdfrwt>
<pdfrwt beam="2">  1       -4 0.14391730E-01 0.12500248E+03</pdfrwt>
<totfact> 0.10231067E+04</totfact>
</mgrwt>
</event>
<event>
 5    1  0.3199195E-002  0.1249934E+03  0.7818608E-02  0.1235080E+00
          4   -1    0    0  501    0  0.00000000000E+00  0.00000000000E+00  0.15000825628E+02  0.15054490012E+02  0.12700000000E+01 0. -1.
         -4   -1    0    0    0  501 -0.00000000000E+00 -0.00000000000E+00 -0.25985485189E+03  0.25985795533E+03  0.12700000000E+01 0. -1.
         25    2    1    2    0    0  0.00000000000E+00  0.00000000000E+00 -0.24485402626E+03  0.27491244535E+03  0.12499343355E+03 0.  0.
    9000005    1    3    3    0    0 -0.74307353693E+01 -0.62041453998E+02 -0.12395361195E+03  0.13881590600E+03  0.10000000000E+01 0.  0.
    9000005    1    3    3    0    0  0.74307353693E+01  0.62041453998E+02 -0.12090041431E+03  0.13609653935E+03  0.10000000000E+01 0.  0.
<mgrwt>
<rscale>  0 0.12499343E+03</rscale>
<asrwt>0</asrwt>
<pdfrwt beam="1">  1        4 0.23121863E-02 0.12499343E+03</pdfrwt>
<pdfrwt beam="2">  1       -4 0.39982033E-01 0.12499343E+03</pdfrwt>
<totfact> 0.78869067E+03</totfact>
</mgrwt>
</event>
<event>
 5    1  0.3199195E-002  0.1249973E+03  0.7818608E-02  0.1235074E+00
         -4   -1    0    0    0  501 -0.00000000000E+00  0.00000000000E+00  0.37003615399E+02  0.37025402802E+02  0.12700000000E+01 0. -1.
          4   -1    0    0  501    0  0.00000000000E+00 -0.00000000000E+00 -0.10550269957E+03  0.10551034317E+03  0.12700000000E+01 0. -1.
         25    2    1    2    0    0  0.00000000000E+00  0.00000000000E+00 -0.68499084170E+02  0.14253574597E+03  0.12499725736E+03 0.  0.
    9000005    1    3    3    0    0  0.15499874167E+02 -0.60495174392E+02 -0.31657656814E+02  0.70022278304E+02  0.10000000000E+01 0.  0.
    9000005    1    3    3    0    0 -0.15499874167E+02  0.60495174392E+02 -0.36841427355E+02  0.72513467670E+02  0.10000000000E+01 0.  0.
<mgrwt>
<rscale>  0 0.12499726E+03</rscale>
<asrwt>0</asrwt>
<pdfrwt beam="2">  1        4 0.16233448E-01 0.12499726E+03</pdfrwt>
<pdfrwt beam="1">  1       -4 0.56951279E-02 0.12499726E+03</pdfrwt>
<totfact> 0.10081922E+04</totfact>
</mgrwt>
</event>
<event>
 5    1  0.3199195E-002  0.1250061E+03  0.7818608E-02  0.1235060E+00
          4   -1    0    0  501    0  0.00000000000E+00  0.00000000000E+00  0.50025884380E+02  0.50042002438E+02  0.12700000000E+01 0. -1.
         -4   -1    0    0    0  501 -0.00000000000E+00 -0.00000000000E+00 -0.78058348065E+02  0.78068678755E+02  0.12700000000E+01 0. -1.
         25    2    1    2    0    0  0.00000000000E+00  0.00000000000E+00 -0.28032463685E+02  0.12811068119E+03  0.12500611031E+03 0.  0.
    9000005    1    3    3    0    0 -0.41331317429E+02  0.46755324019E+02 -0.17460315950E+02  0.64808955844E+02  0.10000000000E+01 0.  0.
    9000005    1    3    3    0    0  0.41331317429E+02 -0.46755324019E+02 -0.10572147735E+02  0.63301725349E+02  0.10000000000E+01 0.  0.
<mgrwt>
<rscale>  0 0.12500611E+03</rscale>
<asrwt>0</asrwt>
<pdfrwt beam="1">  1        4 0.76983244E-02 0.12500611E+03</pdfrwt>
<pdfrwt beam="2">  1       -4 0.12011011E-01 0.12500611E+03</pdfrwt>
<totfact> 0.10383666E+04</totfact>
</mgrwt>
</event>
<event>
 5    1  0.3199195E-002  0.1249986E+03  0.7818608E-02  0.1235071E+00
          4   -1    0    0  501    0  0.00000000000E+00  0.00000000000E+00  0.89909402955E+01  0.90801931366E+01  0.12700000000E+01 0. -1.
         -4   -1    0    0    0  501 -0.00000000000E+00 -0.00000000000E+00 -0.43221931221E+03  0.43222117804E+03  0.12700000000E+01 0. -1.
         25    2    1    2    0    0  0.00000000000E+00  0.00000000000E+00 -0.42322837191E+03  0.44130137117E+03  0.12499858163E+03 0.  0.
    9000005    1    3    3    0    0  0.49363344577E+02 -0.27840295267E+02 -0.11865267567E+03  0.13149630897E+03  0.10000000000E+01 0.  0.
    9000005    1    3    3    0    0 -0.49363344577E+02  0.27840295267E+02 -0.30457569624E+03  0.30980506220E+03  0.10000000000E+01 0.  0.
<mgrwt>
<rscale>  0 0.12499858E+03</rscale>
<asrwt>0</asrwt>
<pdfrwt beam="1">  1        4 0.13902310E-02 0.12499858E+03</pdfrwt>
<pdfrwt beam="2">  1       -4 0.66502272E-01 0.12499858E+03</pdfrwt>
<totfact> 0.60726687E+03</totfact>
</mgrwt>
</event>
<event>
 5    1  0.3199195E-002  0.1249987E+03  0.7818608E-02  0.1235071E+00
          4   -1    0    0  501    0  0.00000000000E+00  0.00000000000E+00  0.53639809786E+02  0.53654842222E+02  0.12700000000E+01 0.  1.
         -4   -1    0    0    0  501 -0.00000000000E+00 -0.00000000000E+00 -0.72791439401E+02  0.72802517470E+02  0.12700000000E+01 0.  1.
         25    2    1    2    0    0  0.00000000000E+00  0.00000000000E+00 -0.19151629615E+02  0.12645735969E+03  0.12499871561E+03 0.  0.
    9000005    1    3    3    0    0  0.55670196027E+02  0.27278681181E+02 -0.16181145239E+01  0.62023507377E+02  0.10000000000E+01 0.  0.
    9000005    1    3    3    0    0 -0.55670196027E+02 -0.27278681181E+02 -0.17533515091E+02  0.64433852315E+02  0.10000000000E+01 0.  0.
<mgrwt>
<rscale>  0 0.12499872E+03</rscale>
<asrwt>0</asrwt>
<pdfrwt beam="1">  1        4 0.82542870E-02 0.12499872E+03</pdfrwt>
<pdfrwt beam="2">  1       -4 0.11200691E-01 0.12499872E+03</pdfrwt>
<totfact> 0.10421260E+04</totfact>
</mgrwt>
</event>
<event>
 5    1  0.3199195E-002  0.1250004E+03  0.7818608E-02  0.1235069E+00
         -4   -1    0    0    0  501 -0.00000000000E+00  0.00000000000E+00  0.89073320631E+02  0.89082373948E+02  0.12700000000E+01 0.  1.
          4   -1    0    0  501    0  0.00000000000E+00 -0.00000000000E+00 -0.43834115268E+02  0.43852509179E+02  0.12700000000E+01 0.  1.
         25    2    1    2    0    0  0.00000000000E+00  0.00000000000E+00  0.45239205364E+02  0.13293488313E+03  0.12500038980E+03 0.  0.
    9000005    1    3    3    0    0 -0.44607529500E+02 -0.43267451404E+02  0.29623244404E+02  0.68850858006E+02  0.10000000000E+01 0.  0.
    9000005    1    3    3    0    0  0.44607529500E+02  0.43267451404E+02  0.15615960960E+02  0.64084025122E+02  0.10000000000E+01 0.  0.
<mgrwt>
<rscale>  0 0.12500039E+03</rscale>
<asrwt>0</asrwt>
<pdfrwt beam="2">  1        4 0.67458215E-02 0.12500039E+03</pdfrwt>
<pdfrwt beam="1">  1       -4 0.13705699E-01 0.12500039E+03</pdfrwt>
<totfact> 0.10281694E+04</totfact>
</mgrwt>
</event>
<event>
 5    1  0.3199195E-002  0.1249965E+03  0.7818608E-02  0.1235075E+00
         -4   -1    0    0    0  501 -0.00000000000E+00  0.00000000000E+00  0.26818296673E+02  0.26848350721E+02  0.12700000000E+01 0.  1.
          4   -1    0    0  501    0  0.00000000000E+00 -0.00000000000E+00 -0.14553363064E+03  0.14553917187E+03  0.12700000000E+01 0.  1.
         25    2    1    2    0    0  0.00000000000E+00  0.00000000000E+00 -0.11871533397E+03  0.17238752259E+03  0.12499650965E+03 0.  0.
    9000005    1    3    3    0    0  0.48426327061E+02 -0.37135691906E+02 -0.40810272219E+02  0.73421026175E+02  0.10000000000E+01 0.  0.
    9000005    1    3    3    0    0 -0.48426327061E+02  0.37135691906E+02 -0.77905061748E+02  0.98966496411E+02  0.10000000000E+01 0.  0.
<mgrwt>
<rscale>  0 0.12499651E+03</rscale>
<asrwt>0</asrwt>
<pdfrwt beam="2">  1        4 0.22392527E-01 0.12499651E+03</pdfrwt>
<pdfrwt beam="1">  1       -4 0.41286300E-02 0.12499651E+03</pdfrwt>
<totfact> 0.95012941E+03</totfact>
</mgrwt>
</event>
<event>
 5    1  0.3199195E-002  0.1249985E+03  0.7818608E-02  0.1235072E+00
         -4   -1    0    0    0  501 -0.00000000000E+00  0.00000000000E+00  0.59439464558E+02  0.59453030595E+02  0.12700000000E+01 0. -1.
          4   -1    0    0  501    0  0.00000000000E+00 -0.00000000000E+00 -0.65689358405E+02  0.65701633980E+02  0.12700000000E+01 0. -1.
         25    2    1    2    0    0  0.00000000000E+00  0.00000000000E+00 -0.62498938473E+01  0.12515466458E+03  0.12499851556E+03 0.  0.
    9000005    1    3    3    0    0  0.24989957189E+02  0.57276613973E+02 -0.29038670444E+01  0.62566292142E+02  0.10000000000E+01 0.  0.
    9000005    1    3    3    0    0 -0.24989957189E+02 -0.57276613973E+02 -0.33460268029E+01  0.62588372434E+02  0.10000000000E+01 0.  0.
<mgrwt>
<rscale>  0 0.12499852E+03</rscale>
<asrwt>0</asrwt>
<pdfrwt beam="2">  1        4 0.10108043E-01 0.12499852E+03</pdfrwt>
<pdfrwt beam="1">  1       -4 0.91465208E-02 0.12499852E+03</pdfrwt>
<totfact> 0.10449855E+04</totfact>
</mgrwt>
</event>
<event>
 5    1  0.3199195E-002  0.1249992E+03  0.7818608E-02  0.1235070E+00
         -4   -1    0    0    0  501 -0.00000000000E+00  0.00000000000E+00  0.15645329184E+03  0.15645844633E+03  0.12700000000E+01 0.  1.
          4   -1    0    0  501    0  0.00000000000E+00 -0.00000000000E+00 -0.24945484344E+02  0.24977791919E+02  0.12700000000E+01 0.  1.
         25    2    1    2    0    0  0.00000000000E+00  0.00000000000E+00  0.13150780750E+03  0.18143623825E+03  0.12499922047E+03 0.  0.
    9000005    1    3    3    0    0  0.29997236310E+02 -0.30221525649E+02 -0.63573677502E+00  0.42597875065E+02  0.10000000000E+01 0.  0.
    9000005    1    3    3    0    0 -0.29997236310E+02  0.30221525649E+02  0.13214354427E+03  0.13883836318E+03  0.10000000000E+01 0.  0.
<mgrwt>
<rscale>  0 0.12499922E+03</rscale>
<asrwt>0</asrwt>
<pdfrwt beam="2">  1        4 0.38406485E-02 0.12499922E+03</pdfrwt>
<pdfrwt beam="1">  1       -4 0.24072619E-01 0.12499922E+03</pdfrwt>
<totfact> 0.93360744E+03</totfact>
</mgrwt>
</event>
<event>
 5    1  0.3199195E-002  0.1249986E+03  0.7818608E-02  0.1235071E+00
         -4   -1    0    0    0  501 -0.00000000000E+00  0.00000000000E+00  0.16238807855E+03  0.16239304466E+03  0.12700000000E+01 0.  1.
          4   -1    0    0  501    0  0.00000000000E+00 -0.00000000000E+00 -0.24032404297E+02  0.24065937677E+02  0.12700000000E+01 0.  1.
         25    2    1    2    0    0  0.00000000000E+00  0.00000000000E+00  0.13835567425E+03  0.18645898234E+03  0.12499863798E+03 0.  0.
    9000005    1    3    3    0    0  0.17292679811E+02  0.60016307632E+02  0.66131388687E+02  0.90968975626E+02  0.10000000000E+01 0.  0.
    9000005    1    3    3    0    0 -0.17292679811E+02 -0.60016307632E+02  0.72224285567E+02  0.95490006715E+02  0.10000000000E+01 0.  0.
<mgrwt>
<rscale>  0 0.12499864E+03</rscale>
<asrwt>0</asrwt>
<pdfrwt beam="2">  1        4 0.37002544E-02 0.12499864E+03</pdfrwt>
<pdfrwt beam="1">  1       -4 0.24985743E-01 0.12499864E+03</pdfrwt>
<totfact> 0.92469938E+03</totfact>
</mgrwt>
</event>
<event>
 5    1  0.3199195E-002  0.1249986E+03  0.7818608E-02  0.1235072E+00
          4   -1    0    0  501    0  0.00000000000E+00  0.00000000000E+00  0.40538737880E+01  0.42481516791E+01  0.12700000000E+01 0.  1.
         -4   -1    0    0    0  501 -0.00000000000E+00 -0.00000000000E+00 -0.94081887212E+03  0.94081972930E+03  0.12700000000E+01 0.  1.
         25    2    1    2    0    0  0.00000000000E+00  0.00000000000E+00 -0.93676499834E+03  0.94506788098E+03  0.12499855021E+03 0.  0.
    9000005    1    3    3    0    0 -0.17088296152E+02  0.59985198808E+02 -0.43917316164E+03  0.44358122125E+03  0.10000000000E+01 0.  0.
    9000005    1    3    3    0    0  0.17088296152E+02 -0.59985198808E+02 -0.49759183670E+03  0.50148665973E+03  0.10000000000E+01 0.  0.
<mgrwt>
<rscale>  0 0.12499855E+03</rscale>
<asrwt>0</asrwt>
<pdfrwt beam="1">  1        4 0.63868403E-03 0.12499855E+03</pdfrwt>
<pdfrwt beam="2">  1       -4 0.14475621E+00 0.12499855E+03</pdfrwt>
<totfact> 0.32492797E+03</totfact>
</mgrwt>
</event>
<event>
 5    1  0.3199195E-002  0.1249888E+03  0.7818608E-02  0.1235087E+00
          4   -1    0    0  501    0  0.00000000000E+00  0.00000000000E+00  0.19256317468E+02  0.19298151788E+02  0.12700000000E+01 0. -1.
         -4   -1    0    0    0  501 -0.00000000000E+00 -0.00000000000E+00 -0.20255531862E+03  0.20255929996E+03  0.12700000000E+01 0. -1.
         25    2    1    2    0    0  0.00000000000E+00  0.00000000000E+00 -0.18329900115E+03  0.22185745175E+03  0.12498881980E+03 0.  0.
    9000005    1    3    3    0    0  0.30011358334E+02 -0.54039109915E+02 -0.10788332596E+03  0.12434113981E+03  0.10000000000E+01 0.  0.
    9000005    1    3    3    0    0 -0.30011358334E+02  0.54039109915E+02 -0.75415675191E+02  0.97516311938E+02  0.10000000000E+01 0.  0.
<mgrwt>
<rscale>  0 0.12498882E+03</rscale>
<asrwt>0</asrwt>
<pdfrwt beam="1">  1        4 0.29660348E-02 0.12498882E+03</pdfrwt>
<pdfrwt beam="2">  1       -4 0.31165880E-01 0.12498882E+03</pdfrwt>
<totfact> 0.86596904E+03</totfact>
</mgrwt>
</event>
<event>
 5    1  0.3199195E-002  0.1249994E+03  0.7818608E-02  0.1235070E+00
         -4   -1    0    0    0  501 -0.00000000000E+00  0.00000000000E+00  0.27233173282E+04  0.27233176243E+04  0.12700000000E+01 0. -1.
          4   -1    0    0  501    0  0.00000000000E+00 -0.00000000000E+00 -0.11528839624E+01  0.17152380099E+01  0.12700000000E+01 0. -1.
         25    2    1    2    0    0  0.00000000000E+00  0.00000000000E+00  0.27221644442E+04  0.27250328623E+04  0.12499935739E+03 0.  0.
    9000005    1    3    3    0    0  0.25831985209E+02 -0.52001787800E+02  0.85743578646E+03  0.85940014271E+03  0.10000000000E+01 0.  0.
    9000005    1    3    3    0    0 -0.25831985209E+02  0.52001787800E+02  0.18647286578E+04  0.18656327196E+04  0.10000000000E+01 0.  0.
<mgrwt>
<rscale>  0 0.12499936E+03</rscale>
<asrwt>0</asrwt>
<pdfrwt beam="2">  1        4 0.22064699E-03 0.12499936E+03</pdfrwt>
<pdfrwt beam="1">  1       -4 0.41901624E+00 0.12499936E+03</pdfrwt>
<totfact> 0.31329139E+02</totfact>
</mgrwt>
</event>
<event>
 5    1  0.3199195E-002  0.1250022E+03  0.7818608E-02  0.1235066E+00
         -4   -1    0    0    0  501 -0.00000000000E+00  0.00000000000E+00  0.10660817396E+02  0.10736197072E+02  0.12700000000E+01 0. -1.
          4   -1    0    0  501    0  0.00000000000E+00 -0.00000000000E+00 -0.36505716531E+03  0.36505937441E+03  0.12700000000E+01 0. -1.
         25    2    1    2    0    0  0.00000000000E+00  0.00000000000E+00 -0.35439634792E+03  0.37579557148E+03  0.12500216050E+03 0.  0.
    9000005    1    3    3    0    0 -0.15692643091E+02 -0.34219204527E+02 -0.32715779706E+03  0.32931813978E+03  0.10000000000E+01 0.  0.
    9000005    1    3    3    0    0  0.15692643091E+02  0.34219204527E+02 -0.27238550853E+02  0.46477431708E+02  0.10000000000E+01 0.  0.
<mgrwt>
<rscale>  0 0.12500216E+03</rscale>
<asrwt>0</asrwt>
<pdfrwt beam="2">  1        4 0.56168600E-01 0.12500216E+03</pdfrwt>
<pdfrwt beam="1">  1       -4 0.16460944E-02 0.12500216E+03</pdfrwt>
<totfact> 0.66973745E+03</totfact>
</mgrwt>
</event>
<event>
 5    1  0.3199195E-002  0.1250009E+03  0.7818608E-02  0.1235068E+00
         -4   -1    0    0    0  501 -0.00000000000E+00  0.00000000000E+00  0.35001708473E+02  0.35024741198E+02  0.12700000000E+01 0.  1.
          4   -1    0    0  501    0  0.00000000000E+00 -0.00000000000E+00 -0.11153988907E+03  0.11154711899E+03  0.12700000000E+01 0.  1.
         25    2    1    2    0    0  0.00000000000E+00  0.00000000000E+00 -0.76538180601E+02  0.14657186019E+03  0.12500086843E+03 0.  0.
    9000005    1    3    3    0    0 -0.60625415193E+02  0.12052537111E+02 -0.27484047425E+02  0.67654101730E+02  0.10000000000E+01 0.  0.
    9000005    1    3    3    0    0  0.60625415193E+02 -0.12052537111E+02 -0.49054133176E+02  0.78917758456E+02  0.10000000000E+01 0.  0.
<mgrwt>
<rscale>  0 0.12500087E+03</rscale>
<asrwt>0</asrwt>
<pdfrwt beam="2">  1        4 0.17162311E-01 0.12500087E+03</pdfrwt>
<pdfrwt beam="1">  1       -4 0.53872062E-02 0.12500087E+03</pdfrwt>
<totfact> 0.99989535E+03</totfact>
</mgrwt>
</event>
<event>
 5    1  0.3199195E-002  0.1249963E+03  0.7818608E-02  0.1235075E+00
          4   -1    0    0  501    0  0.00000000000E+00  0.00000000000E+00  0.42772452812E+02  0.42791303083E+02  0.12700000000E+01 0.  1.
         -4   -1    0    0    0  501 -0.00000000000E+00 -0.00000000000E+00 -0.91277516861E+02  0.91286351577E+02  0.12700000000E+01 0.  1.
         25    2    1    2    0    0  0.00000000000E+00  0.00000000000E+00 -0.48505064049E+02  0.13407765466E+03  0.12499630491E+03 0.  0.
    9000005    1    3    3    0    0 -0.52849729011E+02  0.26931734241E+02 -0.45343379308E+02  0.74668830263E+02  0.10000000000E+01 0.  0.
    9000005    1    3    3    0    0  0.52849729011E+02 -0.26931734241E+02 -0.31616847404E+01  0.59408824397E+02  0.10000000000E+01 0.  0.
<mgrwt>
<rscale>  0 0.12499630E+03</rscale>
<asrwt>0</asrwt>
<pdfrwt beam="1">  1        4 0.65825070E-02 0.12499630E+03</pdfrwt>
<pdfrwt beam="2">  1       -4 0.14044824E-01 0.12499630E+03</pdfrwt>
<totfact> 0.10258403E+04</totfact>
</mgrwt>
</event>
<event>
 5    1  0.3199195E-002  0.1249949E+03  0.7818608E-02  0.1235077E+00
         -4   -1    0    0    0  501 -0.00000000000E+00  0.00000000000E+00  0.43352216295E+03  0.43352402318E+03  0.12700000000E+01 0. -1.
          4   -1    0    0  501    0  0.00000000000E+00 -0.00000000000E+00 -0.89631194144E+01  0.90526465543E+01  0.12700000000E+01 0. -1.
         25    2    1    2    0    0  0.00000000000E+00  0.00000000000E+00  0.42455904354E+03  0.44257666973E+03  0.12499490846E+03 0.  0.
    9000005    1    3    3    0    0  0.47668633714E+02 -0.25535014872E+02  0.32315647611E+03  0.32765140573E+03  0.10000000000E+01 0.  0.
    9000005    1    3    3    0    0 -0.47668633714E+02  0.25535014872E+02  0.10140256743E+03  0.11492526400E+03  0.10000000000E+01 0.  0.
<mgrwt>
<rscale>  0 0.12499491E+03</rscale>
<asrwt>0</asrwt>
<pdfrwt beam="2">  1        4 0.13859713E-02 0.12499491E+03</pdfrwt>
<pdfrwt beam="1">  1       -4 0.66702743E-01 0.12499491E+03</pdfrwt>
<totfact> 0.60619106E+03</totfact>
</mgrwt>
</event>
<event>
 5    1  0.3199195E-002  0.1249859E+03  0.7818608E-02  0.1235091E+00
         -4   -1    0    0    0  501 -0.00000000000E+00  0.00000000000E+00  0.18599153522E+03  0.18599587112E+03  0.12700000000E+01 0.  1.
          4   -1    0    0  501    0  0.00000000000E+00 -0.00000000000E+00 -0.20973758632E+02  0.21012173880E+02  0.12700000000E+01 0.  1.
         25    2    1    2    0    0  0.00000000000E+00  0.00000000000E+00  0.16501777658E+03  0.20700804500E+03  0.12498585562E+03 0.  0.
    9000005    1    3    3    0    0 -0.11226751239E+02 -0.54191488326E+02  0.34460208631E+02  0.65201712626E+02  0.10000000000E+01 0.  0.
    9000005    1    3    3    0    0  0.11226751239E+02  0.54191488326E+02  0.13055756795E+03  0.14180633237E+03  0.10000000000E+01 0.  0.
<mgrwt>
<rscale>  0 0.12498586E+03</rscale>
<asrwt>0</asrwt>
<pdfrwt beam="2">  1        4 0.32300205E-02 0.12498586E+03</pdfrwt>
<pdfrwt beam="1">  1       -4 0.28617372E-01 0.12498586E+03</pdfrwt>
<totfact> 0.88994994E+03</totfact>
</mgrwt>
</event>
<event>
 5    1  0.3199195E-002  0.1249983E+03  0.7818608E-02  0.1235072E+00
          4   -1    0    0  501    0  0.00000000000E+00  0.00000000000E+00  0.32480927865E+02  0.32505746799E+02  0.12700000000E+01 0.  1.
         -4   -1    0    0    0  501 -0.00000000000E+00 -0.00000000000E+00 -0.12018553548E+03  0.12019224534E+03  0.12700000000E+01 0.  1.
         25    2    1    2    0    0  0.00000000000E+00  0.00000000000E+00 -0.87704607617E+02  0.15269799214E+03  0.12499831441E+03 0.  0.
    9000005    1    3    3    0    0  0.19516043496E+02  0.57987349233E+01 -0.11602649239E+03  0.11780343042E+03  0.10000000000E+01 0.  0.
    9000005    1    3    3    0    0 -0.19516043496E+02 -0.57987349233E+01  0.28321884776E+02  0.34894561721E+02  0.10000000000E+01 0.  0.
<mgrwt>
<rscale>  0 0.12499831E+03</rscale>
<asrwt>0</asrwt>
<pdfrwt beam="1">  1        4 0.49994912E-02 0.12499831E+03</pdfrwt>
<pdfrwt beam="2">  1       -4 0.18492507E-01 0.12499831E+03</pdfrwt>
<totfact> 0.98772333E+03</totfact>
</mgrwt>
</event>
<event>
 5    1  0.3199195E-002  0.1249967E+03  0.7818608E-02  0.1235074E+00
         -4   -1    0    0    0  501 -0.00000000000E+00  0.00000000000E+00  0.27113014715E+03  0.27113312154E+03  0.12700000000E+01 0.  1.
          4   -1    0    0  501    0  0.00000000000E+00 -0.00000000000E+00 -0.14375471207E+02  0.14431461202E+02  0.12700000000E+01 0.  1.
         25    2    1    2    0    0  0.00000000000E+00  0.00000000000E+00  0.25675467594E+03  0.28556458274E+03  0.12499666914E+03 0.  0.
    9000005    1    3    3    0    0  0.41115547846E+02 -0.42212333912E+02  0.80856345051E+02  0.10005557428E+03  0.10000000000E+01 0.  0.
    9000005    1    3    3    0    0 -0.41115547846E+02  0.42212333912E+02  0.17589833089E+03  0.18550900846E+03  0.10000000000E+01 0.  0.
<mgrwt>
<rscale>  0 0.12499667E+03</rscale>
<asrwt>0</asrwt>
<pdfrwt beam="2">  1        4 0.22161468E-02 0.12499667E+03</pdfrwt>
<pdfrwt beam="1">  1       -4 0.41716864E-01 0.12499667E+03</pdfrwt>
<totfact> 0.77451753E+03</totfact>
</mgrwt>
</event>
<event>
 5    1  0.3199195E-002  0.1250042E+03  0.7818608E-02  0.1235063E+00
          4   -1    0    0  501    0  0.00000000000E+00  0.00000000000E+00  0.14294438842E+02  0.14350744992E+02  0.12700000000E+01 0.  1.
         -4   -1    0    0    0  501 -0.00000000000E+00 -0.00000000000E+00 -0.27269418444E+03  0.27269714177E+03  0.12700000000E+01 0.  1.
         25    2    1    2    0    0  0.00000000000E+00  0.00000000000E+00 -0.25839974560E+03  0.28704788676E+03  0.12500424300E+03 0.  0.
    9000005    1    3    3    0    0 -0.20909099742E+02 -0.57477023915E+02 -0.99728653660E+02  0.11699403015E+03  0.10000000000E+01 0.  0.
    9000005    1    3    3    0    0  0.20909099742E+02  0.57477023915E+02 -0.15867109194E+03  0.17005385661E+03  0.10000000000E+01 0.  0.
<mgrwt>
<rscale>  0 0.12500424E+03</rscale>
<asrwt>0</asrwt>
<pdfrwt beam="1">  1        4 0.22037034E-02 0.12500424E+03</pdfrwt>
<pdfrwt beam="2">  1       -4 0.41957506E-01 0.12500424E+03</pdfrwt>
<totfact> 0.77245511E+03</totfact>
</mgrwt>
</event>
<event>
 5    1  0.3199195E-002  0.1250017E+03  0.7818608E-02  0.1235067E+00
          4   -1    0    0  501    0  0.00000000000E+00  0.00000000000E+00  0.33203119214E+02  0.33227398718E+02  0.12700000000E+01 0. -1.
         -4   -1    0    0    0  501 -0.00000000000E+00 -0.00000000000E+00 -0.11757957755E+03  0.11758643611E+03  0.12700000000E+01 0. -1.
         25    2    1    2    0    0  0.00000000000E+00  0.00000000000E+00 -0.84376458340E+02  0.15081383483E+03  0.12500170421E+03 0.  0.
    9000005    1    3    3    0    0 -0.71228644048E+01 -0.38956579235E+02  0.16136829744E+02  0.42775548356E+02  0.10000000000E+01 0.  0.
    9000005    1    3    3    0    0  0.71228644048E+01  0.38956579235E+02 -0.10051328808E+03  0.10803828648E+03  0.10000000000E+01 0.  0.
<mgrwt>
<rscale>  0 0.12500170E+03</rscale>
<asrwt>0</asrwt>
<pdfrwt beam="1">  1        4 0.51105675E-02 0.12500170E+03</pdfrwt>
<pdfrwt beam="2">  1       -4 0.18091561E-01 0.12500170E+03</pdfrwt>
<totfact> 0.99137917E+03</totfact>
</mgrwt>
</event>
<event>
 5    1  0.3199195E-002  0.1250039E+03  0.7818608E-02  0.1235063E+00
         -4   -1    0    0    0  501 -0.00000000000E+00  0.00000000000E+00  0.10334124369E+03  0.10334904715E+03  0.12700000000E+01 0. -1.
          4   -1    0    0  501    0  0.00000000000E+00 -0.00000000000E+00 -0.37782008788E+02  0.37803347578E+02  0.12700000000E+01 0. -1.
         25    2    1    2    0    0  0.00000000000E+00  0.00000000000E+00  0.65559234903E+02  0.14115239473E+03  0.12500394097E+03 0.  0.
    9000005    1    3    3    0    0 -0.29719336344E+02  0.48072548137E+02  0.62894912804E+02  0.84563460749E+02  0.10000000000E+01 0.  0.
    9000005    1    3    3    0    0  0.29719336344E+02 -0.48072548137E+02  0.26643220991E+01  0.56588933983E+02  0.10000000000E+01 0.  0.
<mgrwt>
<rscale>  0 0.12500394E+03</rscale>
<asrwt>0</asrwt>
<pdfrwt beam="2">  1        4 0.58148584E-02 0.12500394E+03</pdfrwt>
<pdfrwt beam="1">  1       -4 0.15900895E-01 0.12500394E+03</pdfrwt>
<totfact> 0.10108860E+04</totfact>
</mgrwt>
</event>
<event>
 5    1  0.3199195E-002  0.1250030E+03  0.7818608E-02  0.1235065E+00
          4   -1    0    0  501    0  0.00000000000E+00  0.00000000000E+00  0.40391773782E+02  0.40411734549E+02  0.12700000000E+01 0. -1.
         -4   -1    0    0    0  501 -0.00000000000E+00 -0.00000000000E+00 -0.96665643392E+02  0.96673985706E+02  0.12700000000E+01 0. -1.
         25    2    1    2    0    0  0.00000000000E+00  0.00000000000E+00 -0.56273869610E+02  0.13708572026E+03  0.12500298515E+03 0.  0.
    9000005    1    3    3    0    0  0.47844924938E+02 -0.28841506102E+02 -0.58852551874E+02  0.81151661589E+02  0.10000000000E+01 0.  0.
    9000005    1    3    3    0    0 -0.47844924938E+02  0.28841506102E+02  0.25786822643E+01  0.55934058666E+02  0.10000000000E+01 0.  0.
<mgrwt>
<rscale>  0 0.12500299E+03</rscale>
<asrwt>0</asrwt>
<pdfrwt beam="1">  1        4 0.62162963E-02 0.12500299E+03</pdfrwt>
<pdfrwt beam="2">  1       -4 0.14873814E-01 0.12500299E+03</pdfrwt>
<totfact> 0.10193608E+04</totfact>
</mgrwt>
</event>
<event>
 5    1  0.3199195E-002  0.1249992E+03  0.7818608E-02  0.1235071E+00
          4   -1    0    0  501    0  0.00000000000E+00  0.00000000000E+00  0.82804454082E+01  0.83772714029E+01  0.12700000000E+01 0.  1.
         -4   -1    0    0    0  501 -0.00000000000E+00 -0.00000000000E+00 -0.46889826111E+03  0.46889998099E+03  0.12700000000E+01 0.  1.
         25    2    1    2    0    0  0.00000000000E+00  0.00000000000E+00 -0.46061781570E+03  0.47727725239E+03  0.12499921404E+03 0.  0.
    9000005    1    3    3    0    0  0.47350672246E+02 -0.49604501389E+01 -0.75752212697E+02  0.89476756514E+02  0.10000000000E+01 0.  0.
    9000005    1    3    3    0    0 -0.47350672246E+02  0.49604501389E+01 -0.38486560300E+03  0.38780049588E+03  0.10000000000E+01 0.  0.
<mgrwt>
<rscale>  0 0.12499921E+03</rscale>
<asrwt>0</asrwt>
<pdfrwt beam="1">  1        4 0.12814955E-02 0.12499921E+03</pdfrwt>
<pdfrwt beam="2">  1       -4 0.72145754E-01 0.12499921E+03</pdfrwt>
<totfact> 0.57672510E+03</totfact>
</mgrwt>
</event>
<event>
 5    1  0.3199195E-002  0.1249744E+03  0.7818608E-02  0.1235109E+00
          4   -1    0    0  501    0  0.00000000000E+00  0.00000000000E+00  0.14942163248E+02  0.14996037561E+02  0.12700000000E+01 0. -1.
         -4   -1    0    0    0  501 -0.00000000000E+00 -0.00000000000E+00 -0.26079213357E+03  0.26079522586E+03  0.12700000000E+01 0. -1.
         25    2    1    2    0    0  0.00000000000E+00  0.00000000000E+00 -0.24584997032E+03  0.27579126342E+03  0.12497444968E+03 0.  0.
    9000005    1    3    3    0    0 -0.53496154815E+02 -0.16511426652E+01 -0.51789626920E+02  0.74483087400E+02  0.10000000000E+01 0.  0.
    9000005    1    3    3    0    0  0.53496154815E+02  0.16511426652E+01 -0.19406034340E+03  0.20130817602E+03  0.10000000000E+01 0.  0.
<mgrwt>
<rscale>  0 0.12497445E+03</rscale>
<asrwt>0</asrwt>
<pdfrwt beam="1">  1        4 0.23031766E-02 0.12497445E+03</pdfrwt>
<pdfrwt beam="2">  1       -4 0.40126245E-01 0.12497445E+03</pdfrwt>
<totfact> 0.78784233E+03</totfact>
</mgrwt>
</event>
<event>
 5    1  0.3199195E-002  0.1250002E+03  0.7818608E-02  0.1235069E+00
          4   -1    0    0  501    0  0.00000000000E+00  0.00000000000E+00  0.26841194433E+02  0.26871222871E+02  0.12700000000E+01 0. -1.
         -4   -1    0    0    0  501 -0.00000000000E+00 -0.00000000000E+00 -0.14541830445E+03  0.14542385007E+03  0.12700000000E+01 0. -1.
         25    2    1    2    0    0  0.00000000000E+00  0.00000000000E+00 -0.11857711002E+03  0.17229507294E+03  0.12500024456E+03 0.  0.
    9000005    1    3    3    0    0 -0.21354581066E+01 -0.61951417878E+02 -0.70205195298E+02  0.93660599001E+02  0.10000000000E+01 0.  0.
    9000005    1    3    3    0    0  0.21354581066E+01  0.61951417878E+02 -0.48371914723E+02  0.78634473943E+02  0.10000000000E+01 0.  0.
<mgrwt>
<rscale>  0 0.12500024E+03</rscale>
<asrwt>0</asrwt>
<pdfrwt beam="1">  1        4 0.41321511E-02 0.12500024E+03</pdfrwt>
<pdfrwt beam="2">  1       -4 0.22374783E-01 0.12500024E+03</pdfrwt>
<totfact> 0.95022068E+03</totfact>
</mgrwt>
</event>
<event>
 5    1  0.3199195E-002  0.1250032E+03  0.7818608E-02  0.1235064E+00
          4   -1    0    0  501    0  0.00000000000E+00  0.00000000000E+00  0.13750622820E+02  0.13809146532E+02  0.12700000000E+01 0. -1.
         -4   -1    0    0    0  501 -0.00000000000E+00 -0.00000000000E+00 -0.28342946573E+03  0.28343231105E+03  0.12700000000E+01 0. -1.
         25    2    1    2    0    0  0.00000000000E+00  0.00000000000E+00 -0.26967884291E+03  0.29724145758E+03  0.12500322311E+03 0.  0.
    9000005    1    3    3    0    0  0.20101347529E+02 -0.26732767879E+02 -0.26036634793E+03  0.26250779072E+03  0.10000000000E+01 0.  0.
    9000005    1    3    3    0    0 -0.20101347529E+02  0.26732767879E+02 -0.93124949800E+01  0.34733666863E+02  0.10000000000E+01 0.  0.
<mgrwt>
<rscale>  0 0.12500322E+03</rscale>
<asrwt>0</asrwt>
<pdfrwt beam="1">  1        4 0.21202013E-02 0.12500322E+03</pdfrwt>
<pdfrwt beam="2">  1       -4 0.43609250E-01 0.12500322E+03</pdfrwt>
<totfact> 0.75940740E+03</totfact>
</mgrwt>
</event>
<event>
 5    1  0.3199195E-002  0.1249998E+03  0.7818608E-02  0.1235070E+00
          4   -1    0    0  501    0  0.00000000000E+00  0.00000000000E+00  0.57730297957E+02  0.57744265535E+02  0.12700000000E+01 0.  1.
         -4   -1    0    0    0  501 -0.00000000000E+00 -0.00000000000E+00 -0.67635401491E+02  0.67647323930E+02  0.12700000000E+01 0.  1.
         25    2    1    2    0    0  0.00000000000E+00  0.00000000000E+00 -0.99051035349E+01  0.12539158946E+03  0.12499975853E+03 0.  0.
    9000005    1    3    3    0    0  0.41890375619E+00 -0.51601766641E+01  0.57519723647E+02  0.57760899508E+02  0.10000000000E+01 0.  0.
    9000005    1    3    3    0    0 -0.41890375619E+00  0.51601766641E+01 -0.67424827182E+02  0.67630689957E+02  0.10000000000E+01 0.  0.
<mgrwt>
<rscale>  0 0.12499976E+03</rscale>
<asrwt>0</asrwt>
<pdfrwt beam="1">  1        4 0.88835759E-02 0.12499976E+03</pdfrwt>
<pdfrwt beam="2">  1       -4 0.10407438E-01 0.12499976E+03</pdfrwt>
<totfact> 0.10444410E+04</totfact>
</mgrwt>
</event>
<event>
 5    1  0.3199195E-002  0.1250002E+03  0.7818608E-02  0.1235069E+00
          4   -1    0    0  501    0  0.00000000000E+00  0.00000000000E+00  0.14168928966E+03  0.14169498123E+03  0.12700000000E+01 0. -1.
         -4   -1    0    0    0  501 -0.00000000000E+00 -0.00000000000E+00 -0.27548343271E+02  0.27577601726E+02  0.12700000000E+01 0. -1.
         25    2    1    2    0    0  0.00000000000E+00  0.00000000000E+00  0.11414094639E+03  0.16927258295E+03  0.12500020679E+03 0.  0.
    9000005    1    3    3    0    0 -0.62019743753E+02 -0.18522609378E+01  0.46992670606E+02  0.77840802774E+02  0.10000000000E+01 0.  0.
    9000005    1    3    3    0    0  0.62019743753E+02  0.18522609378E+01  0.67148275784E+02  0.91431780178E+02  0.10000000000E+01 0.  0.
<mgrwt>
<rscale>  0 0.12500021E+03</rscale>
<asrwt>0</asrwt>
<pdfrwt beam="1">  1        4 0.21801041E-01 0.12500021E+03</pdfrwt>
<pdfrwt beam="2">  1       -4 0.42408951E-02 0.12500021E+03</pdfrwt>
<totfact> 0.95583852E+03</totfact>
</mgrwt>
</event>
<event>
 5    1  0.3199195E-002  0.1250031E+03  0.7818608E-02  0.1235064E+00
         -4   -1    0    0    0  501 -0.00000000000E+00  0.00000000000E+00  0.25599841360E+03  0.25600156380E+03  0.12700000000E+01 0.  1.
          4   -1    0    0  501    0  0.00000000000E+00 -0.00000000000E+00 -0.15229957646E+02  0.15282817472E+02  0.12700000000E+01 0.  1.
         25    2    1    2    0    0  0.00000000000E+00  0.00000000000E+00  0.24076845595E+03  0.27128438127E+03  0.12500306451E+03 0.  0.
    9000005    1    3    3    0    0  0.25674705354E+02 -0.56182186331E+02  0.99817098603E+02  0.11738859284E+03  0.10000000000E+01 0.  0.
    9000005    1    3    3    0    0 -0.25674705354E+02  0.56182186331E+02  0.14095135735E+03  0.15389578843E+03  0.10000000000E+01 0.  0.
<mgrwt>
<rscale>  0 0.12500306E+03</rscale>
<asrwt>0</asrwt>
<pdfrwt beam="2">  1        4 0.23473789E-02 0.12500306E+03</pdfrwt>
<pdfrwt beam="1">  1       -4 0.39388679E-01 0.12500306E+03</pdfrwt>
<totfact> 0.79342674E+03</totfact>
</mgrwt>
</event>
<event>
 5    1  0.3199195E-002  0.1250003E+03  0.7818608E-02  0.1235069E+00
         -4   -1    0    0    0  501 -0.00000000000E+00  0.00000000000E+00  0.16881908825E+03  0.16882386519E+03  0.12700000000E+01 0. -1.
          4   -1    0    0  501    0  0.00000000000E+00 -0.00000000000E+00 -0.23116254353E+02  0.23151114775E+02  0.12700000000E+01 0. -1.
         25    2    1    2    0    0  0.00000000000E+00  0.00000000000E+00  0.14570283389E+03  0.19197497996E+03  0.12500030851E+03 0.  0.
    9000005    1    3    3    0    0  0.37797989273E+02  0.36029819380E+02  0.20130122068E+02  0.55973723229E+02  0.10000000000E+01 0.  0.
    9000005    1    3    3    0    0 -0.37797989273E+02 -0.36029819380E+02  0.12557271183E+03  0.13600125673E+03  0.10000000000E+01 0.  0.
<mgrwt>
<rscale>  0 0.12500031E+03</rscale>
<asrwt>0</asrwt>
<pdfrwt beam="2">  1        4 0.35593960E-02 0.12500031E+03</pdfrwt>
<pdfrwt beam="1">  1       -4 0.25975216E-01 0.12500031E+03</pdfrwt>
<totfact> 0.91504174E+03</totfact>
</mgrwt>
</event>
<event>
 5    1  0.3199195E-002  0.1249973E+03  0.7818608E-02  0.1235074E+00
          4   -1    0    0  501    0  0.00000000000E+00  0.00000000000E+00  0.97947172393E+02  0.97955405567E+02  0.12700000000E+01 0.  1.
         -4   -1    0    0    0  501 -0.00000000000E+00 -0.00000000000E+00 -0.39859439927E+02  0.39879667141E+02  0.12700000000E+01 0.  1.
         25    2    1    2    0    0  0.00000000000E+00  0.00000000000E+00  0.58087732466E+02  0.13783507271E+03  0.12499729039E+03 0.  0.
    9000005    1    3    3    0    0  0.48752186697E+02  0.17764566787E+02  0.67444670998E+02  0.85100759026E+02  0.10000000000E+01 0.  0.
    9000005    1    3    3    0    0 -0.48752186697E+02 -0.17764566787E+02 -0.93569385319E+01  0.52734313682E+02  0.10000000000E+01 0.  0.
<mgrwt>
<rscale>  0 0.12499729E+03</rscale>
<asrwt>0</asrwt>
<pdfrwt beam="1">  1        4 0.15070985E-01 0.12499729E+03</pdfrwt>
<pdfrwt beam="2">  1       -4 0.61344109E-02 0.12499729E+03</pdfrwt>
<totfact> 0.10179275E+04</totfact>
</mgrwt>
</event>
<event>
 5    1  0.3199195E-002  0.1250011E+03  0.7818608E-02  0.1235067E+00
          4   -1    0    0  501    0  0.00000000000E+00  0.00000000000E+00  0.36850477511E+02  0.36872355400E+02  0.12700000000E+01 0.  1.
         -4   -1    0    0    0  501 -0.00000000000E+00 -0.00000000000E+00 -0.10594749561E+03  0.10595510713E+03  0.12700000000E+01 0.  1.
         25    2    1    2    0    0  0.00000000000E+00  0.00000000000E+00 -0.69097018100E+02  0.14282746253E+03  0.12500114456E+03 0.  0.
    9000005    1    3    3    0    0  0.20183786796E+02  0.59130520400E+02 -0.35956212501E+02  0.72094749529E+02  0.10000000000E+01 0.  0.
    9000005    1    3    3    0    0 -0.20183786796E+02 -0.59130520400E+02 -0.33140805599E+02  0.70732712997E+02  0.10000000000E+01 0.  0.
<mgrwt>
<rscale>  0 0.12500114E+03</rscale>
<asrwt>0</asrwt>
<pdfrwt beam="1">  1        4 0.56715727E-02 0.12500114E+03</pdfrwt>
<pdfrwt beam="2">  1       -4 0.16301883E-01 0.12500114E+03</pdfrwt>
<totfact> 0.10075058E+04</totfact>
</mgrwt>
</event>
<event>
 5    1  0.3199195E-002  0.1250019E+03  0.7818608E-02  0.1235066E+00
          4   -1    0    0  501    0  0.00000000000E+00  0.00000000000E+00  0.49136084958E+01  0.50750811275E+01  0.12700000000E+01 0. -1.
         -4   -1    0    0    0  501 -0.00000000000E+00 -0.00000000000E+00 -0.78199611875E+03  0.78199715002E+03  0.12700000000E+01 0. -1.
         25    2    1    2    0    0  0.00000000000E+00  0.00000000000E+00 -0.77708251025E+03  0.78707223115E+03  0.12500187719E+03 0.  0.
    9000005    1    3    3    0    0  0.40231200311E+02 -0.23495525009E+02 -0.12628851949E+03  0.13461195834E+03  0.10000000000E+01 0.  0.
    9000005    1    3    3    0    0 -0.40231200311E+02  0.23495525009E+02 -0.65079399077E+03  0.65246027281E+03  0.10000000000E+01 0.  0.
<mgrwt>
<rscale>  0 0.12500188E+03</rscale>
<asrwt>0</asrwt>
<pdfrwt beam="1">  1        4 0.76844069E-03 0.12500188E+03</pdfrwt>
<pdfrwt beam="2">  1       -4 0.12031950E+00 0.12500188E+03</pdfrwt>
<totfact> 0.38846848E+03</totfact>
</mgrwt>
</event>
<event>
 5    1  0.3199195E-002  0.1250010E+03  0.7818608E-02  0.1235068E+00
          4   -1    0    0  501    0  0.00000000000E+00  0.00000000000E+00  0.26429491725E+03  0.26429796856E+03  0.12700000000E+01 0. -1.
         -4   -1    0    0    0  501 -0.00000000000E+00 -0.00000000000E+00 -0.14749706347E+02  0.14804281047E+02  0.12700000000E+01 0. -1.
         25    2    1    2    0    0  0.00000000000E+00  0.00000000000E+00  0.24954521091E+03  0.27910224961E+03  0.12500101380E+03 0.  0.
    9000005    1    3    3    0    0  0.10547396856E+01  0.60813743124E+02  0.15681071906E+03  0.16819638950E+03  0.10000000000E+01 0.  0.
    9000005    1    3    3    0    0 -0.10547396856E+01 -0.60813743124E+02  0.92734491843E+02  0.11090586011E+03  0.10000000000E+01 0.  0.
<mgrwt>
<rscale>  0 0.12500101E+03</rscale>
<asrwt>0</asrwt>
<pdfrwt beam="1">  1        4 0.40665189E-01 0.12500101E+03</pdfrwt>
<pdfrwt beam="2">  1       -4 0.22736184E-02 0.12500101E+03</pdfrwt>
<totfact> 0.78295526E+03</totfact>
</mgrwt>
</event>
<event>
 5    1  0.3199195E-002  0.1249993E+03  0.7818608E-02  0.1235070E+00
         -4   -1    0    0    0  501 -0.00000000000E+00  0.00000000000E+00  0.12244609165E+03  0.12245267763E+03  0.12700000000E+01 0.  1.
          4   -1    0    0  501    0  0.00000000000E+00 -0.00000000000E+00 -0.31881339024E+02  0.31906624359E+02  0.12700000000E+01 0.  1.
         25    2    1    2    0    0  0.00000000000E+00  0.00000000000E+00  0.90564752624E+02  0.15435930199E+03  0.12499927877E+03 0.  0.
    9000005    1    3    3    0    0 -0.23471073966E+02  0.28629601890E+02 -0.16888231334E+02  0.40703289487E+02  0.10000000000E+01 0.  0.
    9000005    1    3    3    0    0  0.23471073966E+02 -0.28629601890E+02  0.10745298396E+03  0.11365601251E+03  0.10000000000E+01 0.  0.
<mgrwt>
<rscale>  0 0.12499928E+03</rscale>
<asrwt>0</asrwt>
<pdfrwt beam="2">  1        4 0.49072731E-02 0.12499928E+03</pdfrwt>
<pdfrwt beam="1">  1       -4 0.18840312E-01 0.12499928E+03</pdfrwt>
<totfact> 0.98443020E+03</totfact>
</mgrwt>
</event>
<event>
 5    1  0.3199195E-002  0.1249975E+03  0.7818608E-02  0.1235073E+00
         -4   -1    0    0    0  501 -0.00000000000E+00  0.00000000000E+00  0.99264208982E+01  0.10007333903E+02  0.12700000000E+01 0. -1.
          4   -1    0    0  501    0  0.00000000000E+00 -0.00000000000E+00 -0.39182553252E+03  0.39182759070E+03  0.12700000000E+01 0. -1.
         25    2    1    2    0    0  0.00000000000E+00  0.00000000000E+00 -0.38189911162E+03  0.40183492461E+03  0.12499750067E+03 0.  0.
    9000005    1    3    3    0    0 -0.55864099387E+01  0.55400709505E+02 -0.28213995223E+03  0.28758372561E+03  0.10000000000E+01 0.  0.
    9000005    1    3    3    0    0  0.55864099387E+01 -0.55400709505E+02 -0.99759159392E+02  0.11425119900E+03  0.10000000000E+01 0.  0.
<mgrwt>
<rscale>  0 0.12499750E+03</rscale>
<asrwt>0</asrwt>
<pdfrwt beam="2">  1        4 0.60287222E-01 0.12499750E+03</pdfrwt>
<pdfrwt beam="1">  1       -4 0.15335244E-02 0.12499750E+03</pdfrwt>
<totfact> 0.64378274E+03</totfact>
</mgrwt>
</event>
<event>
 5    1  0.3199195E-002  0.1249988E+03  0.7818608E-02  0.1235071E+00
         -4   -1    0    0    0  501 -0.00000000000E+00  0.00000000000E+00  0.34736280580E+03  0.34736512742E+03  0.12700000000E+01 0. -1.
          4   -1    0    0  501    0  0.00000000000E+00 -0.00000000000E+00 -0.11206998177E+02  0.11278728126E+02  0.12700000000E+01 0. -1.
         25    2    1    2    0    0  0.00000000000E+00  0.00000000000E+00  0.33615580762E+03  0.35864385555E+03  0.12499875250E+03 0.  0.
    9000005    1    3    3    0    0 -0.26733448557E+02  0.47959565130E+02  0.82464026971E+02  0.99076298394E+02  0.10000000000E+01 0.  0.
    9000005    1    3    3    0    0  0.26733448557E+02 -0.47959565130E+02  0.25369178065E+03  0.25956755716E+03  0.10000000000E+01 0.  0.
<mgrwt>
<rscale>  0 0.12499875E+03</rscale>
<asrwt>0</asrwt>
<pdfrwt beam="2">  1        4 0.17298502E-02 0.12499875E+03</pdfrwt>
<pdfrwt beam="1">  1       -4 0.53446117E-01 0.12499875E+03</pdfrwt>
<totfact> 0.68785882E+03</totfact>
</mgrwt>
</event>
<event>
 5    1  0.3199195E-002  0.1250005E+03  0.7818608E-02  0.1235068E+00
          4   -1    0    0  501    0  0.00000000000E+00  0.00000000000E+00  0.59432998807E+02  0.59446566320E+02  0.12700000000E+01 0. -1.
         -4   -1    0    0    0  501 -0.00000000000E+00 -0.00000000000E+00 -0.65698613398E+02  0.65710887244E+02  0.12700000000E+01 0. -1.
         25    2    1    2    0    0  0.00000000000E+00  0.00000000000E+00 -0.62656145905E+01  0.12515745356E+03  0.12500052102E+03 0.  0.
    9000005    1    3    3    0    0  0.16929309446E+02  0.52820296143E+02  0.25690437699E+02  0.61135781602E+02  0.10000000000E+01 0.  0.
    9000005    1    3    3    0    0 -0.16929309446E+02 -0.52820296143E+02 -0.31956052289E+02  0.64021671962E+02  0.10000000000E+01 0.  0.
<mgrwt>
<rscale>  0 0.12500052E+03</rscale>
<asrwt>0</asrwt>
<pdfrwt beam="1">  1        4 0.91455261E-02 0.12500052E+03</pdfrwt>
<pdfrwt beam="2">  1       -4 0.10109467E-01 0.12500052E+03</pdfrwt>
<totfact> 0.10449321E+04</totfact>
</mgrwt>
</event>
<event>
 5    1  0.3199195E-002  0.1249791E+03  0.7818608E-02  0.1235102E+00
          4   -1    0    0  501    0  0.00000000000E+00  0.00000000000E+00  0.53033778135E+03  0.53033930198E+03  0.12700000000E+01 0.  1.
         -4   -1    0    0    0  501 -0.00000000000E+00 -0.00000000000E+00 -0.73068250132E+01  0.74163732224E+01  0.12700000000E+01 0.  1.
         25    2    1    2    0    0  0.00000000000E+00  0.00000000000E+00  0.52303095634E+03  0.53775567521E+03  0.12497913797E+03 0.  0.
    9000005    1    3    3    0    0 -0.23213964498E+02  0.20629475487E+01  0.12073832836E+02  0.26266353756E+02  0.10000000000E+01 0.  0.
    9000005    1    3    3    0    0  0.23213964498E+02 -0.20629475487E+01  0.51095712350E+03  0.51148932145E+03  0.10000000000E+01 0.  0.
<mgrwt>
<rscale>  0 0.12497914E+03</rscale>
<asrwt>0</asrwt>
<pdfrwt beam="1">  1        4 0.81598968E-01 0.12497914E+03</pdfrwt>
<pdfrwt beam="2">  1       -4 0.11326707E-02 0.12497914E+03</pdfrwt>
<totfact> 0.53073857E+03</totfact>
</mgrwt>
</event>
<event>
 5    1  0.3199195E-002  0.1250016E+03  0.7818608E-02  0.1235067E+00
          4   -1    0    0  501    0  0.00000000000E+00  0.00000000000E+00  0.48404811143E+02  0.48421468810E+02  0.12700000000E+01 0. -1.
         -4   -1    0    0    0  501 -0.00000000000E+00 -0.00000000000E+00 -0.80666094028E+02  0.80676090794E+02  0.12700000000E+01 0. -1.
         25    2    1    2    0    0  0.00000000000E+00  0.00000000000E+00 -0.32261282885E+02  0.12909755960E+03  0.12500155808E+03 0.  0.
    9000005    1    3    3    0    0 -0.47351122601E+02 -0.96557918902E+01  0.24790736989E+02  0.54322589859E+02  0.10000000000E+01 0.  0.
    9000005    1    3    3    0    0  0.47351122601E+02  0.96557918902E+01 -0.57052019874E+02  0.74774969745E+02  0.10000000000E+01 0.  0.
<mgrwt>
<rscale>  0 0.12500156E+03</rscale>
<asrwt>0</asrwt>
<pdfrwt beam="1">  1        4 0.74489444E-02 0.12500156E+03</pdfrwt>
<pdfrwt beam="2">  1       -4 0.12412219E-01 0.12500156E+03</pdfrwt>
<totfact> 0.10363486E+04</totfact>
</mgrwt>
</event>
<event>
 5    1  0.3199195E-002  0.1249989E+03  0.7818608E-02  0.1235071E+00
         -4   -1    0    0    0  501 -0.00000000000E+00  0.00000000000E+00  0.57601832673E+01  0.58985261949E+01  0.12700000000E+01 0.  1.
          4   -1    0    0  501    0  0.00000000000E+00 -0.00000000000E+00 -0.66994966747E+03  0.66995087121E+03  0.12700000000E+01 0.  1.
         25    2    1    2    0    0  0.00000000000E+00  0.00000000000E+00 -0.66418948420E+03  0.67584939741E+03  0.12499894822E+03 0.  0.
    9000005    1    3    3    0    0  0.25058933237E+02 -0.57156735606E+02 -0.34948234118E+03  0.35501232283E+03  0.10000000000E+01 0.  0.
    9000005    1    3    3    0    0 -0.25058933237E+02  0.57156735606E+02 -0.31470714302E+03  0.32083707458E+03  0.10000000000E+01 0.  0.
<mgrwt>
<rscale>  0 0.12499895E+03</rscale>
<asrwt>0</asrwt>
<pdfrwt beam="2">  1        4 0.10307985E+00 0.12499895E+03</pdfrwt>
<pdfrwt beam="1">  1       -4 0.89691693E-03 0.12499895E+03</pdfrwt>
<totfact> 0.44393647E+03</totfact>
</mgrwt>
</event>
<event>
 5    1  0.3199195E-002  0.1249995E+03  0.7818608E-02  0.1235070E+00
         -4   -1    0    0    0  501 -0.00000000000E+00  0.00000000000E+00  0.16434221073E+02  0.16483219415E+02  0.12700000000E+01 0.  1.
          4   -1    0    0  501    0  0.00000000000E+00 -0.00000000000E+00 -0.23728362080E+03  0.23728701945E+03  0.12700000000E+01 0.  1.
         25    2    1    2    0    0  0.00000000000E+00  0.00000000000E+00 -0.22084939973E+03  0.25377023887E+03  0.12499950710E+03 0.  0.
    9000005    1    3    3    0    0  0.30300309922E+02 -0.51376314858E+02 -0.72574977032E+02  0.93945525710E+02  0.10000000000E+01 0.  0.
    9000005    1    3    3    0    0 -0.30300309922E+02  0.51376314858E+02 -0.14827442270E+03  0.15982471316E+03  0.10000000000E+01 0.  0.
<mgrwt>
<rscale>  0 0.12499951E+03</rscale>
<asrwt>0</asrwt>
<pdfrwt beam="2">  1        4 0.36509200E-01 0.12499951E+03</pdfrwt>
<pdfrwt beam="1">  1       -4 0.25323724E-02 0.12499951E+03</pdfrwt>
<totfact> 0.81789246E+03</totfact>
</mgrwt>
</event>
<event>
 5    1  0.3199195E-002  0.1249921E+03  0.7818608E-02  0.1235082E+00
          4   -1    0    0  501    0  0.00000000000E+00  0.00000000000E+00  0.51932638251E+03  0.51932793538E+03  0.12700000000E+01 0.  1.
         -4   -1    0    0    0  501 -0.00000000000E+00 -0.00000000000E+00 -0.74656270583E+01  0.75728784074E+01  0.12700000000E+01 0.  1.
         25    2    1    2    0    0  0.00000000000E+00  0.00000000000E+00  0.51186075545E+03  0.52690081379E+03  0.12499213817E+03 0.  0.
    9000005    1    3    3    0    0  0.25252479297E+02 -0.44489889212E+02  0.10465891367E+03  0.11649689336E+03  0.10000000000E+01 0.  0.
    9000005    1    3    3    0    0 -0.25252479297E+02  0.44489889212E+02  0.40720184178E+03  0.41040392043E+03  0.10000000000E+01 0.  0.
<mgrwt>
<rscale>  0 0.12499214E+03</rscale>
<asrwt>0</asrwt>
<pdfrwt beam="1">  1        4 0.79904728E-01 0.12499214E+03</pdfrwt>
<pdfrwt beam="2">  1       -4 0.11569277E-02 0.12499214E+03</pdfrwt>
<totfact> 0.53845279E+03</totfact>
</mgrwt>
</event>
<event>
 5    1  0.3199195E-002  0.1250003E+03  0.7818608E-02  0.1235069E+00
          4   -1    0    0  501    0  0.00000000000E+00  0.00000000000E+00  0.80432971537E+01  0.81429435159E+01  0.12700000000E+01 0. -1.
         -4   -1    0    0    0  501 -0.00000000000E+00 -0.00000000000E+00 -0.48256502561E+03  0.48256669678E+03  0.12700000000E+01 0. -1.
         25    2    1    2    0    0  0.00000000000E+00  0.00000000000E+00 -0.47452172846E+03  0.49070964030E+03  0.12500032121E+03 0.  0.
    9000005    1    3    3    0    0  0.15564861247E+02 -0.59490637283E+02 -0.28095218844E+03  0.28760482093E+03  0.10000000000E+01 0.  0.
    9000005    1    3    3    0    0 -0.15564861247E+02  0.59490637283E+02 -0.19356954001E+03  0.20310481937E+03  0.10000000000E+01 0.  0.
<mgrwt>
<rscale>  0 0.12500032E+03</rscale>
<asrwt>0</asrwt>
<pdfrwt beam="1">  1        4 0.12452244E-02 0.12500032E+03</pdfrwt>
<pdfrwt beam="2">  1       -4 0.74248544E-01 0.12500032E+03</pdfrwt>
<totfact> 0.56592068E+03</totfact>
</mgrwt>
</event>
<event>
 5    1  0.3199195E-002  0.1249943E+03  0.7818608E-02  0.1235078E+00
          4   -1    0    0  501    0  0.00000000000E+00  0.00000000000E+00  0.16050563084E+03  0.16051065519E+03  0.12700000000E+01 0.  1.
         -4   -1    0    0    0  501 -0.00000000000E+00 -0.00000000000E+00 -0.24312946871E+02  0.24346093846E+02  0.12700000000E+01 0.  1.
         25    2    1    2    0    0  0.00000000000E+00  0.00000000000E+00  0.13619268396E+03  0.18485674904E+03  0.12499428187E+03 0.  0.
    9000005    1    3    3    0    0  0.51178910003E+02  0.25480537455E+02  0.10540370533E+03  0.11991446833E+03  0.10000000000E+01 0.  0.
    9000005    1    3    3    0    0 -0.51178910003E+02 -0.25480537455E+02  0.30788978638E+02  0.64942280709E+02  0.10000000000E+01 0.  0.
<mgrwt>
<rscale>  0 0.12499428E+03</rscale>
<asrwt>0</asrwt>
<pdfrwt beam="1">  1        4 0.24696111E-01 0.12499428E+03</pdfrwt>
<pdfrwt beam="2">  1       -4 0.37433895E-02 0.12499428E+03</pdfrwt>
<totfact> 0.92761892E+03</totfact>
</mgrwt>
</event>
<event>
 5    1  0.3199195E-002  0.1249976E+03  0.7818608E-02  0.1235073E+00
          4   -1    0    0  501    0  0.00000000000E+00  0.00000000000E+00  0.14560351925E+02  0.14615633691E+02  0.12700000000E+01 0. -1.
         -4   -1    0    0    0  501 -0.00000000000E+00 -0.00000000000E+00 -0.26770440074E+03  0.26770741319E+03  0.12700000000E+01 0. -1.
         25    2    1    2    0    0  0.00000000000E+00  0.00000000000E+00 -0.25314404882E+03  0.28232304688E+03  0.12499757337E+03 0.  0.
    9000005    1    3    3    0    0 -0.53131201500E+01 -0.14098482887E+02  0.10407806960E+02  0.18338999732E+02  0.10000000000E+01 0.  0.
    9000005    1    3    3    0    0  0.53131201500E+01  0.14098482887E+02 -0.26355185578E+03  0.26398404715E+03  0.10000000000E+01 0.  0.
<mgrwt>
<rscale>  0 0.12499757E+03</rscale>
<asrwt>0</asrwt>
<pdfrwt beam="1">  1        4 0.22445385E-02 0.12499757E+03</pdfrwt>
<pdfrwt beam="2">  1       -4 0.41189773E-01 0.12499757E+03</pdfrwt>
<totfact> 0.77875293E+03</totfact>
</mgrwt>
</event>
<event>
 5    1  0.3199195E-002  0.1250014E+03  0.7818608E-02  0.1235067E+00
         -4   -1    0    0    0  501 -0.00000000000E+00  0.00000000000E+00  0.18139990317E+02  0.18184392998E+02  0.12700000000E+01 0. -1.
          4   -1    0    0  501    0  0.00000000000E+00 -0.00000000000E+00 -0.21503454011E+03  0.21503829040E+03  0.12700000000E+01 0. -1.
         25    2    1    2    0    0  0.00000000000E+00  0.00000000000E+00 -0.19689454979E+03  0.23322268340E+03  0.12500142525E+03 0.  0.
    9000005    1    3    3    0    0  0.46584445181E+01 -0.61943218394E+02 -0.85700477081E+02  0.10585005991E+03  0.10000000000E+01 0.  0.
    9000005    1    3    3    0    0 -0.46584445181E+01  0.61943218394E+02 -0.11119407271E+03  0.12737262350E+03  0.10000000000E+01 0.  0.
<mgrwt>
<rscale>  0 0.12500143E+03</rscale>
<asrwt>0</asrwt>
<pdfrwt beam="2">  1        4 0.33085939E-01 0.12500143E+03</pdfrwt>
<pdfrwt beam="1">  1       -4 0.27944720E-02 0.12500143E+03</pdfrwt>
<totfact> 0.84814499E+03</totfact>
</mgrwt>
</event>
<event>
 5    1  0.3199195E-002  0.1249819E+03  0.7818608E-02  0.1235098E+00
         -4   -1    0    0    0  501 -0.00000000000E+00  0.00000000000E+00  0.21257958621E+02  0.21295861211E+02  0.12700000000E+01 0.  1.
          4   -1    0    0  501    0  0.00000000000E+00 -0.00000000000E+00 -0.18349782736E+03  0.18350222218E+03  0.12700000000E+01 0.  1.
         25    2    1    2    0    0  0.00000000000E+00  0.00000000000E+00 -0.16223986874E+03  0.20479808339E+03  0.12498191850E+03 0.  0.
    9000005    1    3    3    0    0  0.16671801485E+02 -0.39664166127E+02 -0.15536459687E+03  0.16121523811E+03  0.10000000000E+01 0.  0.
    9000005    1    3    3    0    0 -0.16671801485E+02  0.39664166127E+02 -0.68752718678E+01  0.43582845279E+02  0.10000000000E+01 0.  0.
<mgrwt>
<rscale>  0 0.12498192E+03</rscale>
<asrwt>0</asrwt>
<pdfrwt beam="2">  1        4 0.28233688E-01 0.12498192E+03</pdfrwt>
<pdfrwt beam="1">  1       -4 0.32737089E-02 0.12498192E+03</pdfrwt>
<totfact> 0.89368671E+03</totfact>
</mgrwt>
</event>
<event>
 5    1  0.3199195E-002  0.1250004E+03  0.7818608E-02  0.1235069E+00
          4   -1    0    0  501    0  0.00000000000E+00  0.00000000000E+00  0.12017759266E+03  0.12018430296E+03  0.12700000000E+01 0.  1.
         -4   -1    0    0    0  501 -0.00000000000E+00 -0.00000000000E+00 -0.32484158397E+02  0.32508974865E+02  0.12700000000E+01 0.  1.
         25    2    1    2    0    0  0.00000000000E+00  0.00000000000E+00  0.87693434259E+02  0.15269327782E+03  0.12500039472E+03 0.  0.
    9000005    1    3    3    0    0 -0.20953049575E+02  0.17814762141E+02 -0.24699973875E+02  0.36979517926E+02  0.10000000000E+01 0.  0.
    9000005    1    3    3    0    0  0.20953049575E+02 -0.17814762141E+02  0.11239340813E+03  0.11571375989E+03  0.10000000000E+01 0.  0.
<mgrwt>
<rscale>  0 0.12500039E+03</rscale>
<asrwt>0</asrwt>
<pdfrwt beam="1">  1        4 0.18491286E-01 0.12500039E+03</pdfrwt>
<pdfrwt beam="2">  1       -4 0.49999879E-02 0.12500039E+03</pdfrwt>
<totfact> 0.98768640E+03</totfact>
</mgrwt>
</event>
<event>
 5    1  0.3199195E-002  0.1250009E+03  0.7818608E-02  0.1235068E+00
          4   -1    0    0  501    0  0.00000000000E+00  0.00000000000E+00  0.14880465211E+03  0.14881007153E+03  0.12700000000E+01 0.  1.
         -4   -1    0    0    0  501 -0.00000000000E+00 -0.00000000000E+00 -0.26229988491E+02  0.26260715836E+02  0.12700000000E+01 0.  1.
         25    2    1    2    0    0  0.00000000000E+00  0.00000000000E+00  0.12257466362E+03  0.17507078737E+03  0.12500092971E+03 0.  0.
    9000005    1    3    3    0    0  0.72841923786E+01  0.41370917783E+02 -0.35131032051E+01  0.42165794086E+02  0.10000000000E+01 0.  0.
    9000005    1    3    3    0    0 -0.72841923786E+01 -0.41370917783E+02  0.12608776682E+03  0.13290499328E+03  0.10000000000E+01 0.  0.
<mgrwt>
<rscale>  0 0.12500093E+03</rscale>
<asrwt>0</asrwt>
<pdfrwt beam="1">  1        4 0.22895804E-01 0.12500093E+03</pdfrwt>
<pdfrwt beam="2">  1       -4 0.40381634E-02 0.12500093E+03</pdfrwt>
<totfact> 0.94509906E+03</totfact>
</mgrwt>
</event>
<event>
 5    1  0.3199195E-002  0.1249964E+03  0.7818608E-02  0.1235075E+00
          4   -1    0    0  501    0  0.00000000000E+00  0.00000000000E+00  0.12635425979E+02  0.12699090112E+02  0.12700000000E+01 0. -1.
         -4   -1    0    0    0  501 -0.00000000000E+00 -0.00000000000E+00 -0.30829089666E+03  0.30829351252E+03  0.12700000000E+01 0. -1.
         25    2    1    2    0    0  0.00000000000E+00  0.00000000000E+00 -0.29565547068E+03  0.32099260264E+03  0.12499637436E+03 0.  0.
    9000005    1    3    3    0    0  0.46163830295E+02 -0.36329719560E+02 -0.93105766479E+02  0.11009373962E+03  0.10000000000E+01 0.  0.
    9000005    1    3    3    0    0 -0.46163830295E+02  0.36329719560E+02 -0.20254970420E+03  0.21089886302E+03  0.10000000000E+01 0.  0.
<mgrwt>
<rscale>  0 0.12499637E+03</rscale>
<asrwt>0</asrwt>
<pdfrwt beam="1">  1        4 0.19490104E-02 0.12499637E+03</pdfrwt>
<pdfrwt beam="2">  1       -4 0.47434462E-01 0.12499637E+03</pdfrwt>
<totfact> 0.73044096E+03</totfact>
</mgrwt>
</event>
<event>
 5    1  0.3199195E-002  0.1250002E+03  0.7818608E-02  0.1235069E+00
          4   -1    0    0  501    0  0.00000000000E+00  0.00000000000E+00  0.43205524870E+02  0.43224186277E+02  0.12700000000E+01 0. -1.
         -4   -1    0    0    0  501 -0.00000000000E+00 -0.00000000000E+00 -0.90368489687E+02  0.90377413264E+02  0.12700000000E+01 0. -1.
         25    2    1    2    0    0  0.00000000000E+00  0.00000000000E+00 -0.47162964816E+02  0.13360159954E+03  0.12500016860E+03 0.  0.
    9000005    1    3    3    0    0  0.51083527707E+02  0.12201091963E+02  0.12614269610E+02  0.54023265783E+02  0.10000000000E+01 0.  0.
    9000005    1    3    3    0    0 -0.51083527707E+02 -0.12201091963E+02 -0.59777234426E+02  0.79578333758E+02  0.10000000000E+01 0.  0.
<mgrwt>
<rscale>  0 0.12500017E+03</rscale>
<asrwt>0</asrwt>
<pdfrwt beam="1">  1        4 0.66491258E-02 0.12500017E+03</pdfrwt>
<pdfrwt beam="2">  1       -4 0.13904966E-01 0.12500017E+03</pdfrwt>
<totfact> 0.10267591E+04</totfact>
</mgrwt>
</event>
<event>
 5    1  0.3199195E-002  0.1249998E+03  0.7818608E-02  0.1235070E+00
          4   -1    0    0  501    0  0.00000000000E+00  0.00000000000E+00  0.90377513467E+03  0.90377602698E+03  0.12700000000E+01 0.  1.
         -4   -1    0    0    0  501 -0.00000000000E+00 -0.00000000000E+00 -0.42279273803E+01  0.44145520649E+01  0.12700000000E+01 0.  1.
         25    2    1    2    0    0  0.00000000000E+00  0.00000000000E+00  0.89954720729E+03  0.90819057904E+03  0.12499979891E+03 0.  0.
    9000005    1    3    3    0    0 -0.65446431015E+01  0.38281776027E+02  0.80548158132E+03  0.80641794658E+03  0.10000000000E+01 0.  0.
    9000005    1    3    3    0    0  0.65446431015E+01 -0.38281776027E+02  0.94065625969E+02  0.10177263246E+03  0.10000000000E+01 0.  0.
<mgrwt>
<rscale>  0 0.12499980E+03</rscale>
<asrwt>0</asrwt>
<pdfrwt beam="1">  1        4 0.13905660E+00 0.12499980E+03</pdfrwt>
<pdfrwt beam="2">  1       -4 0.66487550E-03 0.12499980E+03</pdfrwt>
<totfact> 0.33848414E+03</totfact>
</mgrwt>
</event>
<event>
 5    1  0.3199195E-002  0.1249983E+03  0.7818608E-02  0.1235072E+00
          4   -1    0    0  501    0  0.00000000000E+00  0.00000000000E+00  0.47069325865E+02  0.47086455987E+02  0.12700000000E+01 0. -1.
         -4   -1    0    0    0  501 -0.00000000000E+00 -0.00000000000E+00 -0.82949943680E+02  0.82959665238E+02  0.12700000000E+01 0. -1.
         25    2    1    2    0    0  0.00000000000E+00  0.00000000000E+00 -0.35880617814E+02  0.13004612123E+03  0.12499829963E+03 0.  0.
    9000005    1    3    3    0    0  0.22412426418E+02 -0.28954727965E+02  0.34745113541E+02  0.50486790792E+02  0.10000000000E+01 0.  0.
    9000005    1    3    3    0    0 -0.22412426418E+02  0.28954727965E+02 -0.70625731355E+02  0.79559330433E+02  0.10000000000E+01 0.  0.
<mgrwt>
<rscale>  0 0.12499830E+03</rscale>
<asrwt>0</asrwt>
<pdfrwt beam="1">  1        4 0.72435003E-02 0.12499830E+03</pdfrwt>
<pdfrwt beam="2">  1       -4 0.12763595E-01 0.12499830E+03</pdfrwt>
<totfact> 0.10343918E+04</totfact>
</mgrwt>
</event>
<event>
 5    1  0.3199195E-002  0.1249716E+03  0.7818608E-02  0.1235114E+00
         -4   -1    0    0    0  501 -0.00000000000E+00  0.00000000000E+00  0.19890434239E+02  0.19930937615E+02  0.12700000000E+01 0. -1.
          4   -1    0    0  501    0  0.00000000000E+00 -0.00000000000E+00 -0.19605705774E+03  0.19606117104E+03  0.12700000000E+01 0. -1.
         25    2    1    2    0    0  0.00000000000E+00  0.00000000000E+00 -0.17616662350E+03  0.21599210866E+03  0.12497164385E+03 0.  0.
    9000005    1    3    3    0    0  0.16800301956E+02 -0.47464577424E+02 -0.15201610520E+03  0.16014066472E+03  0.10000000000E+01 0.  0.
    9000005    1    3    3    0    0 -0.16800301956E+02  0.47464577424E+02 -0.24150518302E+02  0.55851443940E+02  0.10000000000E+01 0.  0.
<mgrwt>
<rscale>  0 0.12497164E+03</rscale>
<asrwt>0</asrwt>
<pdfrwt beam="2">  1        4 0.30166055E-01 0.12497164E+03</pdfrwt>
<pdfrwt beam="1">  1       -4 0.30634990E-02 0.12497164E+03</pdfrwt>
<totfact> 0.87562014E+03</totfact>
</mgrwt>
</event>
<event>
 5    1  0.3199195E-002  0.1250043E+03  0.7818608E-02  0.1235063E+00
          4   -1    0    0  501    0  0.00000000000E+00  0.00000000000E+00  0.13325938436E+02  0.13386318956E+02  0.12700000000E+01 0.  1.
         -4   -1    0    0    0  501 -0.00000000000E+00 -0.00000000000E+00 -0.29242686153E+03  0.29242961930E+03  0.12700000000E+01 0.  1.
         25    2    1    2    0    0  0.00000000000E+00  0.00000000000E+00 -0.27910092309E+03  0.30581593826E+03  0.12500425121E+03 0.  0.
    9000005    1    3    3    0    0 -0.51494879004E+02  0.37018005896E+01 -0.53399148111E+02  0.74282534355E+02  0.10000000000E+01 0.  0.
    9000005    1    3    3    0    0  0.51494879004E+02 -0.37018005896E+01 -0.22570177498E+03  0.23153340390E+03  0.10000000000E+01 0.  0.
<mgrwt>
<rscale>  0 0.12500425E+03</rscale>
<asrwt>0</asrwt>
<pdfrwt beam="1">  1        4 0.20550014E-02 0.12500425E+03</pdfrwt>
<pdfrwt beam="2">  1       -4 0.44993600E-01 0.12500425E+03</pdfrwt>
<totfact> 0.74867981E+03</totfact>
</mgrwt>
</event>
<event>
 5    1  0.3199195E-002  0.1249982E+03  0.7818608E-02  0.1235072E+00
         -4   -1    0    0    0  501 -0.00000000000E+00  0.00000000000E+00  0.89689040206E+02  0.89698031378E+02  0.12700000000E+01 0. -1.
          4   -1    0    0  501    0  0.00000000000E+00 -0.00000000000E+00 -0.43531587912E+02  0.43550109600E+02  0.12700000000E+01 0. -1.
         25    2    1    2    0    0  0.00000000000E+00  0.00000000000E+00  0.46157452293E+02  0.13324814098E+03  0.12499822667E+03 0.  0.
    9000005    1    3    3    0    0  0.47861622568E+02 -0.40179647063E+02  0.23063097657E+02  0.66618656745E+02  0.10000000000E+01 0.  0.
    9000005    1    3    3    0    0 -0.47861622568E+02  0.40179647063E+02  0.23094354636E+02  0.66629484232E+02  0.10000000000E+01 0.  0.
<mgrwt>
<rscale>  0 0.12499823E+03</rscale>
<asrwt>0</asrwt>
<pdfrwt beam="2">  1        4 0.66992838E-02 0.12499823E+03</pdfrwt>
<pdfrwt beam="1">  1       -4 0.13800430E-01 0.12499823E+03</pdfrwt>
<totfact> 0.10275540E+04</totfact>
</mgrwt>
</event>
<event>
 5    1  0.3199195E-002  0.1250015E+03  0.7818608E-02  0.1235067E+00
          4   -1    0    0  501    0  0.00000000000E+00  0.00000000000E+00  0.29090553748E+02  0.29118262609E+02  0.12700000000E+01 0.  1.
         -4   -1    0    0    0  501 -0.00000000000E+00 -0.00000000000E+00 -0.13418764512E+03  0.13419365485E+03  0.12700000000E+01 0.  1.
         25    2    1    2    0    0  0.00000000000E+00  0.00000000000E+00 -0.10509709137E+03  0.16331191746E+03  0.12500153507E+03 0.  0.
    9000005    1    3    3    0    0 -0.54158701566E+02 -0.18212062379E+02 -0.19483989396E+02  0.60377727799E+02  0.10000000000E+01 0.  0.
    9000005    1    3    3    0    0  0.54158701566E+02  0.18212062379E+02 -0.85613101975E+02  0.10293418966E+03  0.10000000000E+01 0.  0.
<mgrwt>
<rscale>  0 0.12500154E+03</rscale>
<asrwt>0</asrwt>
<pdfrwt beam="1">  1        4 0.44780636E-02 0.12500154E+03</pdfrwt>
<pdfrwt beam="2">  1       -4 0.20646847E-01 0.12500154E+03</pdfrwt>
<totfact> 0.96704711E+03</totfact>
</mgrwt>
</event>
<event>
 5    1  0.3199195E-002  0.1249980E+03  0.7818608E-02  0.1235072E+00
          4   -1    0    0  501    0  0.00000000000E+00  0.00000000000E+00  0.12643604391E+02  0.12707227550E+02  0.12700000000E+01 0. -1.
         -4   -1    0    0    0  501 -0.00000000000E+00 -0.00000000000E+00 -0.30810053832E+03  0.30810315580E+03  0.12700000000E+01 0. -1.
         25    2    1    2    0    0  0.00000000000E+00  0.00000000000E+00 -0.29545693393E+03  0.32081038335E+03  0.12499800902E+03 0.  0.
    9000005    1    3    3    0    0  0.32850227904E+02 -0.42025387179E+02 -0.64174219613E+02  0.83454185658E+02  0.10000000000E+01 0.  0.
    9000005    1    3    3    0    0 -0.32850227904E+02  0.42025387179E+02 -0.23128271432E+03  0.23735619769E+03  0.10000000000E+01 0.  0.
<mgrwt>
<rscale>  0 0.12499801E+03</rscale>
<asrwt>0</asrwt>
<pdfrwt beam="1">  1        4 0.19502656E-02 0.12499801E+03</pdfrwt>
<pdfrwt beam="2">  1       -4 0.47405173E-01 0.12499801E+03</pdfrwt>
<totfact> 0.73063071E+03</totfact>
</mgrwt>
</event>
<event>
 5    1  0.3199195E-002  0.1249904E+03  0.7818608E-02  0.1235084E+00
         -4   -1    0    0    0  501 -0.00000000000E+00  0.00000000000E+00  0.49132516755E+02  0.49148927788E+02  0.12700000000E+01 0.  1.
          4   -1    0    0  501    0  0.00000000000E+00 -0.00000000000E+00 -0.79457441982E+02  0.79467590792E+02  0.12700000000E+01 0.  1.
         25    2    1    2    0    0  0.00000000000E+00  0.00000000000E+00 -0.30324925227E+02  0.12861651858E+03  0.12499043068E+03 0.  0.
    9000005    1    3    3    0    0 -0.52690266338E+02  0.19459333196E+02 -0.43337866425E+02  0.70951395205E+02  0.10000000000E+01 0.  0.
    9000005    1    3    3    0    0  0.52690266338E+02 -0.19459333196E+02  0.13012941198E+02  0.57665123375E+02  0.10000000000E+01 0.  0.
<mgrwt>
<rscale>  0 0.12499043E+03</rscale>
<asrwt>0</asrwt>
<pdfrwt beam="2">  1        4 0.12226265E-01 0.12499043E+03</pdfrwt>
<pdfrwt beam="1">  1       -4 0.75608918E-02 0.12499043E+03</pdfrwt>
<totfact> 0.10376436E+04</totfact>
</mgrwt>
</event>
<event>
 5    1  0.3199195E-002  0.1250024E+03  0.7818608E-02  0.1235065E+00
         -4   -1    0    0    0  501 -0.00000000000E+00  0.00000000000E+00  0.76477938666E+02  0.76488482810E+02  0.12700000000E+01 0. -1.
          4   -1    0    0  501    0  0.00000000000E+00 -0.00000000000E+00 -0.51056846452E+02  0.51072639149E+02  0.12700000000E+01 0. -1.
         25    2    1    2    0    0  0.00000000000E+00  0.00000000000E+00  0.25421092214E+02  0.12756112196E+03  0.12500243160E+03 0.  0.
    9000005    1    3    3    0    0  0.59235025604E+02 -0.13925379125E+02 -0.18180651090E+01  0.60885218262E+02  0.10000000000E+01 0.  0.
    9000005    1    3    3    0    0 -0.59235025604E+02  0.13925379125E+02  0.27239157323E+02  0.66675903696E+02  0.10000000000E+01 0.  0.
<mgrwt>
<rscale>  0 0.12500243E+03</rscale>
<asrwt>0</asrwt>
<pdfrwt beam="2">  1        4 0.78569254E-02 0.12500243E+03</pdfrwt>
<pdfrwt beam="1">  1       -4 0.11767863E-01 0.12500243E+03</pdfrwt>
<totfact> 0.10396406E+04</totfact>
</mgrwt>
</event>
<event>
 5    1  0.3199195E-002  0.1249997E+03  0.7818608E-02  0.1235070E+00
          4   -1    0    0  501    0  0.00000000000E+00  0.00000000000E+00  0.10622307870E+02  0.10697958893E+02  0.12700000000E+01 0. -1.
         -4   -1    0    0    0  501 -0.00000000000E+00 -0.00000000000E+00 -0.36635664176E+03  0.36635884303E+03  0.12700000000E+01 0. -1.
         25    2    1    2    0    0  0.00000000000E+00  0.00000000000E+00 -0.35573433389E+03  0.37705680192E+03  0.12499966226E+03 0.  0.
    9000005    1    3    3    0    0  0.38496066953E+02  0.44468744100E+02 -0.11417675327E+03  0.12843966428E+03  0.10000000000E+01 0.  0.
    9000005    1    3    3    0    0 -0.38496066953E+02 -0.44468744100E+02 -0.24155758062E+03  0.24861713764E+03  0.10000000000E+01 0.  0.
<mgrwt>
<rscale>  0 0.12499966E+03</rscale>
<asrwt>0</asrwt>
<pdfrwt beam="1">  1        4 0.16401901E-02 0.12499966E+03</pdfrwt>
<pdfrwt beam="2">  1       -4 0.56368539E-01 0.12499966E+03</pdfrwt>
<totfact> 0.66847572E+03</totfact>
</mgrwt>
</event>
<event>
 5    1  0.3199195E-002  0.1250094E+03  0.7818608E-02  0.1235055E+00
          4   -1    0    0  501    0  0.00000000000E+00  0.00000000000E+00  0.33775459605E+03  0.33775698373E+03  0.12700000000E+01 0.  1.
         -4   -1    0    0    0  501 -0.00000000000E+00 -0.00000000000E+00 -0.11529799115E+02  0.11599533078E+02  0.12700000000E+01 0.  1.
         25    2    1    2    0    0  0.00000000000E+00  0.00000000000E+00  0.32622479694E+03  0.34935651680E+03  0.12500943043E+03 0.  0.
    9000005    1    3    3    0    0 -0.12925815377E+02  0.60892750523E+02  0.17863100272E+03  0.18916933923E+03  0.10000000000E+01 0.  0.
    9000005    1    3    3    0    0  0.12925815377E+02 -0.60892750523E+02  0.14759379422E+03  0.16018717758E+03  0.10000000000E+01 0.  0.
<mgrwt>
<rscale>  0 0.12500943E+03</rscale>
<asrwt>0</asrwt>
<pdfrwt beam="1">  1        4 0.51967801E-01 0.12500943E+03</pdfrwt>
<pdfrwt beam="2">  1       -4 0.17793628E-02 0.12500943E+03</pdfrwt>
<totfact> 0.69780833E+03</totfact>
</mgrwt>
</event>
<event>
 5    1  0.3199195E-002  0.1249979E+03  0.7818608E-02  0.1235073E+00
          4   -1    0    0  501    0  0.00000000000E+00  0.00000000000E+00  0.85899249025E+03  0.85899342909E+03  0.12700000000E+01 0.  1.
         -4   -1    0    0    0  501 -0.00000000000E+00 -0.00000000000E+00 -0.44576911089E+01  0.46350738961E+01  0.12700000000E+01 0.  1.
         25    2    1    2    0    0  0.00000000000E+00  0.00000000000E+00  0.85453479914E+03  0.86362850298E+03  0.12499787283E+03 0.  0.
    9000005    1    3    3    0    0 -0.14752518640E+02  0.95048153881E+00  0.77635122519E+01  0.16727592292E+02  0.10000000000E+01 0.  0.
    9000005    1    3    3    0    0  0.14752518640E+02 -0.95048153881E+00  0.84677128689E+03  0.84690091069E+03  0.10000000000E+01 0.  0.
<mgrwt>
<rscale>  0 0.12499787E+03</rscale>
<asrwt>0</asrwt>
<pdfrwt beam="1">  1        4 0.13216643E+00 0.12499787E+03</pdfrwt>
<pdfrwt beam="2">  1       -4 0.69951554E-03 0.12499787E+03</pdfrwt>
<totfact> 0.35577678E+03</totfact>
</mgrwt>
</event>
<event>
 5    1  0.3199195E-002  0.1250058E+03  0.7818608E-02  0.1235060E+00
          4   -1    0    0  501    0  0.00000000000E+00  0.00000000000E+00  0.36616469812E+03  0.36616690053E+03  0.12700000000E+01 0.  1.
         -4   -1    0    0    0  501 -0.00000000000E+00 -0.00000000000E+00 -0.10628959925E+02  0.10704563938E+02  0.12700000000E+01 0.  1.
         25    2    1    2    0    0  0.00000000000E+00  0.00000000000E+00  0.35553573819E+03  0.37687146447E+03  0.12500575828E+03 0.  0.
    9000005    1    3    3    0    0 -0.33728821467E+02 -0.28388058185E+02  0.31131151039E+03  0.31441910207E+03  0.10000000000E+01 0.  0.
    9000005    1    3    3    0    0  0.33728821467E+02  0.28388058185E+02  0.44224227802E+02  0.62452362403E+02  0.10000000000E+01 0.  0.
<mgrwt>
<rscale>  0 0.12500576E+03</rscale>
<asrwt>0</asrwt>
<pdfrwt beam="1">  1        4 0.56339015E-01 0.12500576E+03</pdfrwt>
<pdfrwt beam="2">  1       -4 0.16412097E-02 0.12500576E+03</pdfrwt>
<totfact> 0.66857618E+03</totfact>
</mgrwt>
</event>
<event>
 5    1  0.3199195E-002  0.1250000E+03  0.7818608E-02  0.1235069E+00
         -4   -1    0    0    0  501 -0.00000000000E+00  0.00000000000E+00  0.62558352956E+02  0.62571242792E+02  0.12700000000E+01 0.  1.
          4   -1    0    0  501    0  0.00000000000E+00 -0.00000000000E+00 -0.62415957024E+02  0.62428876261E+02  0.12700000000E+01 0.  1.
         25    2    1    2    0    0  0.00000000000E+00  0.00000000000E+00  0.14239593228E+00  0.12500011905E+03  0.12500003795E+03 0.  0.
    9000005    1    3    3    0    0  0.26505372141E+02 -0.39566131899E+02  0.40534032154E+02  0.62546153427E+02  0.10000000000E+01 0.  0.
    9000005    1    3    3    0    0 -0.26505372141E+02  0.39566131899E+02 -0.40391636222E+02  0.62453965627E+02  0.10000000000E+01 0.  0.
<mgrwt>
<rscale>  0 0.12500004E+03</rscale>
<asrwt>0</asrwt>
<pdfrwt beam="2">  1        4 0.96044403E-02 0.12500004E+03</pdfrwt>
<pdfrwt beam="1">  1       -4 0.96263473E-02 0.12500004E+03</pdfrwt>
<totfact> 0.10452851E+04</totfact>
</mgrwt>
</event>
<event>
 5    1  0.3199195E-002  0.1250004E+03  0.7818608E-02  0.1235069E+00
         -4   -1    0    0    0  501 -0.00000000000E+00  0.00000000000E+00  0.36327141545E+03  0.36327363541E+03  0.12700000000E+01 0. -1.
          4   -1    0    0  501    0  0.00000000000E+00 -0.00000000000E+00 -0.10713290465E+02  0.10788303509E+02  0.12700000000E+01 0. -1.
         25    2    1    2    0    0  0.00000000000E+00  0.00000000000E+00  0.35255812498E+03  0.37406193892E+03  0.12500041061E+03 0.  0.
    9000005    1    3    3    0    0 -0.46621736804E+02 -0.37803503516E+02  0.22833321482E+03  0.23609266869E+03  0.10000000000E+01 0.  0.
    9000005    1    3    3    0    0  0.46621736804E+02  0.37803503516E+02  0.12422491017E+03  0.13796927023E+03  0.10000000000E+01 0.  0.
<mgrwt>
<rscale>  0 0.12500041E+03</rscale>
<asrwt>0</asrwt>
<pdfrwt beam="2">  1        4 0.16541397E-02 0.12500041E+03</pdfrwt>
<pdfrwt beam="1">  1       -4 0.55893844E-01 0.12500041E+03</pdfrwt>
<totfact> 0.67155506E+03</totfact>
</mgrwt>
</event>
<event>
 5    1  0.3199195E-002  0.1250006E+03  0.7818608E-02  0.1235068E+00
         -4   -1    0    0    0  501 -0.00000000000E+00  0.00000000000E+00  0.75461954441E+02  0.75472640527E+02  0.12700000000E+01 0.  1.
          4   -1    0    0  501    0  0.00000000000E+00 -0.00000000000E+00 -0.51742825484E+02  0.51758408873E+02  0.12700000000E+01 0.  1.
         25    2    1    2    0    0  0.00000000000E+00  0.00000000000E+00  0.23719128957E+02  0.12723104940E+03  0.12500057141E+03 0.  0.
    9000005    1    3    3    0    0 -0.41598550318E+02  0.43596612830E+02  0.28713461000E+02  0.66757523032E+02  0.10000000000E+01 0.  0.
    9000005    1    3    3    0    0  0.41598550318E+02 -0.43596612830E+02 -0.49943320432E+01  0.60473526368E+02  0.10000000000E+01 0.  0.
<mgrwt>
<rscale>  0 0.12500057E+03</rscale>
<asrwt>0</asrwt>
<pdfrwt beam="2">  1        4 0.79624554E-02 0.12500057E+03</pdfrwt>
<pdfrwt beam="1">  1       -4 0.11611552E-01 0.12500057E+03</pdfrwt>
<totfact> 0.10403996E+04</totfact>
</mgrwt>
</event>
<event>
 5    1  0.3199195E-002  0.1249888E+03  0.7818608E-02  0.1235087E+00
         -4   -1    0    0    0  501 -0.00000000000E+00  0.00000000000E+00  0.91385190292E+03  0.91385278539E+03  0.12700000000E+01 0.  1.
          4   -1    0    0  501    0  0.00000000000E+00 -0.00000000000E+00 -0.41784701217E+01  0.43672087834E+01  0.12700000000E+01 0.  1.
         25    2    1    2    0    0  0.00000000000E+00  0.00000000000E+00  0.90967343279E+03  0.91821999417E+03  0.12498881296E+03 0.  0.
    9000005    1    3    3    0    0 -0.59446221555E+02  0.18512598516E+02  0.41597612593E+03  0.42061111125E+03  0.10000000000E+01 0.  0.
    9000005    1    3    3    0    0  0.59446221555E+02 -0.18512598516E+02  0.49369730686E+03  0.49760888292E+03  0.10000000000E+01 0.  0.
<mgrwt>
<rscale>  0 0.12498881E+03</rscale>
<asrwt>0</asrwt>
<pdfrwt beam="2">  1        4 0.65742744E-03 0.12498881E+03</pdfrwt>
<pdfrwt beam="1">  1       -4 0.14060726E+00 0.12498881E+03</pdfrwt>
<totfact> 0.33479951E+03</totfact>
</mgrwt>
</event>
<event>
 5    1  0.3199195E-002  0.1250023E+03  0.7818608E-02  0.1235066E+00
          4   -1    0    0  501    0  0.00000000000E+00  0.00000000000E+00  0.24463152644E+03  0.24463482301E+03  0.12700000000E+01 0.  1.
         -4   -1    0    0    0  501 -0.00000000000E+00 -0.00000000000E+00 -0.15939819786E+02  0.15990333167E+02  0.12700000000E+01 0.  1.
         25    2    1    2    0    0  0.00000000000E+00  0.00000000000E+00  0.22869170665E+03  0.26062515618E+03  0.12500230133E+03 0.  0.
    9000005    1    3    3    0    0  0.20134914690E+02 -0.16846252907E+02  0.23258701478E+03  0.23406608142E+03  0.10000000000E+01 0.  0.
    9000005    1    3    3    0    0 -0.20134914690E+02  0.16846252907E+02 -0.38953081245E+01  0.26559074758E+02  0.10000000000E+01 0.  0.
<mgrwt>
<rscale>  0 0.12500230E+03</rscale>
<asrwt>0</asrwt>
<pdfrwt beam="1">  1        4 0.37639760E-01 0.12500230E+03</pdfrwt>
<pdfrwt beam="2">  1       -4 0.24564191E-02 0.12500230E+03</pdfrwt>
<totfact> 0.80814267E+03</totfact>
</mgrwt>
</event>
<event>
 5    1  0.3199195E-002  0.1250001E+03  0.7818608E-02  0.1235069E+00
         -4   -1    0    0    0  501 -0.00000000000E+00  0.00000000000E+00  0.67276798960E+01  0.68465010614E+01  0.12700000000E+01 0. -1.
          4   -1    0    0  501    0  0.00000000000E+00 -0.00000000000E+00 -0.57542265998E+03  0.57542406147E+03  0.12700000000E+01 0. -1.
         25    2    1    2    0    0  0.00000000000E+00  0.00000000000E+00 -0.56869498009E+03  0.58227056253E+03  0.12500011047E+03 0.  0.
    9000005    1    3    3    0    0 -0.59308187703E+02 -0.19168539552E+02 -0.30536754771E+03  0.31166525830E+03  0.10000000000E+01 0.  0.
    9000005    1    3    3    0    0  0.59308187703E+02  0.19168539552E+02 -0.26332743238E+03  0.27060530423E+03  0.10000000000E+01 0.  0.
<mgrwt>
<rscale>  0 0.12500011E+03</rscale>
<asrwt>0</asrwt>
<pdfrwt beam="2">  1        4 0.88535772E-01 0.12500011E+03</pdfrwt>
<pdfrwt beam="1">  1       -4 0.10442760E-02 0.12500011E+03</pdfrwt>
<totfact> 0.50006110E+03</totfact>
</mgrwt>
</event>
<event>
 5    1  0.3199195E-002  0.1249998E+03  0.7818608E-02  0.1235070E+00
          4   -1    0    0  501    0  0.00000000000E+00  0.00000000000E+00  0.24509341493E+02  0.24542223217E+02  0.12700000000E+01 0. -1.
         -4   -1    0    0    0  501 -0.00000000000E+00 -0.00000000000E+00 -0.15923513393E+03  0.15924019837E+03  0.12700000000E+01 0. -1.
         25    2    1    2    0    0  0.00000000000E+00  0.00000000000E+00 -0.13472579243E+03  0.18378242159E+03  0.12499975735E+03 0.  0.
    9000005    1    3    3    0    0 -0.86774444034E+00 -0.48072989747E+02 -0.12605324342E+03  0.13491547540E+03  0.10000000000E+01 0.  0.
    9000005    1    3    3    0    0  0.86774444034E+00  0.48072989747E+02 -0.86725490093E+01  0.48866946190E+02  0.10000000000E+01 0.  0.
<mgrwt>
<rscale>  0 0.12499976E+03</rscale>
<asrwt>0</asrwt>
<pdfrwt beam="1">  1        4 0.37735870E-02 0.12499976E+03</pdfrwt>
<pdfrwt beam="2">  1       -4 0.24500631E-01 0.12499976E+03</pdfrwt>
<totfact> 0.92941058E+03</totfact>
</mgrwt>
</event>
<event>
 4    1  0.3199195E-002  0.1250895E+03  0.7818608E-02  0.1234929E+00
          4   -1    0    0  501    0  0.00000000000E+00  0.00000000000E+00  0.24262074297E+02  0.24295290680E+02  0.12700000000E+01 0. -1.
         -4   -1    0    0    0  501 -0.00000000000E+00 -0.00000000000E+00 -0.16108694598E+03  0.16109195221E+03  0.12700000000E+01 0. -1.
    9000005    1    1    2    0    0  0.30007795046E+01  0.48650671418E+02 -0.10348483722E+02  0.49839578874E+02  0.10000000000E+01 0.  0.
    9000005    1    1    2    0    0 -0.30007795046E+01 -0.48650671418E+02 -0.12647638796E+03  0.13554766401E+03  0.10000000000E+01 0.  0.
<mgrwt>
<rscale>  0 0.12508951E+03</rscale>
<asrwt>0</asrwt>
<pdfrwt beam="1">  1        4 0.37355671E-02 0.12508951E+03</pdfrwt>
<pdfrwt beam="2">  1       -4 0.24785547E-01 0.12508951E+03</pdfrwt>
<totfact> 0.92470567E+03</totfact>
</mgrwt>
</event>
<event>
 5    1  0.3199195E-002  0.1249978E+03  0.7818608E-02  0.1235073E+00
          4   -1    0    0  501    0  0.00000000000E+00  0.00000000000E+00  0.53163413345E+03  0.53163565037E+03  0.12700000000E+01 0.  1.
         -4   -1    0    0    0  501 -0.00000000000E+00 -0.00000000000E+00 -0.72909467664E+01  0.74007300147E+01  0.12700000000E+01 0.  1.
         25    2    1    2    0    0  0.00000000000E+00  0.00000000000E+00  0.52434318668E+03  0.53903638039E+03  0.12499776783E+03 0.  0.
    9000005    1    3    3    0    0 -0.22987448055E+02  0.54489097341E+02  0.17510596175E+03  0.18482581621E+03  0.10000000000E+01 0.  0.
    9000005    1    3    3    0    0  0.22987448055E+02 -0.54489097341E+02  0.34923722493E+03  0.35421056418E+03  0.10000000000E+01 0.  0.
<mgrwt>
<rscale>  0 0.12499777E+03</rscale>
<asrwt>0</asrwt>
<pdfrwt beam="1">  1        4 0.81798476E-01 0.12499777E+03</pdfrwt>
<pdfrwt beam="2">  1       -4 0.11302450E-02 0.12499777E+03</pdfrwt>
<totfact> 0.52960497E+03</totfact>
</mgrwt>
</event>
<event>
 5    1  0.3199195E-002  0.1250016E+03  0.7818608E-02  0.1235067E+00
         -4   -1    0    0    0  501 -0.00000000000E+00  0.00000000000E+00  0.30498658644E+03  0.30498923065E+03  0.12700000000E+01 0. -1.
          4   -1    0    0  501    0  0.00000000000E+00 -0.00000000000E+00 -0.12774089215E+02  0.12837065680E+02  0.12700000000E+01 0. -1.
         25    2    1    2    0    0  0.00000000000E+00  0.00000000000E+00  0.29221249723E+03  0.31782629633E+03  0.12500164439E+03 0.  0.
    9000005    1    3    3    0    0  0.40489887774E+02  0.38686700082E+02  0.21662603018E+03  0.22374970106E+03  0.10000000000E+01 0.  0.
    9000005    1    3    3    0    0 -0.40489887774E+02 -0.38686700082E+02  0.75586467051E+02  0.94076595264E+02  0.10000000000E+01 0.  0.
<mgrwt>
<rscale>  0 0.12500164E+03</rscale>
<asrwt>0</asrwt>
<pdfrwt beam="2">  1        4 0.19702924E-02 0.12500164E+03</pdfrwt>
<pdfrwt beam="1">  1       -4 0.46926057E-01 0.12500164E+03</pdfrwt>
<totfact> 0.73412731E+03</totfact>
</mgrwt>
</event>
<event>
 5    1  0.3199195E-002  0.1249986E+03  0.7818608E-02  0.1235071E+00
          4   -1    0    0  501    0  0.00000000000E+00  0.00000000000E+00  0.48606489919E+01  0.50238241035E+01  0.12700000000E+01 0.  1.
         -4   -1    0    0    0  501 -0.00000000000E+00 -0.00000000000E+00 -0.79019948599E+03  0.79020050656E+03  0.12700000000E+01 0.  1.
         25    2    1    2    0    0  0.00000000000E+00  0.00000000000E+00 -0.78533883700E+03  0.79522433066E+03  0.12499858868E+03 0.  0.
    9000005    1    3    3    0    0 -0.18730926335E+02  0.48614635770E+02 -0.17312221016E+03  0.18079416491E+03  0.10000000000E+01 0.  0.
    9000005    1    3    3    0    0  0.18730926335E+02 -0.48614635770E+02 -0.61221662684E+03  0.61443016575E+03  0.10000000000E+01 0.  0.
<mgrwt>
<rscale>  0 0.12499859E+03</rscale>
<asrwt>0</asrwt>
<pdfrwt beam="1">  1        4 0.76042322E-03 0.12499859E+03</pdfrwt>
<pdfrwt beam="2">  1       -4 0.12158168E+00 0.12499859E+03</pdfrwt>
<totfact> 0.38480030E+03</totfact>
</mgrwt>
</event>
<event>
 5    1  0.3199195E-002  0.1249988E+03  0.7818608E-02  0.1235071E+00
         -4   -1    0    0    0  501 -0.00000000000E+00  0.00000000000E+00  0.95152994702E+01  0.95996783283E+01  0.12700000000E+01 0. -1.
          4   -1    0    0  501    0  0.00000000000E+00 -0.00000000000E+00 -0.40861759771E+03  0.40861957131E+03  0.12700000000E+01 0. -1.
         25    2    1    2    0    0  0.00000000000E+00  0.00000000000E+00 -0.39910229824E+03  0.41821924964E+03  0.12499878523E+03 0.  0.
    9000005    1    3    3    0    0 -0.20574213401E+02 -0.58733895358E+02 -0.21853840832E+03  0.22722896962E+03  0.10000000000E+01 0.  0.
    9000005    1    3    3    0    0  0.20574213401E+02  0.58733895358E+02 -0.18056388992E+03  0.19099028002E+03  0.10000000000E+01 0.  0.
<mgrwt>
<rscale>  0 0.12499879E+03</rscale>
<asrwt>0</asrwt>
<pdfrwt beam="2">  1        4 0.62870875E-01 0.12499879E+03</pdfrwt>
<pdfrwt beam="1">  1       -4 0.14705350E-02 0.12499879E+03</pdfrwt>
<totfact> 0.62820247E+03</totfact>
</mgrwt>
</event>
<event>
 5    1  0.3199195E-002  0.1249994E+03  0.7818608E-02  0.1235070E+00
         -4   -1    0    0    0  501 -0.00000000000E+00  0.00000000000E+00  0.52583621386E+03  0.52583774751E+03  0.12700000000E+01 0. -1.
          4   -1    0    0  501    0  0.00000000000E+00 -0.00000000000E+00 -0.73727313657E+01  0.74813145763E+01  0.12700000000E+01 0. -1.
         25    2    1    2    0    0  0.00000000000E+00  0.00000000000E+00  0.51846348249E+03  0.53331906208E+03  0.12499935722E+03 0.  0.
    9000005    1    3    3    0    0 -0.27292547219E+02 -0.35128599379E+02  0.71972950989E+02  0.84616826353E+02  0.10000000000E+01 0.  0.
    9000005    1    3    3    0    0  0.27292547219E+02  0.35128599379E+02  0.44649053150E+03  0.44870223573E+03  0.10000000000E+01 0.  0.
<mgrwt>
<rscale>  0 0.12499936E+03</rscale>
<asrwt>0</asrwt>
<pdfrwt beam="2">  1        4 0.11427371E-02 0.12499936E+03</pdfrwt>
<pdfrwt beam="1">  1       -4 0.80906337E-01 0.12499936E+03</pdfrwt>
<totfact> 0.53369579E+03</totfact>
</mgrwt>
</event>
<event>
 5    1  0.3199195E-002  0.1250007E+03  0.7818608E-02  0.1235068E+00
         -4   -1    0    0    0  501 -0.00000000000E+00  0.00000000000E+00  0.22100513145E+02  0.22136973173E+02  0.12700000000E+01 0.  1.
          4   -1    0    0  501    0  0.00000000000E+00 -0.00000000000E+00 -0.17656678364E+03  0.17657135098E+03  0.12700000000E+01 0.  1.
         25    2    1    2    0    0  0.00000000000E+00  0.00000000000E+00 -0.15446627050E+03  0.19870832415E+03  0.12500067746E+03 0.  0.
    9000005    1    3    3    0    0 -0.38732603041E+02 -0.11364890892E+02 -0.13960017097E+01  0.40402030940E+02  0.10000000000E+01 0.  0.
    9000005    1    3    3    0    0  0.38732603041E+02  0.11364890892E+02 -0.15307026879E+03  0.15830629321E+03  0.10000000000E+01 0.  0.
<mgrwt>
<rscale>  0 0.12500068E+03</rscale>
<asrwt>0</asrwt>
<pdfrwt beam="2">  1        4 0.27167276E-01 0.12500068E+03</pdfrwt>
<pdfrwt beam="1">  1       -4 0.34032350E-02 0.12500068E+03</pdfrwt>
<totfact> 0.90352414E+03</totfact>
</mgrwt>
</event>
<event>
 5    1  0.3199195E-002  0.1250004E+03  0.7818608E-02  0.1235069E+00
         -4   -1    0    0    0  501 -0.00000000000E+00  0.00000000000E+00  0.90512939691E+02  0.90521849028E+02  0.12700000000E+01 0. -1.
          4   -1    0    0  501    0  0.00000000000E+00 -0.00000000000E+00 -0.43136676819E+02  0.43155367997E+02  0.12700000000E+01 0. -1.
         25    2    1    2    0    0  0.00000000000E+00  0.00000000000E+00  0.47376262871E+02  0.13367721703E+03  0.12500035227E+03 0.  0.
    9000005    1    3    3    0    0 -0.16631997928E+02  0.43218210813E+02  0.68563236598E+02  0.82742700667E+02  0.10000000000E+01 0.  0.
    9000005    1    3    3    0    0  0.16631997928E+02 -0.43218210813E+02 -0.21186973727E+02  0.50934516358E+02  0.10000000000E+01 0.  0.
<mgrwt>
<rscale>  0 0.12500035E+03</rscale>
<asrwt>0</asrwt>
<pdfrwt beam="2">  1        4 0.66385350E-02 0.12500035E+03</pdfrwt>
<pdfrwt beam="1">  1       -4 0.13927191E-01 0.12500035E+03</pdfrwt>
<totfact> 0.10265946E+04</totfact>
</mgrwt>
</event>
<event>
 5    1  0.3199195E-002  0.1249986E+03  0.7818608E-02  0.1235071E+00
         -4   -1    0    0    0  501 -0.00000000000E+00  0.00000000000E+00  0.77258090017E+03  0.77258194401E+03  0.12700000000E+01 0.  1.
          4   -1    0    0  501    0  0.00000000000E+00 -0.00000000000E+00 -0.49751796046E+01  0.51347163600E+01  0.12700000000E+01 0.  1.
         25    2    1    2    0    0  0.00000000000E+00  0.00000000000E+00  0.76760572056E+03  0.77771666037E+03  0.12499864627E+03 0.  0.
    9000005    1    3    3    0    0  0.48352328483E+02  0.14903189821E+02  0.15561348343E+03  0.16363559809E+03  0.10000000000E+01 0.  0.
    9000005    1    3    3    0    0 -0.48352328483E+02 -0.14903189821E+02  0.61199223713E+03  0.61408106228E+03  0.10000000000E+01 0.  0.
<mgrwt>
<rscale>  0 0.12499865E+03</rscale>
<asrwt>0</asrwt>
<pdfrwt beam="2">  1        4 0.77776494E-03 0.12499865E+03</pdfrwt>
<pdfrwt beam="1">  1       -4 0.11887090E+00 0.12499865E+03</pdfrwt>
<totfact> 0.39280245E+03</totfact>
</mgrwt>
</event>
<event>
 5    1  0.3199195E-002  0.1250005E+03  0.7818608E-02  0.1235069E+00
         -4   -1    0    0    0  501 -0.00000000000E+00  0.00000000000E+00  0.46104390612E+03  0.46104565530E+03  0.12700000000E+01 0.  1.
          4   -1    0    0  501    0  0.00000000000E+00 -0.00000000000E+00 -0.84233195509E+01  0.85185217178E+01  0.12700000000E+01 0.  1.
         25    2    1    2    0    0  0.00000000000E+00  0.00000000000E+00  0.45262058657E+03  0.46956417702E+03  0.12500048381E+03 0.  0.
    9000005    1    3    3    0    0 -0.12366419827E+02  0.25871232399E+02  0.17730503457E+02  0.33728619272E+02  0.10000000000E+01 0.  0.
    9000005    1    3    3    0    0  0.12366419827E+02 -0.25871232399E+02  0.43489008311E+03  0.43583555774E+03  0.10000000000E+01 0.  0.
<mgrwt>
<rscale>  0 0.12500048E+03</rscale>
<asrwt>0</asrwt>
<pdfrwt beam="2">  1        4 0.13033532E-02 0.12500048E+03</pdfrwt>
<pdfrwt beam="1">  1       -4 0.70937286E-01 0.12500048E+03</pdfrwt>
<totfact> 0.58305020E+03</totfact>
</mgrwt>
</event>
<event>
 5    1  0.3199195E-002  0.1250009E+03  0.7818608E-02  0.1235068E+00
          4   -1    0    0  501    0  0.00000000000E+00  0.00000000000E+00  0.15049223073E+02  0.15102715488E+02  0.12700000000E+01 0.  1.
         -4   -1    0    0    0  501 -0.00000000000E+00 -0.00000000000E+00 -0.25905298001E+03  0.25905609306E+03  0.12700000000E+01 0.  1.
         25    2    1    2    0    0  0.00000000000E+00  0.00000000000E+00 -0.24400375694E+03  0.27415880855E+03  0.12500087562E+03 0.  0.
    9000005    1    3    3    0    0 -0.11459605370E+02  0.40257539594E+02 -0.20226506707E+02  0.46498426027E+02  0.10000000000E+01 0.  0.
    9000005    1    3    3    0    0  0.11459605370E+02 -0.40257539594E+02 -0.22377725023E+03  0.22766038252E+03  0.10000000000E+01 0.  0.
<mgrwt>
<rscale>  0 0.12500088E+03</rscale>
<asrwt>0</asrwt>
<pdfrwt beam="1">  1        4 0.23196195E-02 0.12500088E+03</pdfrwt>
<pdfrwt beam="2">  1       -4 0.39858656E-01 0.12500088E+03</pdfrwt>
<totfact> 0.78957498E+03</totfact>
</mgrwt>
</event>
<event>
 5    1  0.3199195E-002  0.1250016E+03  0.7818608E-02  0.1235067E+00
          4   -1    0    0  501    0  0.00000000000E+00  0.00000000000E+00  0.49487972032E+01  0.51091578326E+01  0.12700000000E+01 0. -1.
         -4   -1    0    0    0  501 -0.00000000000E+00 -0.00000000000E+00 -0.77660736892E+03  0.77660840734E+03  0.12700000000E+01 0. -1.
         25    2    1    2    0    0  0.00000000000E+00  0.00000000000E+00 -0.77165857171E+03  0.78171756517E+03  0.12500160161E+03 0.  0.
    9000005    1    3    3    0    0  0.17537017800E+02  0.47987231024E+02 -0.61087668640E+03  0.61301031584E+03  0.10000000000E+01 0.  0.
    9000005    1    3    3    0    0 -0.17537017800E+02 -0.47987231024E+02 -0.16078188531E+03  0.16870724934E+03  0.10000000000E+01 0.  0.
<mgrwt>
<rscale>  0 0.12500160E+03</rscale>
<asrwt>0</asrwt>
<pdfrwt beam="1">  1        4 0.77376935E-03 0.12500160E+03</pdfrwt>
<pdfrwt beam="2">  1       -4 0.11949038E+00 0.12500160E+03</pdfrwt>
<totfact> 0.39092706E+03</totfact>
</mgrwt>
</event>
<event>
 5    1  0.3199195E-002  0.1250006E+03  0.7818608E-02  0.1235068E+00
          4   -1    0    0  501    0  0.00000000000E+00  0.00000000000E+00  0.24483584290E+03  0.24483913672E+03  0.12700000000E+01 0.  1.
         -4   -1    0    0    0  501 -0.00000000000E+00 -0.00000000000E+00 -0.15926032512E+02  0.15976589485E+02  0.12700000000E+01 0.  1.
         25    2    1    2    0    0  0.00000000000E+00  0.00000000000E+00  0.22890981039E+03  0.26081572620E+03  0.12500056697E+03 0.  0.
    9000005    1    3    3    0    0 -0.42404834362E+02  0.68538384181E+01  0.19750496627E+02  0.47288763944E+02  0.10000000000E+01 0.  0.
    9000005    1    3    3    0    0  0.42404834362E+02 -0.68538384181E+01  0.20915931376E+03  0.21352696226E+03  0.10000000000E+01 0.  0.
<mgrwt>
<rscale>  0 0.12500057E+03</rscale>
<asrwt>0</asrwt>
<pdfrwt beam="1">  1        4 0.37671193E-01 0.12500057E+03</pdfrwt>
<pdfrwt beam="2">  1       -4 0.24543014E-02 0.12500057E+03</pdfrwt>
<totfact> 0.80790702E+03</totfact>
</mgrwt>
</event>
<event>
 5    1  0.3199195E-002  0.1250060E+03  0.7818608E-02  0.1235060E+00
         -4   -1    0    0    0  501 -0.00000000000E+00  0.00000000000E+00  0.18061064707E+03  0.18061511215E+03  0.12700000000E+01 0.  1.
          4   -1    0    0  501    0  0.00000000000E+00 -0.00000000000E+00 -0.21606706604E+02  0.21643998481E+02  0.12700000000E+01 0.  1.
         25    2    1    2    0    0  0.00000000000E+00  0.00000000000E+00  0.15900394047E+03  0.20225911063E+03  0.12500597885E+03 0.  0.
    9000005    1    3    3    0    0  0.16763954545E+02 -0.59369119270E+02  0.95673929673E+02  0.11384297657E+03  0.10000000000E+01 0.  0.
    9000005    1    3    3    0    0 -0.16763954545E+02  0.59369119270E+02  0.63330010797E+02  0.88416134062E+02  0.10000000000E+01 0.  0.
<mgrwt>
<rscale>  0 0.12500598E+03</rscale>
<asrwt>0</asrwt>
<pdfrwt beam="2">  1        4 0.33273207E-02 0.12500598E+03</pdfrwt>
<pdfrwt beam="1">  1       -4 0.27789466E-01 0.12500598E+03</pdfrwt>
<totfact> 0.89743877E+03</totfact>
</mgrwt>
</event>
<event>
 5    1  0.3199195E-002  0.1249972E+03  0.7818608E-02  0.1235074E+00
          4   -1    0    0  501    0  0.00000000000E+00  0.00000000000E+00  0.84193533595E+01  0.85145998727E+01  0.12700000000E+01 0. -1.
         -4   -1    0    0    0  501 -0.00000000000E+00 -0.00000000000E+00 -0.46123449107E+03  0.46123623952E+03  0.12700000000E+01 0. -1.
         25    2    1    2    0    0  0.00000000000E+00  0.00000000000E+00 -0.45281513771E+03  0.46975083940E+03  0.12499720867E+03 0.  0.
    9000005    1    3    3    0    0  0.39448016183E+02  0.25874054207E+02 -0.38041882212E+03  0.38333417913E+03  0.10000000000E+01 0.  0.
    9000005    1    3    3    0    0 -0.39448016183E+02 -0.25874054207E+02 -0.72396315586E+02  0.86416660270E+02  0.10000000000E+01 0.  0.
<mgrwt>
<rscale>  0 0.12499721E+03</rscale>
<asrwt>0</asrwt>
<pdfrwt beam="1">  1        4 0.13027466E-02 0.12499721E+03</pdfrwt>
<pdfrwt beam="2">  1       -4 0.70966594E-01 0.12499721E+03</pdfrwt>
<totfact> 0.58293756E+03</totfact>
</mgrwt>
</event>
<event>
 5    1  0.3199195E-002  0.1250027E+03  0.7818608E-02  0.1235065E+00
          4   -1    0    0  501    0  0.00000000000E+00  0.00000000000E+00  0.49999331642E+03  0.49999492934E+03  0.12700000000E+01 0. -1.
         -4   -1    0    0    0  501 -0.00000000000E+00 -0.00000000000E+00 -0.77597001813E+01  0.78629413646E+01  0.12700000000E+01 0. -1.
         25    2    1    2    0    0  0.00000000000E+00  0.00000000000E+00  0.49223361624E+03  0.50785787071E+03  0.12500273549E+03 0.  0.
    9000005    1    3    3    0    0 -0.57406858859E+02 -0.12857949876E+02  0.33177745346E+03  0.33695422974E+03  0.10000000000E+01 0.  0.
    9000005    1    3    3    0    0  0.57406858859E+02  0.12857949876E+02  0.16045616279E+03  0.17090364096E+03  0.10000000000E+01 0.  0.
<mgrwt>
<rscale>  0 0.12500274E+03</rscale>
<asrwt>0</asrwt>
<pdfrwt beam="1">  1        4 0.76930106E-01 0.12500274E+03</pdfrwt>
<pdfrwt beam="2">  1       -4 0.12018659E-02 0.12500274E+03</pdfrwt>
<totfact> 0.55256486E+03</totfact>
</mgrwt>
</event>
<event>
 5    1  0.3199195E-002  0.1250019E+03  0.7818608E-02  0.1235066E+00
         -4   -1    0    0    0  501 -0.00000000000E+00  0.00000000000E+00  0.15269838813E+03  0.15270366937E+03  0.12700000000E+01 0.  1.
          4   -1    0    0  501    0  0.00000000000E+00 -0.00000000000E+00 -0.25560772049E+02  0.25592302900E+02  0.12700000000E+01 0.  1.
         25    2    1    2    0    0  0.00000000000E+00  0.00000000000E+00  0.12713761608E+03  0.17829597227E+03  0.12500192120E+03 0.  0.
    9000005    1    3    3    0    0 -0.57704879791E+01  0.30795277608E+02  0.14069340611E+03  0.14414326962E+03  0.10000000000E+01 0.  0.
    9000005    1    3    3    0    0  0.57704879791E+01 -0.30795277608E+02 -0.13555790030E+02  0.34152702642E+02  0.10000000000E+01 0.  0.
<mgrwt>
<rscale>  0 0.12500192E+03</rscale>
<asrwt>0</asrwt>
<pdfrwt beam="2">  1        4 0.39352581E-02 0.12500192E+03</pdfrwt>
<pdfrwt beam="1">  1       -4 0.23494892E-01 0.12500192E+03</pdfrwt>
<totfact> 0.93920589E+03</totfact>
</mgrwt>
</event>
<event>
 5    1  0.3199195E-002  0.1249974E+03  0.7818608E-02  0.1235073E+00
          4   -1    0    0  501    0  0.00000000000E+00  0.00000000000E+00  0.13120327034E+03  0.13120941677E+03  0.12700000000E+01 0.  1.
         -4   -1    0    0    0  501 -0.00000000000E+00 -0.00000000000E+00 -0.29750884578E+02  0.29777978997E+02  0.12700000000E+01 0.  1.
         25    2    1    2    0    0  0.00000000000E+00  0.00000000000E+00  0.10145238577E+03  0.16098739577E+03  0.12499742005E+03 0.  0.
    9000005    1    3    3    0    0 -0.13683470898E+02  0.55667493559E+02  0.82768934975E+02  0.10068666154E+03  0.10000000000E+01 0.  0.
    9000005    1    3    3    0    0  0.13683470898E+02 -0.55667493559E+02  0.18683450792E+02  0.60300734228E+02  0.10000000000E+01 0.  0.
<mgrwt>
<rscale>  0 0.12499742E+03</rscale>
<asrwt>0</asrwt>
<pdfrwt beam="1">  1        4 0.20187675E-01 0.12499742E+03</pdfrwt>
<pdfrwt beam="2">  1       -4 0.45796163E-02 0.12499742E+03</pdfrwt>
<totfact> 0.97158394E+03</totfact>
</mgrwt>
</event>
<event>
 5    1  0.3199195E-002  0.1250037E+03  0.7818608E-02  0.1235063E+00
         -4   -1    0    0    0  501 -0.00000000000E+00  0.00000000000E+00  0.53951565004E+02  0.53966510600E+02  0.12700000000E+01 0. -1.
          4   -1    0    0  501    0  0.00000000000E+00 -0.00000000000E+00 -0.72376667821E+02  0.72387809366E+02  0.12700000000E+01 0. -1.
         25    2    1    2    0    0  0.00000000000E+00  0.00000000000E+00 -0.18425102817E+02  0.12635431997E+03  0.12500371899E+03 0.  0.
    9000005    1    3    3    0    0 -0.26088526942E+02 -0.29857457504E+02 -0.58039780278E+02  0.70297191277E+02  0.10000000000E+01 0.  0.
    9000005    1    3    3    0    0  0.26088526942E+02  0.29857457504E+02  0.39614677461E+02  0.56057128690E+02  0.10000000000E+01 0.  0.
<mgrwt>
<rscale>  0 0.12500372E+03</rscale>
<asrwt>0</asrwt>
<pdfrwt beam="2">  1        4 0.11136879E-01 0.12500372E+03</pdfrwt>
<pdfrwt beam="1">  1       -4 0.83022475E-02 0.12500372E+03</pdfrwt>
<totfact> 0.10422332E+04</totfact>
</mgrwt>
</event>
<event>
 5    1  0.3199195E-002  0.1250007E+03  0.7818608E-02  0.1235068E+00
          4   -1    0    0  501    0  0.00000000000E+00  0.00000000000E+00  0.27245635834E+03  0.27245931825E+03  0.12700000000E+01 0. -1.
         -4   -1    0    0    0  501 -0.00000000000E+00 -0.00000000000E+00 -0.14306150124E+02  0.14362410361E+02  0.12700000000E+01 0. -1.
         25    2    1    2    0    0  0.00000000000E+00  0.00000000000E+00  0.25815020821E+03  0.28682172861E+03  0.12500069600E+03 0.  0.
    9000005    1    3    3    0    0 -0.20220499816E+02 -0.43965003284E+02  0.21980471096E+03  0.22507088014E+03  0.10000000000E+01 0.  0.
    9000005    1    3    3    0    0  0.20220499816E+02  0.43965003284E+02  0.38345497251E+02  0.61750848464E+02  0.10000000000E+01 0.  0.
<mgrwt>
<rscale>  0 0.12500070E+03</rscale>
<asrwt>0</asrwt>
<pdfrwt beam="1">  1        4 0.41920918E-01 0.12500070E+03</pdfrwt>
<pdfrwt beam="2">  1       -4 0.22055016E-02 0.12500070E+03</pdfrwt>
<totfact> 0.77281005E+03</totfact>
</mgrwt>
</event>
<event>
 5    1  0.3199195E-002  0.1249987E+03  0.7818608E-02  0.1235071E+00
          4   -1    0    0  501    0  0.00000000000E+00  0.00000000000E+00  0.50699906178E+03  0.50700065242E+03  0.12700000000E+01 0. -1.
         -4   -1    0    0    0  501 -0.00000000000E+00 -0.00000000000E+00 -0.76505334633E+01  0.77552280607E+01  0.12700000000E+01 0. -1.
         25    2    1    2    0    0  0.00000000000E+00  0.00000000000E+00  0.49934852832E+03  0.51475588048E+03  0.12499865499E+03 0.  0.
    9000005    1    3    3    0    0  0.50817022335E+02 -0.28744842165E+02  0.15791100655E+03  0.16836128325E+03  0.10000000000E+01 0.  0.
    9000005    1    3    3    0    0 -0.50817022335E+02  0.28744842165E+02  0.34143752177E+03  0.34639459722E+03  0.10000000000E+01 0.  0.
<mgrwt>
<rscale>  0 0.12499865E+03</rscale>
<asrwt>0</asrwt>
<pdfrwt beam="1">  1        4 0.78008031E-01 0.12499865E+03</pdfrwt>
<pdfrwt beam="2">  1       -4 0.11851809E-02 0.12499865E+03</pdfrwt>
<totfact> 0.54739013E+03</totfact>
</mgrwt>
</event>
<event>
 4    1  0.3199195E-002  0.1251052E+03  0.7818608E-02  0.1234905E+00
          4   -1    0    0  501    0  0.00000000000E+00  0.00000000000E+00  0.12257234549E+03  0.12257892469E+03  0.12700000000E+01 0.  1.
         -4   -1    0    0    0  501 -0.00000000000E+00 -0.00000000000E+00 -0.31902533772E+02  0.31927802322E+02  0.12700000000E+01 0.  1.
    9000005    1    1    2    0    0  0.27375848134E+02 -0.55980679673E+02  0.38735383386E+02  0.73380538863E+02  0.10000000000E+01 0.  0.
    9000005    1    1    2    0    0 -0.27375848134E+02  0.55980679673E+02  0.51934428328E+02  0.81126188148E+02  0.10000000000E+01 0.  0.
<mgrwt>
<rscale>  0 0.12510521E+03</rscale>
<asrwt>0</asrwt>
<pdfrwt beam="1">  1        4 0.18859734E-01 0.12510521E+03</pdfrwt>
<pdfrwt beam="2">  1       -4 0.49105319E-02 0.12510521E+03</pdfrwt>
<totfact> 0.98179908E+03</totfact>
</mgrwt>
</event>
<event>
 5    1  0.3199195E-002  0.1250021E+03  0.7818608E-02  0.1235066E+00
         -4   -1    0    0    0  501 -0.00000000000E+00  0.00000000000E+00  0.25332271435E+02  0.25364086344E+02  0.12700000000E+01 0.  1.
          4   -1    0    0  501    0  0.00000000000E+00 -0.00000000000E+00 -0.15407444365E+03  0.15407967772E+03  0.12700000000E+01 0.  1.
         25    2    1    2    0    0  0.00000000000E+00  0.00000000000E+00 -0.12874217222E+03  0.17944376406E+03  0.12500207020E+03 0.  0.
    9000005    1    3    3    0    0  0.12784187915E+02  0.60630069884E+02 -0.76027927145E+02  0.98085098464E+02  0.10000000000E+01 0.  0.
    9000005    1    3    3    0    0 -0.12784187915E+02 -0.60630069884E+02 -0.52714245073E+02  0.81358665601E+02  0.10000000000E+01 0.  0.
<mgrwt>
<rscale>  0 0.12500207E+03</rscale>
<asrwt>0</asrwt>
<pdfrwt beam="2">  1        4 0.23706610E-01 0.12500207E+03</pdfrwt>
<pdfrwt beam="1">  1       -4 0.39001225E-02 0.12500207E+03</pdfrwt>
<totfact> 0.93712873E+03</totfact>
</mgrwt>
</event>
<event>
 5    1  0.3199195E-002  0.1249958E+03  0.7818608E-02  0.1235076E+00
          4   -1    0    0  501    0  0.00000000000E+00  0.00000000000E+00  0.15146012135E+02  0.15199163911E+02  0.12700000000E+01 0. -1.
         -4   -1    0    0    0  501 -0.00000000000E+00 -0.00000000000E+00 -0.25738224686E+03  0.25738538012E+03  0.12700000000E+01 0. -1.
         25    2    1    2    0    0  0.00000000000E+00  0.00000000000E+00 -0.24223623473E+03  0.27258454403E+03  0.12499576085E+03 0.  0.
    9000005    1    3    3    0    0 -0.44162652023E+02  0.40322249833E+02 -0.81577235773E+02  0.10115369030E+03  0.10000000000E+01 0.  0.
    9000005    1    3    3    0    0  0.44162652023E+02 -0.40322249833E+02 -0.16065899895E+03  0.17143085373E+03  0.10000000000E+01 0.  0.
<mgrwt>
<rscale>  0 0.12499576E+03</rscale>
<asrwt>0</asrwt>
<pdfrwt beam="1">  1        4 0.23344855E-02 0.12499576E+03</pdfrwt>
<pdfrwt beam="2">  1       -4 0.39601595E-01 0.12499576E+03</pdfrwt>
<totfact> 0.79179194E+03</totfact>
</mgrwt>
</event>
<event>
 5    1  0.3199195E-002  0.1250035E+03  0.7818608E-02  0.1235064E+00
          4   -1    0    0  501    0  0.00000000000E+00  0.00000000000E+00  0.52871609315E+02  0.52886860104E+02  0.12700000000E+01 0.  1.
         -4   -1    0    0    0  501 -0.00000000000E+00 -0.00000000000E+00 -0.73854623109E+02  0.73865541726E+02  0.12700000000E+01 0.  1.
         25    2    1    2    0    0  0.00000000000E+00  0.00000000000E+00 -0.20983013793E+02  0.12675240183E+03  0.12500353796E+03 0.  0.
    9000005    1    3    3    0    0 -0.41356440188E+02  0.32159906073E+02  0.24056511857E+02  0.57657007088E+02  0.10000000000E+01 0.  0.
    9000005    1    3    3    0    0  0.41356440188E+02 -0.32159906073E+02 -0.45039525650E+02  0.69095394741E+02  0.10000000000E+01 0.  0.
<mgrwt>
<rscale>  0 0.12500354E+03</rscale>
<asrwt>0</asrwt>
<pdfrwt beam="1">  1        4 0.81361068E-02 0.12500354E+03</pdfrwt>
<pdfrwt beam="2">  1       -4 0.11364263E-01 0.12500354E+03</pdfrwt>
<totfact> 0.10413698E+04</totfact>
</mgrwt>
</event>
<event>
 5    1  0.3199195E-002  0.1249987E+03  0.7818608E-02  0.1235071E+00
          4   -1    0    0  501    0  0.00000000000E+00  0.00000000000E+00  0.28162116593E+01  0.30893281001E+01  0.12700000000E+01 0.  1.
         -4   -1    0    0    0  501 -0.00000000000E+00 -0.00000000000E+00 -0.13226092524E+04  0.13226098621E+04  0.12700000000E+01 0.  1.
         25    2    1    2    0    0  0.00000000000E+00  0.00000000000E+00 -0.13197930407E+04  0.13256991902E+04  0.12499869047E+03 0.  0.
    9000005    1    3    3    0    0 -0.45617869437E+02 -0.10838240704E+02 -0.10980431557E+04  0.10990442345E+04  0.10000000000E+01 0.  0.
    9000005    1    3    3    0    0  0.45617869437E+02  0.10838240704E+02 -0.22174988496E+03  0.22665495572E+03  0.10000000000E+01 0.  0.
<mgrwt>
<rscale>  0 0.12499869E+03</rscale>
<asrwt>0</asrwt>
<pdfrwt beam="1">  1        4 0.45432025E-03 0.12499869E+03</pdfrwt>
<pdfrwt beam="2">  1       -4 0.20349893E+00 0.12499869E+03</pdfrwt>
<totfact> 0.21630673E+03</totfact>
</mgrwt>
</event>
<event>
 5    1  0.3199195E-002  0.1249929E+03  0.7818608E-02  0.1235080E+00
          4   -1    0    0  501    0  0.00000000000E+00  0.00000000000E+00  0.12477519419E+03  0.12478165724E+03  0.12700000000E+01 0. -1.
         -4   -1    0    0    0  501 -0.00000000000E+00 -0.00000000000E+00 -0.31282599203E+02  0.31308368097E+02  0.12700000000E+01 0. -1.
         25    2    1    2    0    0  0.00000000000E+00  0.00000000000E+00  0.93492594982E+02  0.15609002534E+03  0.12499292258E+03 0.  0.
    9000005    1    3    3    0    0 -0.29108335680E+02  0.31793817011E+02  0.10324170953E+03  0.11188383527E+03  0.10000000000E+01 0.  0.
    9000005    1    3    3    0    0  0.29108335680E+02 -0.31793817011E+02 -0.97491145528E+01  0.44206190073E+02  0.10000000000E+01 0.  0.
<mgrwt>
<rscale>  0 0.12499292E+03</rscale>
<asrwt>0</asrwt>
<pdfrwt beam="1">  1        4 0.19198663E-01 0.12499292E+03</pdfrwt>
<pdfrwt beam="2">  1       -4 0.48151871E-02 0.12499292E+03</pdfrwt>
<totfact> 0.98117552E+03</totfact>
</mgrwt>
</event>
<event>
 5    1  0.3199195E-002  0.1249508E+03  0.7818608E-02  0.1235146E+00
         -4   -1    0    0    0  501 -0.00000000000E+00  0.00000000000E+00  0.21918745922E+03  0.21919113846E+03  0.12700000000E+01 0. -1.
          4   -1    0    0  501    0  0.00000000000E+00 -0.00000000000E+00 -0.17780993658E+02  0.17826290570E+02  0.12700000000E+01 0. -1.
         25    2    1    2    0    0  0.00000000000E+00  0.00000000000E+00  0.20140646556E+03  0.23701742903E+03  0.12495077948E+03 0.  0.
    9000005    1    3    3    0    0  0.32647534792E+02  0.86066075479E+01  0.20039790449E+03  0.20322464257E+03  0.10000000000E+01 0.  0.
    9000005    1    3    3    0    0 -0.32647534792E+02 -0.86066075479E+01  0.10085610692E+01  0.33792786462E+02  0.10000000000E+01 0.  0.
<mgrwt>
<rscale>  0 0.12495078E+03</rscale>
<asrwt>0</asrwt>
<pdfrwt beam="2">  1        4 0.27393048E-02 0.12495078E+03</pdfrwt>
<pdfrwt beam="1">  1       -4 0.33724916E-01 0.12495078E+03</pdfrwt>
<totfact> 0.84336111E+03</totfact>
</mgrwt>
</event>
<event>
 5    1  0.3199195E-002  0.1250017E+03  0.7818608E-02  0.1235067E+00
          4   -1    0    0  501    0  0.00000000000E+00  0.00000000000E+00  0.19351826125E+02  0.19393454421E+02  0.12700000000E+01 0. -1.
         -4   -1    0    0    0  501 -0.00000000000E+00 -0.00000000000E+00 -0.20159946340E+03  0.20160346362E+03  0.12700000000E+01 0. -1.
         25    2    1    2    0    0  0.00000000000E+00  0.00000000000E+00 -0.18224763727E+03  0.22099691804E+03  0.12500174595E+03 0.  0.
    9000005    1    3    3    0    0 -0.66831093291E+01 -0.58440396572E+02 -0.12843617401E+03  0.14126851983E+03  0.10000000000E+01 0.  0.
    9000005    1    3    3    0    0  0.66831093291E+01  0.58440396572E+02 -0.53811463264E+02  0.79728398205E+02  0.10000000000E+01 0.  0.
<mgrwt>
<rscale>  0 0.12500175E+03</rscale>
<asrwt>0</asrwt>
<pdfrwt beam="1">  1        4 0.29807140E-02 0.12500175E+03</pdfrwt>
<pdfrwt beam="2">  1       -4 0.31018811E-01 0.12500175E+03</pdfrwt>
<totfact> 0.86707465E+03</totfact>
</mgrwt>
</event>
<event>
 5    1  0.3199195E-002  0.1249843E+03  0.7818608E-02  0.1235094E+00
         -4   -1    0    0    0  501 -0.00000000000E+00  0.00000000000E+00  0.16399300923E+03  0.16399792675E+03  0.12700000000E+01 0. -1.
          4   -1    0    0  501    0  0.00000000000E+00 -0.00000000000E+00 -0.23791417593E+02  0.23825290157E+02  0.12700000000E+01 0. -1.
         25    2    1    2    0    0  0.00000000000E+00  0.00000000000E+00  0.14020159164E+03  0.18782321691E+03  0.12498429705E+03 0.  0.
    9000005    1    3    3    0    0 -0.30395464480E+02 -0.35734361720E+02  0.80771612159E+01  0.47613752233E+02  0.10000000000E+01 0.  0.
    9000005    1    3    3    0    0  0.30395464480E+02  0.35734361720E+02  0.13212443043E+03  0.14020946467E+03  0.10000000000E+01 0.  0.
<mgrwt>
<rscale>  0 0.12498430E+03</rscale>
<asrwt>0</asrwt>
<pdfrwt beam="2">  1        4 0.36632020E-02 0.12498430E+03</pdfrwt>
<pdfrwt beam="1">  1       -4 0.25232677E-01 0.12498430E+03</pdfrwt>
<totfact> 0.92259908E+03</totfact>
</mgrwt>
</event>
<event>
 5    1  0.3199195E-002  0.1249990E+03  0.7818608E-02  0.1235071E+00
         -4   -1    0    0    0  501 -0.00000000000E+00  0.00000000000E+00  0.97063173506E+02  0.97071481657E+02  0.12700000000E+01 0.  1.
          4   -1    0    0  501    0  0.00000000000E+00 -0.00000000000E+00 -0.40223731856E+02  0.40243775971E+02  0.12700000000E+01 0.  1.
         25    2    1    2    0    0  0.00000000000E+00  0.00000000000E+00  0.56839441650E+02  0.13731525763E+03  0.12499903140E+03 0.  0.
    9000005    1    3    3    0    0 -0.55282054837E+02 -0.79492293502E+01 -0.23762594075E+01  0.55910128269E+02  0.10000000000E+01 0.  0.
    9000005    1    3    3    0    0  0.55282054837E+02  0.79492293502E+01  0.59215701058E+02  0.81405129359E+02  0.10000000000E+01 0.  0.
<mgrwt>
<rscale>  0 0.12499903E+03</rscale>
<asrwt>0</asrwt>
<pdfrwt beam="2">  1        4 0.61904474E-02 0.12499903E+03</pdfrwt>
<pdfrwt beam="1">  1       -4 0.14934977E-01 0.12499903E+03</pdfrwt>
<totfact> 0.10189721E+04</totfact>
</mgrwt>
</event>
<event>
 5    1  0.3199195E-002  0.1249989E+03  0.7818608E-02  0.1235071E+00
          4   -1    0    0  501    0  0.00000000000E+00  0.00000000000E+00  0.16302413245E+03  0.16302907918E+03  0.12700000000E+01 0. -1.
         -4   -1    0    0    0  501 -0.00000000000E+00 -0.00000000000E+00 -0.23938610071E+02  0.23972274655E+02  0.12700000000E+01 0. -1.
         25    2    1    2    0    0  0.00000000000E+00  0.00000000000E+00  0.13908552238E+03  0.18700135384E+03  0.12499889521E+03 0.  0.
    9000005    1    3    3    0    0 -0.20937100598E+02  0.29931322627E+01  0.15751431738E+03  0.15893105802E+03  0.10000000000E+01 0.  0.
    9000005    1    3    3    0    0  0.20937100598E+02 -0.29931322627E+01 -0.18428795006E+02  0.28070295823E+02  0.10000000000E+01 0.  0.
<mgrwt>
<rscale>  0 0.12499890E+03</rscale>
<asrwt>0</asrwt>
<pdfrwt beam="1">  1        4 0.25083607E-01 0.12499890E+03</pdfrwt>
<pdfrwt beam="2">  1       -4 0.36858331E-02 0.12499890E+03</pdfrwt>
<totfact> 0.92373988E+03</totfact>
</mgrwt>
</event>
<event>
 5    1  0.3199195E-002  0.1250022E+03  0.7818608E-02  0.1235066E+00
          4   -1    0    0  501    0  0.00000000000E+00  0.00000000000E+00  0.13984202929E+04  0.13984208696E+04  0.12700000000E+01 0. -1.
         -4   -1    0    0    0  501 -0.00000000000E+00 -0.00000000000E+00 -0.26484732798E+01  0.29372284068E+01  0.12700000000E+01 0. -1.
         25    2    1    2    0    0  0.00000000000E+00  0.00000000000E+00  0.13957718196E+04  0.14013580980E+04  0.12500218544E+03 0.  0.
    9000005    1    3    3    0    0 -0.28667435819E+02 -0.30707450409E+02  0.17920408829E+03  0.18406486532E+03  0.10000000000E+01 0.  0.
    9000005    1    3    3    0    0  0.28667435819E+02  0.30707450409E+02  0.12165677313E+04  0.12172932327E+04  0.10000000000E+01 0.  0.
<mgrwt>
<rscale>  0 0.12500219E+03</rscale>
<asrwt>0</asrwt>
<pdfrwt beam="1">  1        4 0.21516391E+00 0.12500219E+03</pdfrwt>
<pdfrwt beam="2">  1       -4 0.42971358E-03 0.12500219E+03</pdfrwt>
<totfact> 0.19950838E+03</totfact>
</mgrwt>
</event>
<event>
 5    1  0.3199195E-002  0.1250127E+03  0.7818608E-02  0.1235049E+00
         -4   -1    0    0    0  501 -0.00000000000E+00  0.00000000000E+00  0.20727640193E+03  0.20728029259E+03  0.12700000000E+01 0.  1.
          4   -1    0    0  501    0  0.00000000000E+00 -0.00000000000E+00 -0.18823988399E+02  0.18866781370E+02  0.12700000000E+01 0.  1.
         25    2    1    2    0    0  0.00000000000E+00  0.00000000000E+00  0.18845241353E+03  0.22614707396E+03  0.12501274693E+03 0.  0.
    9000005    1    3    3    0    0 -0.15204634175E+02 -0.12860148989E+02 -0.12940086338E+02  0.23769942508E+02  0.10000000000E+01 0.  0.
    9000005    1    3    3    0    0  0.15204634175E+02  0.12860148989E+02  0.20139249987E+03  0.20237713145E+03  0.10000000000E+01 0.  0.
<mgrwt>
<rscale>  0 0.12501275E+03</rscale>
<asrwt>0</asrwt>
<pdfrwt beam="2">  1        4 0.28995893E-02 0.12501275E+03</pdfrwt>
<pdfrwt beam="1">  1       -4 0.31892268E-01 0.12501275E+03</pdfrwt>
<totfact> 0.85880315E+03</totfact>
</mgrwt>
</event>
<event>
 5    1  0.3199195E-002  0.1249997E+03  0.7818608E-02  0.1235070E+00
          4   -1    0    0  501    0  0.00000000000E+00  0.00000000000E+00  0.28823108582E+02  0.28851074301E+02  0.12700000000E+01 0. -1.
         -4   -1    0    0    0  501 -0.00000000000E+00 -0.00000000000E+00 -0.13542756588E+03  0.13543352059E+03  0.12700000000E+01 0. -1.
         25    2    1    2    0    0  0.00000000000E+00  0.00000000000E+00 -0.10660445730E+03  0.16428459490E+03  0.12499967122E+03 0.  0.
    9000005    1    3    3    0    0  0.39306930321E+02 -0.45482282856E+02 -0.30860855438E+02  0.67580065281E+02  0.10000000000E+01 0.  0.
    9000005    1    3    3    0    0 -0.39306930321E+02  0.45482282856E+02 -0.75743601862E+02  0.96704529615E+02  0.10000000000E+01 0.  0.
<mgrwt>
<rscale>  0 0.12499967E+03</rscale>
<asrwt>0</asrwt>
<pdfrwt beam="1">  1        4 0.44369337E-02 0.12499967E+03</pdfrwt>
<pdfrwt beam="2">  1       -4 0.20837619E-01 0.12499967E+03</pdfrwt>
<totfact> 0.96523763E+03</totfact>
</mgrwt>
</event>
<event>
 5    1  0.3199195E-002  0.1249960E+03  0.7818608E-02  0.1235076E+00
          4   -1    0    0  501    0  0.00000000000E+00  0.00000000000E+00  0.78965756544E+02  0.78975968538E+02  0.12700000000E+01 0.  1.
         -4   -1    0    0    0  501 -0.00000000000E+00 -0.00000000000E+00 -0.49442881894E+02  0.49459189945E+02  0.12700000000E+01 0.  1.
         25    2    1    2    0    0  0.00000000000E+00  0.00000000000E+00  0.29522874649E+02  0.12843515848E+03  0.12499595916E+03 0.  0.
    9000005    1    3    3    0    0  0.30425376220E+02 -0.18764881929E+02 -0.37904801003E+02  0.52111402313E+02  0.10000000000E+01 0.  0.
    9000005    1    3    3    0    0 -0.30425376220E+02  0.18764881929E+02  0.67427675653E+02  0.76323756170E+02  0.10000000000E+01 0.  0.
<mgrwt>
<rscale>  0 0.12499596E+03</rscale>
<asrwt>0</asrwt>
<pdfrwt beam="1">  1        4 0.12150618E-01 0.12499596E+03</pdfrwt>
<pdfrwt beam="2">  1       -4 0.76086373E-02 0.12499596E+03</pdfrwt>
<totfact> 0.10379047E+04</totfact>
</mgrwt>
</event>
<event>
 5    1  0.3199195E-002  0.1250137E+03  0.7818608E-02  0.1235048E+00
          4   -1    0    0  501    0  0.00000000000E+00  0.00000000000E+00  0.95864897029E+02  0.95873309019E+02  0.12700000000E+01 0. -1.
         -4   -1    0    0    0  501 -0.00000000000E+00 -0.00000000000E+00 -0.40736274965E+02  0.40756067009E+02  0.12700000000E+01 0. -1.
         25    2    1    2    0    0  0.00000000000E+00  0.00000000000E+00  0.55128622064E+02  0.13662937603E+03  0.12501368494E+03 0.  0.
    9000005    1    3    3    0    0 -0.18896901310E+02  0.33760333613E+02 -0.26080494334E+02  0.46669531704E+02  0.10000000000E+01 0.  0.
    9000005    1    3    3    0    0  0.18896901310E+02 -0.33760333613E+02  0.81209116397E+02  0.89959844324E+02  0.10000000000E+01 0.  0.
<mgrwt>
<rscale>  0 0.12501368E+03</rscale>
<asrwt>0</asrwt>
<pdfrwt beam="1">  1        4 0.14750615E-01 0.12501368E+03</pdfrwt>
<pdfrwt beam="2">  1       -4 0.62692888E-02 0.12501368E+03</pdfrwt>
<totfact> 0.10200693E+04</totfact>
</mgrwt>
</event>
<event>
 5    1  0.3199195E-002  0.1250405E+03  0.7818608E-02  0.1235006E+00
          4   -1    0    0  501    0  0.00000000000E+00  0.00000000000E+00  0.16987529356E+03  0.16988004080E+03  0.12700000000E+01 0.  1.
         -4   -1    0    0    0  501 -0.00000000000E+00 -0.00000000000E+00 -0.22987116471E+02  0.23022172435E+02  0.12700000000E+01 0.  1.
         25    2    1    2    0    0  0.00000000000E+00  0.00000000000E+00  0.14688817709E+03  0.19290221323E+03  0.12504050265E+03 0.  0.
    9000005    1    3    3    0    0  0.36791859321E+01 -0.62126499934E+02  0.82511204742E+02  0.10335539324E+03  0.10000000000E+01 0.  0.
    9000005    1    3    3    0    0 -0.36791859321E+01  0.62126499934E+02  0.64376972346E+02  0.89546819997E+02  0.10000000000E+01 0.  0.
<mgrwt>
<rscale>  0 0.12504050E+03</rscale>
<asrwt>0</asrwt>
<pdfrwt beam="1">  1        4 0.26137723E-01 0.12504050E+03</pdfrwt>
<pdfrwt beam="2">  1       -4 0.35395412E-02 0.12504050E+03</pdfrwt>
<totfact> 0.91261976E+03</totfact>
</mgrwt>
</event>
<event>
 5    1  0.3199195E-002  0.1249971E+03  0.7818608E-02  0.1235074E+00
          4   -1    0    0  501    0  0.00000000000E+00  0.00000000000E+00  0.30405979453E+02  0.30432490639E+02  0.12700000000E+01 0.  1.
         -4   -1    0    0    0  501 -0.00000000000E+00 -0.00000000000E+00 -0.12837828321E+03  0.12838456489E+03  0.12700000000E+01 0.  1.
         25    2    1    2    0    0  0.00000000000E+00  0.00000000000E+00 -0.97972303760E+02  0.15881705552E+03  0.12499713925E+03 0.  0.
    9000005    1    3    3    0    0 -0.57917996024E+02  0.16132322826E+02 -0.70635227633E+02  0.92763578445E+02  0.10000000000E+01 0.  0.
    9000005    1    3    3    0    0  0.57917996024E+02 -0.16132322826E+02 -0.27337076127E+02  0.66053477080E+02  0.10000000000E+01 0.  0.
<mgrwt>
<rscale>  0 0.12499714E+03</rscale>
<asrwt>0</asrwt>
<pdfrwt beam="1">  1        4 0.46803656E-02 0.12499714E+03</pdfrwt>
<pdfrwt beam="2">  1       -4 0.19753027E-01 0.12499714E+03</pdfrwt>
<totfact> 0.97577608E+03</totfact>
</mgrwt>
</event>
<event>
 5    1  0.3199195E-002  0.1249992E+03  0.7818608E-02  0.1235071E+00
         -4   -1    0    0    0  501 -0.00000000000E+00  0.00000000000E+00  0.69304452262E+03  0.69304568625E+03  0.12700000000E+01 0.  1.
          4   -1    0    0  501    0  0.00000000000E+00 -0.00000000000E+00 -0.55635662380E+01  0.57066776048E+01  0.12700000000E+01 0.  1.
         25    2    1    2    0    0  0.00000000000E+00  0.00000000000E+00  0.68748095638E+03  0.69875236386E+03  0.12499920243E+03 0.  0.
    9000005    1    3    3    0    0  0.17540836350E+01 -0.27728845044E+02  0.65664547448E+03  0.65723378246E+03  0.10000000000E+01 0.  0.
    9000005    1    3    3    0    0 -0.17540836350E+01  0.27728845044E+02  0.30835481906E+02  0.41518581397E+02  0.10000000000E+01 0.  0.
<mgrwt>
<rscale>  0 0.12499920E+03</rscale>
<asrwt>0</asrwt>
<pdfrwt beam="2">  1        4 0.86703166E-03 0.12499920E+03</pdfrwt>
<pdfrwt beam="1">  1       -4 0.10663329E+00 0.12499920E+03</pdfrwt>
<totfact> 0.43153397E+03</totfact>
</mgrwt>
</event>
<event>
 5    1  0.3199195E-002  0.1249998E+03  0.7818608E-02  0.1235070E+00
          4   -1    0    0  501    0  0.00000000000E+00  0.00000000000E+00  0.60002496273E+02  0.60015935043E+02  0.12700000000E+01 0.  1.
         -4   -1    0    0    0  501 -0.00000000000E+00 -0.00000000000E+00 -0.65074273618E+02  0.65086665200E+02  0.12700000000E+01 0.  1.
         25    2    1    2    0    0  0.00000000000E+00  0.00000000000E+00 -0.50717773445E+01  0.12510260024E+03  0.12499975065E+03 0.  0.
    9000005    1    3    3    0    0  0.87145164495E+01 -0.31578468785E+02  0.50725301011E+02  0.60392041284E+02  0.10000000000E+01 0.  0.
    9000005    1    3    3    0    0 -0.87145164495E+01  0.31578468785E+02 -0.55797078356E+02  0.64710558959E+02  0.10000000000E+01 0.  0.
<mgrwt>
<rscale>  0 0.12499975E+03</rscale>
<asrwt>0</asrwt>
<pdfrwt beam="1">  1        4 0.92331403E-02 0.12499975E+03</pdfrwt>
<pdfrwt beam="2">  1       -4 0.10013414E-01 0.12499975E+03</pdfrwt>
<totfact> 0.10450693E+04</totfact>
</mgrwt>
</event>
<event>
 5    1  0.3199195E-002  0.1249914E+03  0.7818608E-02  0.1235083E+00
         -4   -1    0    0    0  501 -0.00000000000E+00  0.00000000000E+00  0.37513549015E+02  0.37535040425E+02  0.12700000000E+01 0.  1.
          4   -1    0    0  501    0  0.00000000000E+00 -0.00000000000E+00 -0.10405954470E+03  0.10406729431E+03  0.12700000000E+01 0.  1.
         25    2    1    2    0    0  0.00000000000E+00  0.00000000000E+00 -0.66545995689E+02  0.14160233473E+03  0.12499140634E+03 0.  0.
    9000005    1    3    3    0    0 -0.12184035794E+02 -0.35790182431E+02 -0.89637590925E+02  0.97289699318E+02  0.10000000000E+01 0.  0.
    9000005    1    3    3    0    0  0.12184035794E+02  0.35790182431E+02  0.23091595236E+02  0.44312635412E+02  0.10000000000E+01 0.  0.
<mgrwt>
<rscale>  0 0.12499141E+03</rscale>
<asrwt>0</asrwt>
<pdfrwt beam="2">  1        4 0.16011410E-01 0.12499141E+03</pdfrwt>
<pdfrwt beam="1">  1       -4 0.57735646E-02 0.12499141E+03</pdfrwt>
<totfact> 0.10102439E+04</totfact>
</mgrwt>
</event>
<event>
 5    1  0.3199195E-002  0.1250183E+03  0.7818608E-02  0.1235041E+00
          4   -1    0    0  501    0  0.00000000000E+00  0.00000000000E+00  0.12588393967E+03  0.12589034580E+03  0.12700000000E+01 0.  1.
         -4   -1    0    0    0  501 -0.00000000000E+00 -0.00000000000E+00 -0.31019466765E+02  0.31045454069E+02  0.12700000000E+01 0.  1.
         25    2    1    2    0    0  0.00000000000E+00  0.00000000000E+00  0.94864472900E+02  0.15693579987E+03  0.12501830691E+03 0.  0.
    9000005    1    3    3    0    0 -0.92416966937E+01 -0.56909345915E+02  0.77724111281E+02  0.96778717106E+02  0.10000000000E+01 0.  0.
    9000005    1    3    3    0    0  0.92416966937E+01  0.56909345915E+02  0.17140361619E+02  0.60157082764E+02  0.10000000000E+01 0.  0.
<mgrwt>
<rscale>  0 0.12501831E+03</rscale>
<asrwt>0</asrwt>
<pdfrwt beam="1">  1        4 0.19369252E-01 0.12501831E+03</pdfrwt>
<pdfrwt beam="2">  1       -4 0.47747175E-02 0.12501831E+03</pdfrwt>
<totfact> 0.97896509E+03</totfact>
</mgrwt>
</event>
<event>
 5    1  0.3199195E-002  0.1250002E+03  0.7818608E-02  0.1235069E+00
         -4   -1    0    0    0  501 -0.00000000000E+00  0.00000000000E+00  0.78204989017E+02  0.78215300339E+02  0.12700000000E+01 0.  1.
          4   -1    0    0  501    0  0.00000000000E+00 -0.00000000000E+00 -0.49927364462E+02  0.49943514315E+02  0.12700000000E+01 0.  1.
         25    2    1    2    0    0  0.00000000000E+00  0.00000000000E+00  0.28277624555E+02  0.12815881465E+03  0.12500023089E+03 0.  0.
    9000005    1    3    3    0    0  0.22099142011E+02 -0.45736936397E+02 -0.23181881052E+02  0.55844776280E+02  0.10000000000E+01 0.  0.
    9000005    1    3    3    0    0 -0.22099142011E+02  0.45736936397E+02  0.51459505607E+02  0.72314038374E+02  0.10000000000E+01 0.  0.
<mgrwt>
<rscale>  0 0.12500023E+03</rscale>
<asrwt>0</asrwt>
<pdfrwt beam="2">  1        4 0.76831685E-02 0.12500023E+03</pdfrwt>
<pdfrwt beam="1">  1       -4 0.12033572E-01 0.12500023E+03</pdfrwt>
<totfact> 0.10384005E+04</totfact>
</mgrwt>
</event>
<event>
 5    1  0.3199195E-002  0.1250044E+03  0.7818608E-02  0.1235062E+00
         -4   -1    0    0    0  501 -0.00000000000E+00  0.00000000000E+00  0.11745695729E+02  0.11814155415E+02  0.12700000000E+01 0. -1.
          4   -1    0    0  501    0  0.00000000000E+00 -0.00000000000E+00 -0.33155611607E+03  0.33155854838E+03  0.12700000000E+01 0. -1.
         25    2    1    2    0    0  0.00000000000E+00  0.00000000000E+00 -0.31981042034E+03  0.34337270379E+03  0.12500443493E+03 0.  0.
    9000005    1    3    3    0    0 -0.61945960704E+02  0.78027980446E+01 -0.15246248040E+03  0.16475434329E+03  0.10000000000E+01 0.  0.
    9000005    1    3    3    0    0  0.61945960704E+02 -0.78027980446E+01 -0.16734793994E+03  0.17861836050E+03  0.10000000000E+01 0.  0.
<mgrwt>
<rscale>  0 0.12500443E+03</rscale>
<asrwt>0</asrwt>
<pdfrwt beam="2">  1        4 0.51014079E-01 0.12500443E+03</pdfrwt>
<pdfrwt beam="1">  1       -4 0.18124836E-02 0.12500443E+03</pdfrwt>
<totfact> 0.70452932E+03</totfact>
</mgrwt>
</event>
<event>
 5    1  0.3199195E-002  0.1250044E+03  0.7818608E-02  0.1235062E+00
          4   -1    0    0  501    0  0.00000000000E+00  0.00000000000E+00  0.19797119267E+01  0.23520542750E+01  0.12700000000E+01 0. -1.
         -4   -1    0    0    0  501 -0.00000000000E+00 -0.00000000000E+00 -0.18032916547E+04  0.18032921020E+04  0.12700000000E+01 0. -1.
         25    2    1    2    0    0  0.00000000000E+00  0.00000000000E+00 -0.18013119428E+04  0.18056441562E+04  0.12500441427E+03 0.  0.
    9000005    1    3    3    0    0  0.18372226950E+02  0.32349761575E+02 -0.17532772639E+03  0.17923408559E+03  0.10000000000E+01 0.  0.
    9000005    1    3    3    0    0 -0.18372226950E+02 -0.32349761575E+02 -0.16259842164E+04  0.16264100706E+04  0.10000000000E+01 0.  0.
<mgrwt>
<rscale>  0 0.12500441E+03</rscale>
<asrwt>0</asrwt>
<pdfrwt beam="1">  1        4 0.33324863E-03 0.12500441E+03</pdfrwt>
<pdfrwt beam="2">  1       -4 0.27745696E+00 0.12500441E+03</pdfrwt>
<totfact> 0.12615631E+03</totfact>
</mgrwt>
</event>
<event>
 5    1  0.3199195E-002  0.1249976E+03  0.7818608E-02  0.1235073E+00
          4   -1    0    0  501    0  0.00000000000E+00  0.00000000000E+00  0.10965178853E+03  0.10965914293E+03  0.12700000000E+01 0.  1.
         -4   -1    0    0    0  501 -0.00000000000E+00 -0.00000000000E+00 -0.35602870116E+02  0.35625514179E+02  0.12700000000E+01 0.  1.
         25    2    1    2    0    0  0.00000000000E+00  0.00000000000E+00  0.74048918412E+02  0.14528465711E+03  0.12499755707E+03 0.  0.
    9000005    1    3    3    0    0  0.23496780367E+01  0.35984518638E+02 -0.22294880921E+02  0.42408351581E+02  0.10000000000E+01 0.  0.
    9000005    1    3    3    0    0 -0.23496780367E+01 -0.35984518638E+02  0.96343799333E+02  0.10287630553E+03  0.10000000000E+01 0.  0.
<mgrwt>
<rscale>  0 0.12499756E+03</rscale>
<asrwt>0</asrwt>
<pdfrwt beam="1">  1        4 0.16871813E-01 0.12499756E+03</pdfrwt>
<pdfrwt beam="2">  1       -4 0.54796723E-02 0.12499756E+03</pdfrwt>
<totfact> 0.10025760E+04</totfact>
</mgrwt>
</event>
<event>
 5    1  0.3199195E-002  0.1250035E+03  0.7818608E-02  0.1235064E+00
          4   -1    0    0  501    0  0.00000000000E+00  0.00000000000E+00  0.10040514135E+03  0.10041317299E+03  0.12700000000E+01 0.  1.
         -4   -1    0    0    0  501 -0.00000000000E+00 -0.00000000000E+00 -0.38887134540E+02  0.38907867235E+02  0.12700000000E+01 0.  1.
         25    2    1    2    0    0  0.00000000000E+00  0.00000000000E+00  0.61518006813E+02  0.13932104023E+03  0.12500354830E+03 0.  0.
    9000005    1    3    3    0    0  0.34234656783E+02  0.28837376618E+02  0.79364378279E+02  0.91122503010E+02  0.10000000000E+01 0.  0.
    9000005    1    3    3    0    0 -0.34234656783E+02 -0.28837376618E+02 -0.17846371465E+02  0.48198537216E+02  0.10000000000E+01 0.  0.
<mgrwt>
<rscale>  0 0.12500355E+03</rscale>
<asrwt>0</asrwt>
<pdfrwt beam="1">  1        4 0.15449157E-01 0.12500355E+03</pdfrwt>
<pdfrwt beam="2">  1       -4 0.59848488E-02 0.12500355E+03</pdfrwt>
<totfact> 0.10146866E+04</totfact>
</mgrwt>
</event>
<event>
 5    1  0.3199195E-002  0.1250007E+03  0.7818608E-02  0.1235068E+00
          4   -1    0    0  501    0  0.00000000000E+00  0.00000000000E+00  0.29573388599E+02  0.29600645487E+02  0.12700000000E+01 0.  1.
         -4   -1    0    0    0  501 -0.00000000000E+00 -0.00000000000E+00 -0.13199694944E+03  0.13200305891E+03  0.12700000000E+01 0.  1.
         25    2    1    2    0    0  0.00000000000E+00  0.00000000000E+00 -0.10242356084E+03  0.16160370440E+03  0.12500068584E+03 0.  0.
    9000005    1    3    3    0    0 -0.17619120880E+02  0.59407450350E+02 -0.61683985147E+02  0.87439079371E+02  0.10000000000E+01 0.  0.
    9000005    1    3    3    0    0  0.17619120880E+02 -0.59407450350E+02 -0.40739575697E+02  0.74164625028E+02  0.10000000000E+01 0.  0.
<mgrwt>
<rscale>  0 0.12500069E+03</rscale>
<asrwt>0</asrwt>
<pdfrwt beam="1">  1        4 0.45523188E-02 0.12500069E+03</pdfrwt>
<pdfrwt beam="2">  1       -4 0.20309789E-01 0.12500069E+03</pdfrwt>
<totfact> 0.97032996E+03</totfact>
</mgrwt>
</event>
<event>
 5    1  0.3199195E-002  0.1250021E+03  0.7818608E-02  0.1235066E+00
         -4   -1    0    0    0  501 -0.00000000000E+00  0.00000000000E+00  0.16449619752E+02  0.16498572362E+02  0.12700000000E+01 0.  1.
          4   -1    0    0  501    0  0.00000000000E+00 -0.00000000000E+00 -0.23707204204E+03  0.23707544372E+03  0.12700000000E+01 0.  1.
         25    2    1    2    0    0  0.00000000000E+00  0.00000000000E+00 -0.22062242228E+03  0.25357401608E+03  0.12500211365E+03 0.  0.
    9000005    1    3    3    0    0 -0.51579889324E+02 -0.34463048773E+02 -0.12565271413E+03  0.14013490387E+03  0.10000000000E+01 0.  0.
    9000005    1    3    3    0    0  0.51579889324E+02  0.34463048773E+02 -0.94969708153E+02  0.11343911221E+03  0.10000000000E+01 0.  0.
<mgrwt>
<rscale>  0 0.12500211E+03</rscale>
<asrwt>0</asrwt>
<pdfrwt beam="2">  1        4 0.36476647E-01 0.12500211E+03</pdfrwt>
<pdfrwt beam="1">  1       -4 0.25347381E-02 0.12500211E+03</pdfrwt>
<totfact> 0.81812550E+03</totfact>
</mgrwt>
</event>
<event>
 5    1  0.3199195E-002  0.1249976E+03  0.7818608E-02  0.1235073E+00
          4   -1    0    0  501    0  0.00000000000E+00  0.00000000000E+00  0.26617041469E+03  0.26617344450E+03  0.12700000000E+01 0. -1.
         -4   -1    0    0    0  501 -0.00000000000E+00 -0.00000000000E+00 -0.14644587553E+02  0.14699552530E+02  0.12700000000E+01 0. -1.
         25    2    1    2    0    0  0.00000000000E+00  0.00000000000E+00  0.25152582714E+03  0.28087299703E+03  0.12499759495E+03 0.  0.
    9000005    1    3    3    0    0 -0.57791401974E+02  0.14435433173E+02  0.16821161948E+03  0.17844992800E+03  0.10000000000E+01 0.  0.
    9000005    1    3    3    0    0  0.57791401974E+02 -0.14435433173E+02  0.83314207657E+02  0.10242306903E+03  0.10000000000E+01 0.  0.
<mgrwt>
<rscale>  0 0.12499759E+03</rscale>
<asrwt>0</asrwt>
<pdfrwt beam="1">  1        4 0.40953750E-01 0.12499759E+03</pdfrwt>
<pdfrwt beam="2">  1       -4 0.22574749E-02 0.12499759E+03</pdfrwt>
<totfact> 0.78066671E+03</totfact>
</mgrwt>
</event>
<event>
 5    1  0.3199195E-002  0.1249978E+03  0.7818608E-02  0.1235073E+00
          4   -1    0    0  501    0  0.00000000000E+00  0.00000000000E+00  0.19462873276E+02  0.19504264564E+02  0.12700000000E+01 0.  1.
         -4   -1    0    0    0  501 -0.00000000000E+00 -0.00000000000E+00 -0.20043893825E+03  0.20044296163E+03  0.12700000000E+01 0.  1.
         25    2    1    2    0    0  0.00000000000E+00  0.00000000000E+00 -0.18097606497E+03  0.21994722619E+03  0.12499778485E+03 0.  0.
    9000005    1    3    3    0    0  0.43374883385E+02  0.31189444407E+02 -0.33444407263E+02  0.63037213836E+02  0.10000000000E+01 0.  0.
    9000005    1    3    3    0    0 -0.43374883385E+02 -0.31189444407E+02 -0.14753165771E+03  0.15691001235E+03  0.10000000000E+01 0.  0.
<mgrwt>
<rscale>  0 0.12499778E+03</rscale>
<asrwt>0</asrwt>
<pdfrwt beam="1">  1        4 0.29977818E-02 0.12499778E+03</pdfrwt>
<pdfrwt beam="2">  1       -4 0.30840252E-01 0.12499778E+03</pdfrwt>
<totfact> 0.86881000E+03</totfact>
</mgrwt>
</event>
<event>
 5    1  0.3199195E-002  0.1249979E+03  0.7818608E-02  0.1235073E+00
         -4   -1    0    0    0  501 -0.00000000000E+00  0.00000000000E+00  0.26058828572E+03  0.26059138043E+03  0.12700000000E+01 0. -1.
          4   -1    0    0  501    0  0.00000000000E+00 -0.00000000000E+00 -0.14959526712E+02  0.15013338718E+02  0.12700000000E+01 0. -1.
         25    2    1    2    0    0  0.00000000000E+00  0.00000000000E+00  0.24562875901E+03  0.27560471915E+03  0.12499789584E+03 0.  0.
    9000005    1    3    3    0    0  0.43702636803E+02  0.17776657080E+02  0.32463232188E+02  0.57278193447E+02  0.10000000000E+01 0.  0.
    9000005    1    3    3    0    0 -0.43702636803E+02 -0.17776657080E+02  0.21316552682E+03  0.21832652570E+03  0.10000000000E+01 0.  0.
<mgrwt>
<rscale>  0 0.12499790E+03</rscale>
<asrwt>0</asrwt>
<pdfrwt beam="2">  1        4 0.23058432E-02 0.12499790E+03</pdfrwt>
<pdfrwt beam="1">  1       -4 0.40094882E-01 0.12499790E+03</pdfrwt>
<totfact> 0.78768205E+03</totfact>
</mgrwt>
</event>
<event>
 5    1  0.3199195E-002  0.1250320E+03  0.7818608E-02  0.1235019E+00
         -4   -1    0    0    0  501 -0.00000000000E+00  0.00000000000E+00  0.29029118800E+03  0.29029396606E+03  0.12700000000E+01 0.  1.
          4   -1    0    0  501    0  0.00000000000E+00 -0.00000000000E+00 -0.13430411210E+02  0.13490324135E+02  0.12700000000E+01 0.  1.
         25    2    1    2    0    0  0.00000000000E+00  0.00000000000E+00  0.27686077679E+03  0.30378429019E+03  0.12503201688E+03 0.  0.
    9000005    1    3    3    0    0  0.28400938427E+02  0.15164145634E+02  0.26860820184E+03  0.27053267956E+03  0.10000000000E+01 0.  0.
    9000005    1    3    3    0    0 -0.28400938427E+02 -0.15164145634E+02  0.82525749520E+01  0.33251610632E+02  0.10000000000E+01 0.  0.
<mgrwt>
<rscale>  0 0.12503202E+03</rscale>
<asrwt>0</asrwt>
<pdfrwt beam="2">  1        4 0.20710398E-02 0.12503202E+03</pdfrwt>
<pdfrwt beam="1">  1       -4 0.44664999E-01 0.12503202E+03</pdfrwt>
<totfact> 0.75073228E+03</totfact>
</mgrwt>
</event>
<event>
 5    1  0.3199195E-002  0.1250020E+03  0.7818608E-02  0.1235066E+00
          4   -1    0    0  501    0  0.00000000000E+00  0.00000000000E+00  0.26746136002E+02  0.26776271045E+02  0.12700000000E+01 0. -1.
         -4   -1    0    0    0  501 -0.00000000000E+00 -0.00000000000E+00 -0.14593858297E+03  0.14594410882E+03  0.12700000000E+01 0. -1.
         25    2    1    2    0    0  0.00000000000E+00  0.00000000000E+00 -0.11919244697E+03  0.17272037987E+03  0.12500196081E+03 0.  0.
    9000005    1    3    3    0    0 -0.12746841207E+02 -0.60871227592E+02 -0.68067125509E+02  0.92205866865E+02  0.10000000000E+01 0.  0.
    9000005    1    3    3    0    0  0.12746841207E+02  0.60871227592E+02 -0.51125321461E+02  0.80514513001E+02  0.10000000000E+01 0.  0.
<mgrwt>
<rscale>  0 0.12500196E+03</rscale>
<asrwt>0</asrwt>
<pdfrwt beam="1">  1        4 0.41175334E-02 0.12500196E+03</pdfrwt>
<pdfrwt beam="2">  1       -4 0.22454832E-01 0.12500196E+03</pdfrwt>
<totfact> 0.94939836E+03</totfact>
</mgrwt>
</event>
<event>
 5    1  0.3199195E-002  0.1250218E+03  0.7818608E-02  0.1235035E+00
         -4   -1    0    0    0  501 -0.00000000000E+00  0.00000000000E+00  0.28584471258E+03  0.28584753386E+03  0.12700000000E+01 0.  1.
          4   -1    0    0  501    0  0.00000000000E+00 -0.00000000000E+00 -0.13638016415E+02  0.13697021272E+02  0.12700000000E+01 0.  1.
         25    2    1    2    0    0  0.00000000000E+00  0.00000000000E+00  0.27220669617E+03  0.29954455513E+03  0.12502181837E+03 0.  0.
    9000005    1    3    3    0    0 -0.51755082270E+01  0.34621093991E+02  0.12040756172E+02  0.37032227096E+02  0.10000000000E+01 0.  0.
    9000005    1    3    3    0    0  0.51755082270E+01 -0.34621093991E+02  0.26016594000E+03  0.26251232803E+03  0.10000000000E+01 0.  0.
<mgrwt>
<rscale>  0 0.12502182E+03</rscale>
<asrwt>0</asrwt>
<pdfrwt beam="2">  1        4 0.21029126E-02 0.12502182E+03</pdfrwt>
<pdfrwt beam="1">  1       -4 0.43980858E-01 0.12502182E+03</pdfrwt>
<totfact> 0.75619375E+03</totfact>
</mgrwt>
</event>
<event>
 5    1  0.3199195E-002  0.1249998E+03  0.7818608E-02  0.1235070E+00
          4   -1    0    0  501    0  0.00000000000E+00  0.00000000000E+00  0.33428051975E+01  0.35759259763E+01  0.12700000000E+01 0. -1.
         -4   -1    0    0    0  501 -0.00000000000E+00 -0.00000000000E+00 -0.11289436545E+04  0.11289443689E+04  0.12700000000E+01 0. -1.
         25    2    1    2    0    0  0.00000000000E+00  0.00000000000E+00 -0.11256008493E+04  0.11325202949E+04  0.12499978488E+03 0.  0.
    9000005    1    3    3    0    0 -0.56434833942E+02 -0.14843364962E+02 -0.76539633382E+03  0.76761824092E+03  0.10000000000E+01 0.  0.
    9000005    1    3    3    0    0  0.56434833942E+02  0.14843364962E+02 -0.36020451553E+03  0.36490205394E+03  0.10000000000E+01 0.  0.
<mgrwt>
<rscale>  0 0.12499978E+03</rscale>
<asrwt>0</asrwt>
<pdfrwt beam="1">  1        4 0.53226594E-03 0.12499978E+03</pdfrwt>
<pdfrwt beam="2">  1       -4 0.17370133E+00 0.12499978E+03</pdfrwt>
<totfact> 0.26550427E+03</totfact>
</mgrwt>
</event>
<event>
 5    1  0.3199195E-002  0.1249968E+03  0.7818608E-02  0.1235074E+00
         -4   -1    0    0    0  501 -0.00000000000E+00  0.00000000000E+00  0.14759694030E+04  0.14759699494E+04  0.12700000000E+01 0. -1.
          4   -1    0    0  501    0  0.00000000000E+00 -0.00000000000E+00 -0.24934863382E+01  0.27982805647E+01  0.12700000000E+01 0. -1.
         25    2    1    2    0    0  0.00000000000E+00  0.00000000000E+00  0.14734759167E+04  0.14787682299E+04  0.12499680368E+03 0.  0.
    9000005    1    3    3    0    0 -0.60374536831E+02 -0.15428717118E+02  0.79212697952E+03  0.79457490628E+03  0.10000000000E+01 0.  0.
    9000005    1    3    3    0    0  0.60374536831E+02  0.15428717118E+02  0.68134893714E+03  0.68419332367E+03  0.10000000000E+01 0.  0.
<mgrwt>
<rscale>  0 0.12499680E+03</rscale>
<asrwt>0</asrwt>
<pdfrwt beam="2">  1        4 0.40710152E-03 0.12499680E+03</pdfrwt>
<pdfrwt beam="1">  1       -4 0.22709542E+00 0.12499680E+03</pdfrwt>
<totfact> 0.18352417E+03</totfact>
</mgrwt>
</event>
<event>
 5    1  0.3199195E-002  0.1250021E+03  0.7818608E-02  0.1235066E+00
          4   -1    0    0  501    0  0.00000000000E+00  0.00000000000E+00  0.11192150118E+02  0.11263974622E+02  0.12700000000E+01 0.  1.
         -4   -1    0    0    0  501 -0.00000000000E+00 -0.00000000000E+00 -0.34783958529E+03  0.34784190373E+03  0.12700000000E+01 0.  1.
         25    2    1    2    0    0  0.00000000000E+00  0.00000000000E+00 -0.33664743517E+03  0.35910587835E+03  0.12500214503E+03 0.  0.
    9000005    1    3    3    0    0  0.49024945280E+02 -0.33384447394E+02 -0.11177865960E+03  0.12654420307E+03  0.10000000000E+01 0.  0.
    9000005    1    3    3    0    0 -0.49024945280E+02  0.33384447394E+02 -0.22486877557E+03  0.23256167529E+03  0.10000000000E+01 0.  0.
<mgrwt>
<rscale>  0 0.12500215E+03</rscale>
<asrwt>0</asrwt>
<pdfrwt beam="1">  1        4 0.17275728E-02 0.12500215E+03</pdfrwt>
<pdfrwt beam="2">  1       -4 0.53519478E-01 0.12500215E+03</pdfrwt>
<totfact> 0.68731022E+03</totfact>
</mgrwt>
</event>
<event>
 4    1  0.3199195E-002  0.1250655E+03  0.7818608E-02  0.1234967E+00
         -4   -1    0    0    0  501 -0.00000000000E+00  0.00000000000E+00  0.19121185130E+02  0.19163314452E+02  0.12700000000E+01 0. -1.
          4   -1    0    0  501    0  0.00000000000E+00 -0.00000000000E+00 -0.20423407366E+03  0.20423802228E+03  0.12700000000E+01 0. -1.
    9000005    1    1    2    0    0  0.39281877063E+02 -0.26911010846E+02 -0.16494082487E+03  0.17167918942E+03  0.10000000000E+01 0.  0.
    9000005    1    1    2    0    0 -0.39281877063E+02  0.26911010846E+02 -0.20172063661E+02  0.51722147313E+02  0.10000000000E+01 0.  0.
<mgrwt>
<rscale>  0 0.12506549E+03</rscale>
<asrwt>0</asrwt>
<pdfrwt beam="2">  1        4 0.31424170E-01 0.12506549E+03</pdfrwt>
<pdfrwt beam="1">  1       -4 0.29452654E-02 0.12506549E+03</pdfrwt>
<totfact> 0.86206856E+03</totfact>
</mgrwt>
</event>
<event>
 5    1  0.3199195E-002  0.1249994E+03  0.7818608E-02  0.1235070E+00
         -4   -1    0    0    0  501 -0.00000000000E+00  0.00000000000E+00  0.26678645443E+03  0.26678947724E+03  0.12700000000E+01 0.  1.
          4   -1    0    0  501    0  0.00000000000E+00 -0.00000000000E+00 -0.14611068053E+02  0.14666158653E+02  0.12700000000E+01 0.  1.
         25    2    1    2    0    0  0.00000000000E+00  0.00000000000E+00  0.25217538638E+03  0.28145563590E+03  0.12499939793E+03 0.  0.
    9000005    1    3    3    0    0 -0.37683411712E+02 -0.40979702105E+02  0.19000604896E+03  0.19799665185E+03  0.10000000000E+01 0.  0.
    9000005    1    3    3    0    0  0.37683411712E+02  0.40979702105E+02  0.62169337418E+02  0.83458984045E+02  0.10000000000E+01 0.  0.
<mgrwt>
<rscale>  0 0.12499940E+03</rscale>
<asrwt>0</asrwt>
<pdfrwt beam="2">  1        4 0.22523271E-02 0.12499940E+03</pdfrwt>
<pdfrwt beam="1">  1       -4 0.41048537E-01 0.12499940E+03</pdfrwt>
<totfact> 0.77986539E+03</totfact>
</mgrwt>
</event>
<event>
 5    1  0.3199195E-002  0.1250043E+03  0.7818608E-02  0.1235063E+00
         -4   -1    0    0    0  501 -0.00000000000E+00  0.00000000000E+00  0.42689632449E+03  0.42689821358E+03  0.12700000000E+01 0.  1.
          4   -1    0    0  501    0  0.00000000000E+00 -0.00000000000E+00 -0.91049994790E+01  0.91931450284E+01  0.12700000000E+01 0.  1.
         25    2    1    2    0    0  0.00000000000E+00  0.00000000000E+00  0.41779132501E+03  0.43609135861E+03  0.12500432714E+03 0.  0.
    9000005    1    3    3    0    0 -0.16488119554E+02  0.17288004772E+02  0.41035458220E+03  0.41105062502E+03  0.10000000000E+01 0.  0.
    9000005    1    3    3    0    0  0.16488119554E+02 -0.17288004772E+02  0.74367428114E+01  0.25040733597E+02  0.10000000000E+01 0.  0.
<mgrwt>
<rscale>  0 0.12500433E+03</rscale>
<asrwt>0</asrwt>
<pdfrwt beam="2">  1        4 0.14076951E-02 0.12500433E+03</pdfrwt>
<pdfrwt beam="1">  1       -4 0.65683274E-01 0.12500433E+03</pdfrwt>
<totfact> 0.61181870E+03</totfact>
</mgrwt>
</event>
<event>
 5    1  0.3199195E-002  0.1250027E+03  0.7818608E-02  0.1235065E+00
         -4   -1    0    0    0  501 -0.00000000000E+00  0.00000000000E+00  0.25266124109E+03  0.25266443289E+03  0.12700000000E+01 0. -1.
          4   -1    0    0  501    0  0.00000000000E+00 -0.00000000000E+00 -0.15431708839E+02  0.15483879930E+02  0.12700000000E+01 0. -1.
         25    2    1    2    0    0  0.00000000000E+00  0.00000000000E+00  0.23722953225E+03  0.26814831282E+03  0.12500266676E+03 0.  0.
    9000005    1    3    3    0    0  0.47760936510E+02  0.23100586061E+02  0.18945875079E+03  0.19674949145E+03  0.10000000000E+01 0.  0.
    9000005    1    3    3    0    0 -0.47760936510E+02 -0.23100586061E+02  0.47770781456E+02  0.71398821374E+02  0.10000000000E+01 0.  0.
<mgrwt>
<rscale>  0 0.12500267E+03</rscale>
<asrwt>0</asrwt>
<pdfrwt beam="2">  1        4 0.23783680E-02 0.12500267E+03</pdfrwt>
<pdfrwt beam="1">  1       -4 0.38875214E-01 0.12500267E+03</pdfrwt>
<totfact> 0.79771257E+03</totfact>
</mgrwt>
</event>
<event>
 5    1  0.3199195E-002  0.1250111E+03  0.7818608E-02  0.1235052E+00
         -4   -1    0    0    0  501 -0.00000000000E+00  0.00000000000E+00  0.78336047779E+02  0.78346341853E+02  0.12700000000E+01 0. -1.
          4   -1    0    0  501    0  0.00000000000E+00 -0.00000000000E+00 -0.49852511428E+02  0.49868685522E+02  0.12700000000E+01 0. -1.
         25    2    1    2    0    0  0.00000000000E+00  0.00000000000E+00  0.28483536352E+02  0.12821502737E+03  0.12501112511E+03 0.  0.
    9000005    1    3    3    0    0 -0.27067847389E+02  0.55899489770E+02  0.70973197761E+01  0.62520342824E+02  0.10000000000E+01 0.  0.
    9000005    1    3    3    0    0  0.27067847389E+02 -0.55899489770E+02  0.21386216576E+02  0.65694684551E+02  0.10000000000E+01 0.  0.
<mgrwt>
<rscale>  0 0.12501113E+03</rscale>
<asrwt>0</asrwt>
<pdfrwt beam="2">  1        4 0.76716531E-02 0.12501113E+03</pdfrwt>
<pdfrwt beam="1">  1       -4 0.12053736E-01 0.12501113E+03</pdfrwt>
<totfact> 0.10380239E+04</totfact>
</mgrwt>
</event>
<event>
 5    1  0.3199195E-002  0.1249948E+03  0.7818608E-02  0.1235077E+00
         -4   -1    0    0    0  501 -0.00000000000E+00  0.00000000000E+00  0.76961943363E+01  0.78002761016E+01  0.12700000000E+01 0. -1.
          4   -1    0    0  501    0  0.00000000000E+00 -0.00000000000E+00 -0.50400009908E+03  0.50400169918E+03  0.12700000000E+01 0. -1.
         25    2    1    2    0    0  0.00000000000E+00  0.00000000000E+00 -0.49630390474E+03  0.51180197528E+03  0.12499478403E+03 0.  0.
    9000005    1    3    3    0    0  0.59201084464E+02  0.18388412361E+01 -0.16659108837E+03  0.17680989922E+03  0.10000000000E+01 0.  0.
    9000005    1    3    3    0    0 -0.59201084464E+02 -0.18388412361E+01 -0.32971281637E+03  0.33499207606E+03  0.10000000000E+01 0.  0.
<mgrwt>
<rscale>  0 0.12499478E+03</rscale>
<asrwt>0</asrwt>
<pdfrwt beam="2">  1        4 0.77546581E-01 0.12499478E+03</pdfrwt>
<pdfrwt beam="1">  1       -4 0.11921597E-02 0.12499478E+03</pdfrwt>
<totfact> 0.54966479E+03</totfact>
</mgrwt>
</event>
<event>
 5    1  0.3199195E-002  0.1250023E+03  0.7818608E-02  0.1235066E+00
         -4   -1    0    0    0  501 -0.00000000000E+00  0.00000000000E+00  0.91538714160E+03  0.91538802259E+03  0.12700000000E+01 0.  1.
          4   -1    0    0  501    0  0.00000000000E+00 -0.00000000000E+00 -0.41720847732E+01  0.43610997873E+01  0.12700000000E+01 0.  1.
         25    2    1    2    0    0  0.00000000000E+00  0.00000000000E+00  0.91121505683E+03  0.91974912238E+03  0.12500227330E+03 0.  0.
    9000005    1    3    3    0    0  0.23976761781E+02 -0.22647275674E+02  0.84617111265E+03  0.84681422761E+03  0.10000000000E+01 0.  0.
    9000005    1    3    3    0    0 -0.23976761781E+02  0.22647275674E+02  0.65043944179E+02  0.72934894772E+02  0.10000000000E+01 0.  0.
<mgrwt>
<rscale>  0 0.12500227E+03</rscale>
<asrwt>0</asrwt>
<pdfrwt beam="2">  1        4 0.65646603E-03 0.12500227E+03</pdfrwt>
<pdfrwt beam="1">  1       -4 0.14084352E+00 0.12500227E+03</pdfrwt>
<totfact> 0.33413213E+03</totfact>
</mgrwt>
</event>
<event>
 5    1  0.3199195E-002  0.1249835E+03  0.7818608E-02  0.1235095E+00
          4   -1    0    0  501    0  0.00000000000E+00  0.00000000000E+00  0.72206509924E+01  0.73314869402E+01  0.12700000000E+01 0.  1.
         -4   -1    0    0    0  501 -0.00000000000E+00 -0.00000000000E+00 -0.53660940977E+03  0.53661091263E+03  0.12700000000E+01 0.  1.
         25    2    1    2    0    0  0.00000000000E+00  0.00000000000E+00 -0.52938875878E+03  0.54394239957E+03  0.12498350343E+03 0.  0.
    9000005    1    3    3    0    0 -0.14086117132E+02  0.10224113557E+02 -0.52586717019E+03  0.52615609079E+03  0.10000000000E+01 0.  0.
    9000005    1    3    3    0    0  0.14086117132E+02 -0.10224113557E+02 -0.35215885911E+01  0.17786308782E+02  0.10000000000E+01 0.  0.
<mgrwt>
<rscale>  0 0.12498350E+03</rscale>
<asrwt>0</asrwt>
<pdfrwt beam="1">  1        4 0.11195112E-02 0.12498350E+03</pdfrwt>
<pdfrwt beam="2">  1       -4 0.82563904E-01 0.12498350E+03</pdfrwt>
<totfact> 0.52628280E+03</totfact>
</mgrwt>
</event>
<event>
 5    1  0.3199195E-002  0.1249997E+03  0.7818608E-02  0.1235070E+00
         -4   -1    0    0    0  501 -0.00000000000E+00  0.00000000000E+00  0.64490448503E+02  0.64502952244E+02  0.12700000000E+01 0. -1.
          4   -1    0    0  501    0  0.00000000000E+00 -0.00000000000E+00 -0.60545619433E+02  0.60558937677E+02  0.12700000000E+01 0. -1.
         25    2    1    2    0    0  0.00000000000E+00  0.00000000000E+00  0.39448290699E+01  0.12506188992E+03  0.12499965854E+03 0.  0.
    9000005    1    3    3    0    0  0.12308482557E+02 -0.48957117138E+02 -0.34882463513E+02  0.61368430989E+02  0.10000000000E+01 0.  0.
    9000005    1    3    3    0    0 -0.12308482557E+02  0.48957117138E+02  0.38827292583E+02  0.63693458931E+02  0.10000000000E+01 0.  0.
<mgrwt>
<rscale>  0 0.12499966E+03</rscale>
<asrwt>0</asrwt>
<pdfrwt beam="2">  1        4 0.93166970E-02 0.12499966E+03</pdfrwt>
<pdfrwt beam="1">  1       -4 0.99235938E-02 0.12499966E+03</pdfrwt>
<totfact> 0.10451599E+04</totfact>
</mgrwt>
</event>
<event>
 5    1  0.3199195E-002  0.1250028E+03  0.7818608E-02  0.1235065E+00
         -4   -1    0    0    0  501 -0.00000000000E+00  0.00000000000E+00  0.24149313135E+02  0.24182684402E+02  0.12700000000E+01 0. -1.
          4   -1    0    0  501    0  0.00000000000E+00 -0.00000000000E+00 -0.16161370565E+03  0.16161869556E+03  0.12700000000E+01 0. -1.
         25    2    1    2    0    0  0.00000000000E+00  0.00000000000E+00 -0.13746439252E+03  0.18580137996E+03  0.12500277431E+03 0.  0.
    9000005    1    3    3    0    0  0.53674416582E+02  0.14772322432E+02 -0.11093745254E+03  0.12412607656E+03  0.10000000000E+01 0.  0.
    9000005    1    3    3    0    0 -0.53674416582E+02 -0.14772322432E+02 -0.26526939975E+02  0.61675303404E+02  0.10000000000E+01 0.  0.
<mgrwt>
<rscale>  0 0.12500277E+03</rscale>
<asrwt>0</asrwt>
<pdfrwt beam="2">  1        4 0.24866597E-01 0.12500277E+03</pdfrwt>
<pdfrwt beam="1">  1       -4 0.37182299E-02 0.12500277E+03</pdfrwt>
<totfact> 0.92577281E+03</totfact>
</mgrwt>
</event>
<event>
 5    1  0.3199195E-002  0.1249991E+03  0.7818608E-02  0.1235071E+00
          4   -1    0    0  501    0  0.00000000000E+00  0.00000000000E+00  0.25850880786E+02  0.25882058215E+02  0.12700000000E+01 0. -1.
         -4   -1    0    0    0  501 -0.00000000000E+00 -0.00000000000E+00 -0.15097982604E+03  0.15098516739E+03  0.12700000000E+01 0. -1.
         25    2    1    2    0    0  0.00000000000E+00  0.00000000000E+00 -0.12512894525E+03  0.17686722560E+03  0.12499905020E+03 0.  0.
    9000005    1    3    3    0    0  0.42740206797E+02 -0.36579237351E+02 -0.24062665357E+02  0.61194589191E+02  0.10000000000E+01 0.  0.
    9000005    1    3    3    0    0 -0.42740206797E+02  0.36579237351E+02 -0.10106627990E+03  0.11567263641E+03  0.10000000000E+01 0.  0.
<mgrwt>
<rscale>  0 0.12499905E+03</rscale>
<asrwt>0</asrwt>
<pdfrwt beam="1">  1        4 0.39798678E-02 0.12499905E+03</pdfrwt>
<pdfrwt beam="2">  1       -4 0.23230474E-01 0.12499905E+03</pdfrwt>
<totfact> 0.94185978E+03</totfact>
</mgrwt>
</event>
<event>
 5    1  0.3199195E-002  0.1250022E+03  0.7818608E-02  0.1235066E+00
         -4   -1    0    0    0  501 -0.00000000000E+00  0.00000000000E+00  0.17070743193E+03  0.17071215603E+03  0.12700000000E+01 0. -1.
          4   -1    0    0  501    0  0.00000000000E+00 -0.00000000000E+00 -0.22860853666E+02  0.22896102951E+02  0.12700000000E+01 0. -1.
         25    2    1    2    0    0  0.00000000000E+00  0.00000000000E+00  0.14784657826E+03  0.19360825898E+03  0.12500218894E+03 0.  0.
    9000005    1    3    3    0    0  0.42833231898E+02  0.39382950920E+02  0.10923152600E+03  0.12376683259E+03  0.10000000000E+01 0.  0.
    9000005    1    3    3    0    0 -0.42833231898E+02 -0.39382950920E+02  0.38615052260E+02  0.69841426382E+02  0.10000000000E+01 0.  0.
<mgrwt>
<rscale>  0 0.12500219E+03</rscale>
<asrwt>0</asrwt>
<pdfrwt beam="2">  1        4 0.35201292E-02 0.12500219E+03</pdfrwt>
<pdfrwt beam="1">  1       -4 0.26265757E-01 0.12500219E+03</pdfrwt>
<totfact> 0.91218780E+03</totfact>
</mgrwt>
</event>
<event>
 5    1  0.3199195E-002  0.1249721E+03  0.7818608E-02  0.1235113E+00
         -4   -1    0    0    0  501 -0.00000000000E+00  0.00000000000E+00  0.66912925208E+02  0.66924976353E+02  0.12700000000E+01 0.  1.
          4   -1    0    0  501    0  0.00000000000E+00 -0.00000000000E+00 -0.58327848260E+02  0.58341672778E+02  0.12700000000E+01 0.  1.
         25    2    1    2    0    0  0.00000000000E+00  0.00000000000E+00  0.85850769481E+01  0.12526664913E+03  0.12497211624E+03 0.  0.
    9000005    1    3    3    0    0  0.14462650823E+02 -0.43886687870E+02 -0.37857700548E+02  0.59744582447E+02  0.10000000000E+01 0.  0.
    9000005    1    3    3    0    0 -0.14462650823E+02  0.43886687870E+02  0.46442777496E+02  0.65522066684E+02  0.10000000000E+01 0.  0.
<mgrwt>
<rscale>  0 0.12497212E+03</rscale>
<asrwt>0</asrwt>
<pdfrwt beam="2">  1        4 0.89755056E-02 0.12497212E+03</pdfrwt>
<pdfrwt beam="1">  1       -4 0.10296287E-01 0.12497212E+03</pdfrwt>
<totfact> 0.10453660E+04</totfact>
</mgrwt>
</event>
<event>
 5    1  0.3199195E-002  0.1249987E+03  0.7818608E-02  0.1235071E+00
         -4   -1    0    0    0  501 -0.00000000000E+00  0.00000000000E+00  0.12504885373E+03  0.12505530264E+03  0.12700000000E+01 0. -1.
          4   -1    0    0  501    0  0.00000000000E+00 -0.00000000000E+00 -0.31216997939E+02  0.31242820940E+02  0.12700000000E+01 0. -1.
         25    2    1    2    0    0  0.00000000000E+00  0.00000000000E+00  0.93831855793E+02  0.15629812358E+03  0.12499874509E+03 0.  0.
    9000005    1    3    3    0    0 -0.27829956300E+02  0.31405676535E+02 -0.10986370582E+02  0.43388055094E+02  0.10000000000E+01 0.  0.
    9000005    1    3    3    0    0  0.27829956300E+02 -0.31405676535E+02  0.10481822637E+03  0.11291006849E+03  0.10000000000E+01 0.  0.
<mgrwt>
<rscale>  0 0.12499875E+03</rscale>
<asrwt>0</asrwt>
<pdfrwt beam="2">  1        4 0.48050976E-02 0.12499875E+03</pdfrwt>
<pdfrwt beam="1">  1       -4 0.19240768E-01 0.12499875E+03</pdfrwt>
<totfact> 0.98064029E+03</totfact>
</mgrwt>
</event>
<event>
 5    1  0.3199195E-002  0.1250002E+03  0.7818608E-02  0.1235069E+00
         -4   -1    0    0    0  501 -0.00000000000E+00  0.00000000000E+00  0.37742187664E+03  0.37742401337E+03  0.12700000000E+01 0.  1.
          4   -1    0    0  501    0  0.00000000000E+00 -0.00000000000E+00 -0.10308721655E+02  0.10386656929E+02  0.12700000000E+01 0.  1.
         25    2    1    2    0    0  0.00000000000E+00  0.00000000000E+00  0.36711315499E+03  0.38781067030E+03  0.12500018973E+03 0.  0.
    9000005    1    3    3    0    0 -0.55661307926E+01  0.35798112224E+02  0.34153272352E+03  0.34345026988E+03  0.10000000000E+01 0.  0.
    9000005    1    3    3    0    0  0.55661307926E+01 -0.35798112224E+02  0.25580431472E+02  0.44360400416E+02  0.10000000000E+01 0.  0.
<mgrwt>
<rscale>  0 0.12500019E+03</rscale>
<asrwt>0</asrwt>
<pdfrwt beam="2">  1        4 0.15921170E-02 0.12500019E+03</pdfrwt>
<pdfrwt beam="1">  1       -4 0.58071049E-01 0.12500019E+03</pdfrwt>
<totfact> 0.65755560E+03</totfact>
</mgrwt>
</event>
<event>
 5    1  0.3199195E-002  0.1249984E+03  0.7818608E-02  0.1235072E+00
         -4   -1    0    0    0  501 -0.00000000000E+00  0.00000000000E+00  0.48376276268E+02  0.48392943757E+02  0.12700000000E+01 0.  1.
          4   -1    0    0  501    0  0.00000000000E+00 -0.00000000000E+00 -0.80709530988E+02  0.80719522374E+02  0.12700000000E+01 0.  1.
         25    2    1    2    0    0  0.00000000000E+00  0.00000000000E+00 -0.32333254720E+02  0.12911246613E+03  0.12499835819E+03 0.  0.
    9000005    1    3    3    0    0 -0.59042313763E+02  0.19756866673E+02 -0.21711629980E+02  0.65944851744E+02  0.10000000000E+01 0.  0.
    9000005    1    3    3    0    0  0.59042313763E+02 -0.19756866673E+02 -0.10621624741E+02  0.63167614387E+02  0.10000000000E+01 0.  0.
<mgrwt>
<rscale>  0 0.12499836E+03</rscale>
<asrwt>0</asrwt>
<pdfrwt beam="2">  1        4 0.12418902E-01 0.12499836E+03</pdfrwt>
<pdfrwt beam="1">  1       -4 0.74445547E-02 0.12499836E+03</pdfrwt>
<totfact> 0.10363915E+04</totfact>
</mgrwt>
</event>
<event>
 5    1  0.3199195E-002  0.1250002E+03  0.7818608E-02  0.1235069E+00
          4   -1    0    0  501    0  0.00000000000E+00  0.00000000000E+00  0.10802206408E+03  0.10802952942E+03  0.12700000000E+01 0. -1.
         -4   -1    0    0    0  501 -0.00000000000E+00 -0.00000000000E+00 -0.36141852495E+02  0.36164159078E+02  0.12700000000E+01 0. -1.
         25    2    1    2    0    0  0.00000000000E+00  0.00000000000E+00  0.71880211582E+02  0.14419368850E+03  0.12500021995E+03 0.  0.
    9000005    1    3    3    0    0 -0.19602479829E+02 -0.11569467903E+02 -0.31195504603E+02  0.38629901766E+02  0.10000000000E+01 0.  0.
    9000005    1    3    3    0    0  0.19602479829E+02  0.11569467903E+02  0.10307571618E+03  0.10556378674E+03  0.10000000000E+01 0.  0.
<mgrwt>
<rscale>  0 0.12500022E+03</rscale>
<asrwt>0</asrwt>
<pdfrwt beam="1">  1        4 0.16621069E-01 0.12500022E+03</pdfrwt>
<pdfrwt beam="2">  1       -4 0.55625752E-02 0.12500022E+03</pdfrwt>
<totfact> 0.10047347E+04</totfact>
</mgrwt>
</event>
<event>
 5    1  0.3199195E-002  0.1249999E+03  0.7818608E-02  0.1235069E+00
          4   -1    0    0  501    0  0.00000000000E+00  0.00000000000E+00  0.67288351569E+02  0.67300335489E+02  0.12700000000E+01 0.  1.
         -4   -1    0    0    0  501 -0.00000000000E+00 -0.00000000000E+00 -0.58028242787E+02  0.58042138666E+02  0.12700000000E+01 0.  1.
         25    2    1    2    0    0  0.00000000000E+00  0.00000000000E+00  0.92601087823E+01  0.12534247415E+03  0.12499994485E+03 0.  0.
    9000005    1    3    3    0    0 -0.46151712598E+02 -0.19898341631E+02  0.41871048865E+02  0.65422544344E+02  0.10000000000E+01 0.  0.
    9000005    1    3    3    0    0  0.46151712598E+02  0.19898341631E+02 -0.32610940083E+02  0.59919929810E+02  0.10000000000E+01 0.  0.
<mgrwt>
<rscale>  0 0.12499994E+03</rscale>
<asrwt>0</asrwt>
<pdfrwt beam="1">  1        4 0.10354045E-01 0.12499994E+03</pdfrwt>
<pdfrwt beam="2">  1       -4 0.89294128E-02 0.12499994E+03</pdfrwt>
<totfact> 0.10445441E+04</totfact>
</mgrwt>
</event>
<event>
 5    1  0.3199195E-002  0.1249971E+03  0.7818608E-02  0.1235074E+00
          4   -1    0    0  501    0  0.00000000000E+00  0.00000000000E+00  0.92646905981E+01  0.93513310218E+01  0.12700000000E+01 0.  1.
         -4   -1    0    0    0  501 -0.00000000000E+00 -0.00000000000E+00 -0.41955824261E+03  0.41956016474E+03  0.12700000000E+01 0.  1.
         25    2    1    2    0    0  0.00000000000E+00  0.00000000000E+00 -0.41029355201E+03  0.42891149577E+03  0.12499708948E+03 0.  0.
    9000005    1    3    3    0    0 -0.68715797200E+01 -0.10400520343E+00 -0.41827443602E+03  0.41833208489E+03  0.10000000000E+01 0.  0.
    9000005    1    3    3    0    0  0.68715797200E+01  0.10400520343E+00  0.79808840064E+01  0.10579410875E+02  0.10000000000E+01 0.  0.
<mgrwt>
<rscale>  0 0.12499709E+03</rscale>
<asrwt>0</asrwt>
<pdfrwt beam="1">  1        4 0.14321498E-02 0.12499709E+03</pdfrwt>
<pdfrwt beam="2">  1       -4 0.64554220E-01 0.12499709E+03</pdfrwt>
<totfact> 0.61838757E+03</totfact>
</mgrwt>
</event>
<event>
 5    1  0.3199195E-002  0.1250001E+03  0.7818608E-02  0.1235069E+00
          4   -1    0    0  501    0  0.00000000000E+00  0.00000000000E+00  0.87662959862E+03  0.87663051857E+03  0.12700000000E+01 0. -1.
         -4   -1    0    0    0  501 -0.00000000000E+00 -0.00000000000E+00 -0.43645601902E+01  0.45455786930E+01  0.12700000000E+01 0. -1.
         25    2    1    2    0    0  0.00000000000E+00  0.00000000000E+00  0.87226503843E+03  0.88117609726E+03  0.12500006844E+03 0.  0.
    9000005    1    3    3    0    0  0.22807094888E+02 -0.17575514789E+02  0.45148348528E+02  0.53557778820E+02  0.10000000000E+01 0.  0.
    9000005    1    3    3    0    0 -0.22807094888E+02  0.17575514789E+02  0.82711668990E+03  0.82761831844E+03  0.10000000000E+01 0.  0.
<mgrwt>
<rscale>  0 0.12500007E+03</rscale>
<asrwt>0</asrwt>
<pdfrwt beam="1">  1        4 0.13488005E+00 0.12500007E+03</pdfrwt>
<pdfrwt beam="2">  1       -4 0.68546625E-03 0.12500007E+03</pdfrwt>
<totfact> 0.34884358E+03</totfact>
</mgrwt>
</event>
<event>
 5    1  0.3199195E-002  0.1249984E+03  0.7818608E-02  0.1235072E+00
         -4   -1    0    0    0  501 -0.00000000000E+00  0.00000000000E+00  0.53228535619E+01  0.54722637035E+01  0.12700000000E+01 0.  1.
          4   -1    0    0  501    0  0.00000000000E+00 -0.00000000000E+00 -0.72353842575E+03  0.72353954034E+03  0.12700000000E+01 0.  1.
         25    2    1    2    0    0  0.00000000000E+00  0.00000000000E+00 -0.71821557219E+03  0.72901180404E+03  0.12499840920E+03 0.  0.
    9000005    1    3    3    0    0  0.28621250997E+01 -0.59101761198E+02 -0.24189125939E+03  0.24902528246E+03  0.10000000000E+01 0.  0.
    9000005    1    3    3    0    0 -0.28621250997E+01  0.59101761198E+02 -0.47632431280E+03  0.47998652158E+03  0.10000000000E+01 0.  0.
<mgrwt>
<rscale>  0 0.12499841E+03</rscale>
<asrwt>0</asrwt>
<pdfrwt beam="2">  1        4 0.11132511E+00 0.12499841E+03</pdfrwt>
<pdfrwt beam="1">  1       -4 0.83047994E-03 0.12499841E+03</pdfrwt>
<totfact> 0.41600149E+03</totfact>
</mgrwt>
</event>
<event>
 5    1  0.3199195E-002  0.1250014E+03  0.7818608E-02  0.1235067E+00
         -4   -1    0    0    0  501 -0.00000000000E+00  0.00000000000E+00  0.10165318397E+03  0.10166111701E+03  0.12700000000E+01 0.  1.
          4   -1    0    0  501    0  0.00000000000E+00 -0.00000000000E+00 -0.38408164533E+02  0.38429155635E+02  0.12700000000E+01 0.  1.
         25    2    1    2    0    0  0.00000000000E+00  0.00000000000E+00  0.63245019435E+02  0.14009027264E+03  0.12500140801E+03 0.  0.
    9000005    1    3    3    0    0  0.32840137603E+02 -0.52684420432E+02  0.23602174084E+02  0.66424283327E+02  0.10000000000E+01 0.  0.
    9000005    1    3    3    0    0 -0.32840137603E+02  0.52684420432E+02  0.39642845351E+02  0.73665989314E+02  0.10000000000E+01 0.  0.
<mgrwt>
<rscale>  0 0.12500141E+03</rscale>
<asrwt>0</asrwt>
<pdfrwt beam="2">  1        4 0.59111734E-02 0.12500141E+03</pdfrwt>
<pdfrwt beam="1">  1       -4 0.15641176E-01 0.12500141E+03</pdfrwt>
<totfact> 0.10131394E+04</totfact>
</mgrwt>
</event>
<event>
 5    1  0.3199195E-002  0.1249962E+03  0.7818608E-02  0.1235075E+00
         -4   -1    0    0    0  501 -0.00000000000E+00  0.00000000000E+00  0.53135150634E+02  0.53150325802E+02  0.12700000000E+01 0. -1.
          4   -1    0    0  501    0  0.00000000000E+00 -0.00000000000E+00 -0.73479771587E+02  0.73490745897E+02  0.12700000000E+01 0. -1.
         25    2    1    2    0    0  0.00000000000E+00  0.00000000000E+00 -0.20344620954E+02  0.12664107170E+03  0.12499622970E+03 0.  0.
    9000005    1    3    3    0    0 -0.32659687839E+02  0.12758958800E+02 -0.62578872492E+02  0.71739539459E+02  0.10000000000E+01 0.  0.
    9000005    1    3    3    0    0  0.32659687839E+02 -0.12758958800E+02  0.42234251538E+02  0.54901532241E+02  0.10000000000E+01 0.  0.
<mgrwt>
<rscale>  0 0.12499623E+03</rscale>
<asrwt>0</asrwt>
<pdfrwt beam="2">  1        4 0.11306592E-01 0.12499623E+03</pdfrwt>
<pdfrwt beam="1">  1       -4 0.81766500E-02 0.12499623E+03</pdfrwt>
<totfact> 0.10417840E+04</totfact>
</mgrwt>
</event>
<event>
 5    1  0.3199195E-002  0.1249940E+03  0.7818608E-02  0.1235079E+00
          4   -1    0    0  501    0  0.00000000000E+00  0.00000000000E+00  0.50343531774E+01  0.51920720252E+01  0.12700000000E+01 0. -1.
         -4   -1    0    0    0  501 -0.00000000000E+00 -0.00000000000E+00 -0.76372092283E+03  0.76372197878E+03  0.12700000000E+01 0. -1.
         25    2    1    2    0    0  0.00000000000E+00  0.00000000000E+00 -0.75868656965E+03  0.76891405080E+03  0.12499402606E+03 0.  0.
    9000005    1    3    3    0    0  0.58372758882E+02 -0.18421133070E+02 -0.30197976834E+03  0.30812253668E+03  0.10000000000E+01 0.  0.
    9000005    1    3    3    0    0 -0.58372758882E+02  0.18421133070E+02 -0.45670680131E+03  0.46079151412E+03  0.10000000000E+01 0.  0.
<mgrwt>
<rscale>  0 0.12499403E+03</rscale>
<asrwt>0</asrwt>
<pdfrwt beam="1">  1        4 0.78672993E-03 0.12499403E+03</pdfrwt>
<pdfrwt beam="2">  1       -4 0.11750765E+00 0.12499403E+03</pdfrwt>
<totfact> 0.39690606E+03</totfact>
</mgrwt>
</event>
<event>
 5    1  0.3199195E-002  0.1249974E+03  0.7818608E-02  0.1235073E+00
          4   -1    0    0  501    0  0.00000000000E+00  0.00000000000E+00  0.25035773160E+01  0.28072761490E+01  0.12700000000E+01 0.  1.
         -4   -1    0    0    0  501 -0.00000000000E+00 -0.00000000000E+00 -0.14706798935E+04  0.14706804418E+04  0.12700000000E+01 0.  1.
         25    2    1    2    0    0  0.00000000000E+00  0.00000000000E+00 -0.14681763161E+04  0.14734877180E+04  0.12499743875E+03 0.  0.
    9000005    1    3    3    0    0  0.46446417722E+00 -0.41143027456E+02 -0.17965360802E+03  0.18430784929E+03  0.10000000000E+01 0.  0.
    9000005    1    3    3    0    0 -0.46446417722E+00  0.41143027456E+02 -0.12885227081E+04  0.12891798687E+04  0.10000000000E+01 0.  0.
<mgrwt>
<rscale>  0 0.12499744E+03</rscale>
<asrwt>0</asrwt>
<pdfrwt beam="1">  1        4 0.40857055E-03 0.12499744E+03</pdfrwt>
<pdfrwt beam="2">  1       -4 0.22628120E+00 0.12499744E+03</pdfrwt>
<totfact> 0.18457859E+03</totfact>
</mgrwt>
</event>
<event>
 5    1  0.3199195E-002  0.1250023E+03  0.7818608E-02  0.1235066E+00
         -4   -1    0    0    0  501 -0.00000000000E+00  0.00000000000E+00  0.33498166429E+03  0.33498407173E+03  0.12700000000E+01 0. -1.
          4   -1    0    0  501    0  0.00000000000E+00 -0.00000000000E+00 -0.11624482756E+02  0.11693652096E+02  0.12700000000E+01 0. -1.
         25    2    1    2    0    0  0.00000000000E+00  0.00000000000E+00  0.32335718154E+03  0.34667772382E+03  0.12500230936E+03 0.  0.
    9000005    1    3    3    0    0 -0.43116473750E+02  0.80685360787E+01  0.38232046320E+02  0.58196399793E+02  0.10000000000E+01 0.  0.
    9000005    1    3    3    0    0  0.43116473750E+02 -0.80685360787E+01  0.28512513522E+03  0.28848132403E+03  0.10000000000E+01 0.  0.
<mgrwt>
<rscale>  0 0.12500231E+03</rscale>
<asrwt>0</asrwt>
<pdfrwt beam="2">  1        4 0.17938875E-02 0.12500231E+03</pdfrwt>
<pdfrwt beam="1">  1       -4 0.51541157E-01 0.12500231E+03</pdfrwt>
<totfact> 0.70088008E+03</totfact>
</mgrwt>
</event>
<event>
 5    1  0.3199195E-002  0.1249989E+03  0.7818608E-02  0.1235071E+00
         -4   -1    0    0    0  501 -0.00000000000E+00  0.00000000000E+00  0.10687771152E+02  0.10762962055E+02  0.12700000000E+01 0.  1.
          4   -1    0    0  501    0  0.00000000000E+00 -0.00000000000E+00 -0.36412374007E+03  0.36412595483E+03  0.12700000000E+01 0.  1.
         25    2    1    2    0    0  0.00000000000E+00  0.00000000000E+00 -0.35343596892E+03  0.37488891689E+03  0.12499886351E+03 0.  0.
    9000005    1    3    3    0    0  0.20604518899E+02  0.50468479873E+02 -0.26835456810E+03  0.27383715577E+03  0.10000000000E+01 0.  0.
    9000005    1    3    3    0    0 -0.20604518899E+02 -0.50468479873E+02 -0.85081400815E+02  0.10105176111E+03  0.10000000000E+01 0.  0.
<mgrwt>
<rscale>  0 0.12499886E+03</rscale>
<asrwt>0</asrwt>
<pdfrwt beam="2">  1        4 0.56024982E-01 0.12499886E+03</pdfrwt>
<pdfrwt beam="1">  1       -4 0.16502271E-02 0.12499886E+03</pdfrwt>
<totfact> 0.67072237E+03</totfact>
</mgrwt>
</event>
<event>
 5    1  0.3199195E-002  0.1249988E+03  0.7818608E-02  0.1235071E+00
          4   -1    0    0  501    0  0.00000000000E+00  0.00000000000E+00  0.86930675166E+02  0.86939951604E+02  0.12700000000E+01 0. -1.
         -4   -1    0    0    0  501 -0.00000000000E+00 -0.00000000000E+00 -0.44913722127E+02  0.44931674076E+02  0.12700000000E+01 0. -1.
         25    2    1    2    0    0  0.00000000000E+00  0.00000000000E+00  0.42016953040E+02  0.13187162568E+03  0.12499880526E+03 0.  0.
    9000005    1    3    3    0    0  0.31079754303E+02  0.27836507225E+02 -0.28072088307E+02  0.50297757444E+02  0.10000000000E+01 0.  0.
    9000005    1    3    3    0    0 -0.31079754303E+02 -0.27836507225E+02  0.70089041347E+02  0.81573868236E+02  0.10000000000E+01 0.  0.
<mgrwt>
<rscale>  0 0.12499881E+03</rscale>
<asrwt>0</asrwt>
<pdfrwt beam="1">  1        4 0.13376044E-01 0.12499881E+03</pdfrwt>
<pdfrwt beam="2">  1       -4 0.69118980E-02 0.12499881E+03</pdfrwt>
<totfact> 0.10304717E+04</totfact>
</mgrwt>
</event>
<event>
 5    1  0.3199195E-002  0.1249980E+03  0.7818608E-02  0.1235072E+00
          4   -1    0    0  501    0  0.00000000000E+00  0.00000000000E+00  0.16962047612E+03  0.16962523049E+03  0.12700000000E+01 0. -1.
         -4   -1    0    0    0  501 -0.00000000000E+00 -0.00000000000E+00 -0.23006022112E+02  0.23041049313E+02  0.12700000000E+01 0. -1.
         25    2    1    2    0    0  0.00000000000E+00  0.00000000000E+00  0.14661445401E+03  0.19266627981E+03  0.12499798898E+03 0.  0.
    9000005    1    3    3    0    0 -0.30375642743E+02 -0.32822929515E+02  0.60310093109E+01  0.45137539225E+02  0.10000000000E+01 0.  0.
    9000005    1    3    3    0    0  0.30375642743E+02  0.32822929515E+02  0.14058344470E+03  0.14752874058E+03  0.10000000000E+01 0.  0.
<mgrwt>
<rscale>  0 0.12499799E+03</rscale>
<asrwt>0</asrwt>
<pdfrwt beam="1">  1        4 0.26098518E-01 0.12499799E+03</pdfrwt>
<pdfrwt beam="2">  1       -4 0.35424481E-02 0.12499799E+03</pdfrwt>
<totfact> 0.91389565E+03</totfact>
</mgrwt>
</event>
<event>
 5    1  0.3199195E-002  0.1249853E+03  0.7818608E-02  0.1235092E+00
         -4   -1    0    0    0  501 -0.00000000000E+00  0.00000000000E+00  0.29749400541E+02  0.29776496311E+02  0.12700000000E+01 0.  1.
          4   -1    0    0  501    0  0.00000000000E+00 -0.00000000000E+00 -0.13118435202E+03  0.13119049933E+03  0.12700000000E+01 0.  1.
         25    2    1    2    0    0  0.00000000000E+00  0.00000000000E+00 -0.10143495148E+03  0.16096699564E+03  0.12498529635E+03 0.  0.
    9000005    1    3    3    0    0  0.41434933434E+02  0.11357266561E+02 -0.10914968144E+03  0.11730513275E+03  0.10000000000E+01 0.  0.
    9000005    1    3    3    0    0 -0.41434933434E+02 -0.11357266561E+02  0.77147299601E+01  0.43661862887E+02  0.10000000000E+01 0.  0.
<mgrwt>
<rscale>  0 0.12498530E+03</rscale>
<asrwt>0</asrwt>
<pdfrwt beam="2">  1        4 0.20184765E-01 0.12498530E+03</pdfrwt>
<pdfrwt beam="1">  1       -4 0.45793881E-02 0.12498530E+03</pdfrwt>
<totfact> 0.97188793E+03</totfact>
</mgrwt>
</event>
<event>
 5    1  0.3199195E-002  0.1250041E+03  0.7818608E-02  0.1235063E+00
          4   -1    0    0  501    0  0.00000000000E+00  0.00000000000E+00  0.15880198705E+02  0.15930901133E+02  0.12700000000E+01 0. -1.
         -4   -1    0    0    0  501 -0.00000000000E+00 -0.00000000000E+00 -0.24555426361E+03  0.24555754779E+03  0.12700000000E+01 0. -1.
         25    2    1    2    0    0  0.00000000000E+00  0.00000000000E+00 -0.22967406490E+03  0.26148844892E+03  0.12500413125E+03 0.  0.
    9000005    1    3    3    0    0  0.74944157677E+01 -0.20812685434E+02 -0.23710090246E+03  0.23813267749E+03  0.10000000000E+01 0.  0.
    9000005    1    3    3    0    0 -0.74944157677E+01  0.20812685434E+02  0.74268375612E+01  0.23355771425E+02  0.10000000000E+01 0.  0.
<mgrwt>
<rscale>  0 0.12500413E+03</rscale>
<asrwt>0</asrwt>
<pdfrwt beam="1">  1        4 0.24472605E-02 0.12500413E+03</pdfrwt>
<pdfrwt beam="2">  1       -4 0.37781729E-01 0.12500413E+03</pdfrwt>
<totfact> 0.80690212E+03</totfact>
</mgrwt>
</event>
<event>
 5    1  0.3199195E-002  0.1250201E+03  0.7818608E-02  0.1235038E+00
         -4   -1    0    0    0  501 -0.00000000000E+00  0.00000000000E+00  0.14173106478E+02  0.14229892735E+02  0.12700000000E+01 0.  1.
          4   -1    0    0  501    0  0.00000000000E+00 -0.00000000000E+00 -0.27508916399E+03  0.27509209557E+03  0.12700000000E+01 0.  1.
         25    2    1    2    0    0  0.00000000000E+00  0.00000000000E+00 -0.26091605751E+03  0.28932198830E+03  0.12502009378E+03 0.  0.
    9000005    1    3    3    0    0  0.49268091191E+02  0.49431231996E+01 -0.21872380065E+03  0.22426074165E+03  0.10000000000E+01 0.  0.
    9000005    1    3    3    0    0 -0.49268091191E+02 -0.49431231996E+01 -0.42192256863E+02  0.65061246651E+02  0.10000000000E+01 0.  0.
<mgrwt>
<rscale>  0 0.12502009E+03</rscale>
<asrwt>0</asrwt>
<pdfrwt beam="2">  1        4 0.42326000E-01 0.12502009E+03</pdfrwt>
<pdfrwt beam="1">  1       -4 0.21850718E-02 0.12502009E+03</pdfrwt>
<totfact> 0.76923753E+03</totfact>
</mgrwt>
</event>
<event>
 5    1  0.3199195E-002  0.1249950E+03  0.7818608E-02  0.1235077E+00
         -4   -1    0    0    0  501 -0.00000000000E+00  0.00000000000E+00  0.18680917633E+03  0.18681349325E+03  0.12700000000E+01 0. -1.
          4   -1    0    0  501    0  0.00000000000E+00 -0.00000000000E+00 -0.20884863208E+02  0.20923441667E+02  0.12700000000E+01 0. -1.
         25    2    1    2    0    0  0.00000000000E+00  0.00000000000E+00  0.16592431312E+03  0.20773693492E+03  0.12499502568E+03 0.  0.
    9000005    1    3    3    0    0  0.45666766396E+02 -0.20985387212E+02  0.14468113428E+03  0.15316484794E+03  0.10000000000E+01 0.  0.
    9000005    1    3    3    0    0 -0.45666766396E+02  0.20985387212E+02  0.21243178844E+02  0.54572086976E+02  0.10000000000E+01 0.  0.
<mgrwt>
<rscale>  0 0.12499503E+03</rscale>
<asrwt>0</asrwt>
<pdfrwt beam="2">  1        4 0.32163557E-02 0.12499503E+03</pdfrwt>
<pdfrwt beam="1">  1       -4 0.28743171E-01 0.12499503E+03</pdfrwt>
<totfact> 0.88856692E+03</totfact>
</mgrwt>
</event>
<event>
 5    1  0.3199195E-002  0.1249991E+03  0.7818608E-02  0.1235071E+00
         -4   -1    0    0    0  501 -0.00000000000E+00  0.00000000000E+00  0.90251624798E+03  0.90251714153E+03  0.12700000000E+01 0.  1.
          4   -1    0    0  501    0  0.00000000000E+00 -0.00000000000E+00 -0.42340373003E+01  0.44204040381E+01  0.12700000000E+01 0.  1.
         25    2    1    2    0    0  0.00000000000E+00  0.00000000000E+00  0.89828221068E+03  0.90693754557E+03  0.12499912620E+03 0.  0.
    9000005    1    3    3    0    0 -0.53669833600E+02  0.79296004838E+01  0.67416448463E+03  0.67634464731E+03  0.10000000000E+01 0.  0.
    9000005    1    3    3    0    0  0.53669833600E+02 -0.79296004838E+01  0.22411772604E+03  0.23059289826E+03  0.10000000000E+01 0.  0.
<mgrwt>
<rscale>  0 0.12499913E+03</rscale>
<asrwt>0</asrwt>
<pdfrwt beam="2">  1        4 0.66579589E-03 0.12499913E+03</pdfrwt>
<pdfrwt beam="1">  1       -4 0.13886287E+00 0.12499913E+03</pdfrwt>
<totfact> 0.33896353E+03</totfact>
</mgrwt>
</event>
<event>
 5    1  0.3199195E-002  0.1249990E+03  0.7818608E-02  0.1235071E+00
         -4   -1    0    0    0  501 -0.00000000000E+00  0.00000000000E+00  0.79067202905E+02  0.79077401799E+02  0.12700000000E+01 0.  1.
          4   -1    0    0  501    0  0.00000000000E+00 -0.00000000000E+00 -0.49381809528E+02  0.49398137741E+02  0.12700000000E+01 0.  1.
         25    2    1    2    0    0  0.00000000000E+00  0.00000000000E+00  0.29685393377E+02  0.12847553954E+03  0.12499896672E+03 0.  0.
    9000005    1    3    3    0    0  0.23240822294E+02  0.65640944475E+01  0.74082195358E+02  0.77925572349E+02  0.10000000000E+01 0.  0.
    9000005    1    3    3    0    0 -0.23240822294E+02 -0.65640944475E+01 -0.44396801982E+02  0.50549967191E+02  0.10000000000E+01 0.  0.
<mgrwt>
<rscale>  0 0.12499897E+03</rscale>
<asrwt>0</asrwt>
<pdfrwt beam="2">  1        4 0.75992421E-02 0.12499897E+03</pdfrwt>
<pdfrwt beam="1">  1       -4 0.12166225E-01 0.12499897E+03</pdfrwt>
<totfact> 0.10377473E+04</totfact>
</mgrwt>
</event>
<event>
 5    1  0.3199195E-002  0.1249957E+03  0.7818608E-02  0.1235076E+00
          4   -1    0    0  501    0  0.00000000000E+00  0.00000000000E+00  0.76688659504E+02  0.76699174680E+02  0.12700000000E+01 0. -1.
         -4   -1    0    0    0  501 -0.00000000000E+00 -0.00000000000E+00 -0.50911070785E+02  0.50926908688E+02  0.12700000000E+01 0. -1.
         25    2    1    2    0    0  0.00000000000E+00  0.00000000000E+00  0.25777588719E+02  0.12762608337E+03  0.12499573223E+03 0.  0.
    9000005    1    3    3    0    0  0.60583255072E+02  0.12986086432E+02  0.21184672989E+02  0.65488621955E+02  0.10000000000E+01 0.  0.
    9000005    1    3    3    0    0 -0.60583255072E+02 -0.12986086432E+02  0.45929157299E+01  0.62137461413E+02  0.10000000000E+01 0.  0.
<mgrwt>
<rscale>  0 0.12499573E+03</rscale>
<asrwt>0</asrwt>
<pdfrwt beam="1">  1        4 0.11800283E-01 0.12499573E+03</pdfrwt>
<pdfrwt beam="2">  1       -4 0.78344996E-02 0.12499573E+03</pdfrwt>
<totfact> 0.10396573E+04</totfact>
</mgrwt>
</event>
<event>
 5    1  0.3199195E-002  0.1250263E+03  0.7818608E-02  0.1235028E+00
         -4   -1    0    0    0  501 -0.00000000000E+00  0.00000000000E+00  0.81252508142E+01  0.82239042306E+01  0.12700000000E+01 0.  1.
          4   -1    0    0  501    0  0.00000000000E+00 -0.00000000000E+00 -0.47795490778E+03  0.47795659507E+03  0.12700000000E+01 0.  1.
         25    2    1    2    0    0  0.00000000000E+00  0.00000000000E+00 -0.46982965697E+03  0.48618049930E+03  0.12502628258E+03 0.  0.
    9000005    1    3    3    0    0  0.47531450150E+02 -0.37510059550E+02 -0.17459102583E+03  0.18479520995E+03  0.10000000000E+01 0.  0.
    9000005    1    3    3    0    0 -0.47531450150E+02  0.37510059550E+02 -0.29523863114E+03  0.30138528935E+03  0.10000000000E+01 0.  0.
<mgrwt>
<rscale>  0 0.12502628E+03</rscale>
<asrwt>0</asrwt>
<pdfrwt beam="2">  1        4 0.73539221E-01 0.12502628E+03</pdfrwt>
<pdfrwt beam="1">  1       -4 0.12577575E-02 0.12502628E+03</pdfrwt>
<totfact> 0.56919854E+03</totfact>
</mgrwt>
</event>
<event>
 5    1  0.3199195E-002  0.1250016E+03  0.7818608E-02  0.1235067E+00
          4   -1    0    0  501    0  0.00000000000E+00  0.00000000000E+00  0.63332865726E+03  0.63332993061E+03  0.12700000000E+01 0. -1.
         -4   -1    0    0    0  501 -0.00000000000E+00 -0.00000000000E+00 -0.61012950138E+01  0.62320703498E+01  0.12700000000E+01 0. -1.
         25    2    1    2    0    0  0.00000000000E+00  0.00000000000E+00  0.62722736225E+03  0.63956200096E+03  0.12500155648E+03 0.  0.
    9000005    1    3    3    0    0  0.47361194948E+02  0.36332762014E+02  0.40826005872E+03  0.41260202124E+03  0.10000000000E+01 0.  0.
    9000005    1    3    3    0    0 -0.47361194948E+02 -0.36332762014E+02  0.21896730352E+03  0.22695997972E+03  0.10000000000E+01 0.  0.
<mgrwt>
<rscale>  0 0.12500156E+03</rscale>
<asrwt>0</asrwt>
<pdfrwt beam="1">  1        4 0.97445300E-01 0.12500156E+03</pdfrwt>
<pdfrwt beam="2">  1       -4 0.94881871E-03 0.12500156E+03</pdfrwt>
<totfact> 0.46460301E+03</totfact>
</mgrwt>
</event>
<event>
 5    1  0.3199195E-002  0.1249993E+03  0.7818608E-02  0.1235070E+00
         -4   -1    0    0    0  501 -0.00000000000E+00  0.00000000000E+00  0.20762254471E+03  0.20762642888E+03  0.12700000000E+01 0.  1.
          4   -1    0    0  501    0  0.00000000000E+00 -0.00000000000E+00 -0.18788483808E+02  0.18831357460E+02  0.12700000000E+01 0.  1.
         25    2    1    2    0    0  0.00000000000E+00  0.00000000000E+00  0.18883406090E+03  0.22645778634E+03  0.12499930576E+03 0.  0.
    9000005    1    3    3    0    0 -0.42091763700E+02  0.45774567668E+02  0.83222860564E+02  0.10389452410E+03  0.10000000000E+01 0.  0.
    9000005    1    3    3    0    0  0.42091763700E+02 -0.45774567668E+02  0.10561120034E+03  0.12256326225E+03  0.10000000000E+01 0.  0.
<mgrwt>
<rscale>  0 0.12499931E+03</rscale>
<asrwt>0</asrwt>
<pdfrwt beam="2">  1        4 0.28941330E-02 0.12499931E+03</pdfrwt>
<pdfrwt beam="1">  1       -4 0.31945524E-01 0.12499931E+03</pdfrwt>
<totfact> 0.85857824E+03</totfact>
</mgrwt>
</event>
<event>
 5    1  0.3199195E-002  0.1250073E+03  0.7818608E-02  0.1235058E+00
          4   -1    0    0  501    0  0.00000000000E+00  0.00000000000E+00  0.34402051665E+01  0.36671394284E+01  0.12700000000E+01 0.  1.
         -4   -1    0    0    0  501 -0.00000000000E+00 -0.00000000000E+00 -0.10991157208E+04  0.10991164545E+04  0.12700000000E+01 0.  1.
         25    2    1    2    0    0  0.00000000000E+00  0.00000000000E+00 -0.10956755156E+04  0.11027835940E+04  0.12500727793E+03 0.  0.
    9000005    1    3    3    0    0 -0.18055994567E+02 -0.59794332189E+02 -0.56618145664E+03  0.56961726005E+03  0.10000000000E+01 0.  0.
    9000005    1    3    3    0    0  0.18055994567E+02  0.59794332189E+02 -0.52949405900E+03  0.53316633392E+03  0.10000000000E+01 0.  0.
<mgrwt>
<rscale>  0 0.12500728E+03</rscale>
<asrwt>0</asrwt>
<pdfrwt beam="1">  1        4 0.54677613E-03 0.12500728E+03</pdfrwt>
<pdfrwt beam="2">  1       -4 0.16911197E+00 0.12500728E+03</pdfrwt>
<totfact> 0.27397766E+03</totfact>
</mgrwt>
</event>
<event>
 5    1  0.3199195E-002  0.1250007E+03  0.7818608E-02  0.1235068E+00
          4   -1    0    0  501    0  0.00000000000E+00  0.00000000000E+00  0.21869684511E+03  0.21870053260E+03  0.12700000000E+01 0.  1.
         -4   -1    0    0    0  501 -0.00000000000E+00 -0.00000000000E+00 -0.17835259985E+02  0.17880419423E+02  0.12700000000E+01 0.  1.
         25    2    1    2    0    0  0.00000000000E+00  0.00000000000E+00  0.20086158512E+03  0.23658095202E+03  0.12500068193E+03 0.  0.
    9000005    1    3    3    0    0 -0.16524554896E+02 -0.56314059399E+02  0.59795979226E+02  0.83790771163E+02  0.10000000000E+01 0.  0.
    9000005    1    3    3    0    0  0.16524554896E+02  0.56314059399E+02  0.14106560589E+03  0.15279018086E+03  0.10000000000E+01 0.  0.
<mgrwt>
<rscale>  0 0.12500068E+03</rscale>
<asrwt>0</asrwt>
<pdfrwt beam="1">  1        4 0.33649428E-01 0.12500068E+03</pdfrwt>
<pdfrwt beam="2">  1       -4 0.27476435E-02 0.12500068E+03</pdfrwt>
<totfact> 0.84307939E+03</totfact>
</mgrwt>
</event>
<event>
 5    1  0.3199195E-002  0.1250037E+03  0.7818608E-02  0.1235064E+00
         -4   -1    0    0    0  501 -0.00000000000E+00  0.00000000000E+00  0.38376172616E+02  0.38397181207E+02  0.12700000000E+01 0. -1.
          4   -1    0    0  501    0  0.00000000000E+00 -0.00000000000E+00 -0.10174159347E+03  0.10174951961E+03  0.12700000000E+01 0. -1.
         25    2    1    2    0    0  0.00000000000E+00  0.00000000000E+00 -0.63365420854E+02  0.14014670082E+03  0.12500368471E+03 0.  0.
    9000005    1    3    3    0    0 -0.46564352337E+02 -0.41606787666E+02 -0.34455490562E+02  0.71327025161E+02  0.10000000000E+01 0.  0.
    9000005    1    3    3    0    0  0.46564352337E+02  0.41606787666E+02 -0.28909930293E+02  0.68819675661E+02  0.10000000000E+01 0.  0.
<mgrwt>
<rscale>  0 0.12500368E+03</rscale>
<asrwt>0</asrwt>
<pdfrwt beam="2">  1        4 0.15654778E-01 0.12500368E+03</pdfrwt>
<pdfrwt beam="1">  1       -4 0.59062523E-02 0.12500368E+03</pdfrwt>
<totfact> 0.10129705E+04</totfact>
</mgrwt>
</event>
<event>
 5    1  0.3199195E-002  0.1250016E+03  0.7818608E-02  0.1235067E+00
         -4   -1    0    0    0  501 -0.00000000000E+00  0.00000000000E+00  0.24903391036E+02  0.24935753148E+02  0.12700000000E+01 0. -1.
          4   -1    0    0  501    0  0.00000000000E+00 -0.00000000000E+00 -0.15672326055E+03  0.15672840616E+03  0.12700000000E+01 0. -1.
         25    2    1    2    0    0  0.00000000000E+00  0.00000000000E+00 -0.13181986952E+03  0.18166415931E+03  0.12500155510E+03 0.  0.
    9000005    1    3    3    0    0  0.49343833078E+02 -0.29841211250E+02 -0.30908882310E+02  0.65434476825E+02  0.10000000000E+01 0.  0.
    9000005    1    3    3    0    0 -0.49343833078E+02  0.29841211250E+02 -0.10091098720E+03  0.11622968248E+03  0.10000000000E+01 0.  0.
<mgrwt>
<rscale>  0 0.12500156E+03</rscale>
<asrwt>0</asrwt>
<pdfrwt beam="2">  1        4 0.24114155E-01 0.12500156E+03</pdfrwt>
<pdfrwt beam="1">  1       -4 0.38341762E-02 0.12500156E+03</pdfrwt>
<totfact> 0.93315051E+03</totfact>
</mgrwt>
</event>
<event>
 5    1  0.3199195E-002  0.1250002E+03  0.7818608E-02  0.1235069E+00
          4   -1    0    0  501    0  0.00000000000E+00  0.00000000000E+00  0.36185644273E+02  0.36207923877E+02  0.12700000000E+01 0.  1.
         -4   -1    0    0    0  501 -0.00000000000E+00 -0.00000000000E+00 -0.10789144158E+03  0.10789891596E+03  0.12700000000E+01 0.  1.
         25    2    1    2    0    0  0.00000000000E+00  0.00000000000E+00 -0.71705797303E+02  0.14410683984E+03  0.12500023968E+03 0.  0.
    9000005    1    3    3    0    0 -0.11730217365E+02 -0.25052330041E+02  0.28748493079E+02  0.39908559160E+02  0.10000000000E+01 0.  0.
    9000005    1    3    3    0    0  0.11730217365E+02  0.25052330041E+02 -0.10045429038E+03  0.10419828068E+03  0.10000000000E+01 0.  0.
<mgrwt>
<rscale>  0 0.12500024E+03</rscale>
<asrwt>0</asrwt>
<pdfrwt beam="1">  1        4 0.55693110E-02 0.12500024E+03</pdfrwt>
<pdfrwt beam="2">  1       -4 0.16600972E-01 0.12500024E+03</pdfrwt>
<totfact> 0.10049113E+04</totfact>
</mgrwt>
</event>
<event>
 5    1  0.3199195E-002  0.1249939E+03  0.7818608E-02  0.1235079E+00
          4   -1    0    0  501    0  0.00000000000E+00  0.00000000000E+00  0.10297258540E+03  0.10298041680E+03  0.12700000000E+01 0. -1.
         -4   -1    0    0    0  501 -0.00000000000E+00 -0.00000000000E+00 -0.37911259516E+02  0.37932525596E+02  0.12700000000E+01 0. -1.
         25    2    1    2    0    0  0.00000000000E+00  0.00000000000E+00  0.65061325884E+02  0.14091294239E+03  0.12499392469E+03 0.  0.
    9000005    1    3    3    0    0 -0.75203116144E+01  0.29770316218E+02  0.93886755506E+02  0.98785371761E+02  0.10000000000E+01 0.  0.
    9000005    1    3    3    0    0  0.75203116144E+01 -0.29770316218E+02 -0.28825429622E+02  0.42127570632E+02  0.10000000000E+01 0.  0.
<mgrwt>
<rscale>  0 0.12499392E+03</rscale>
<asrwt>0</asrwt>
<pdfrwt beam="1">  1        4 0.15844174E-01 0.12499392E+03</pdfrwt>
<pdfrwt beam="2">  1       -4 0.58347398E-02 0.12499392E+03</pdfrwt>
<totfact> 0.10116084E+04</totfact>
</mgrwt>
</event>
<event>
 5    1  0.3199195E-002  0.1250014E+03  0.7818608E-02  0.1235067E+00
         -4   -1    0    0    0  501 -0.00000000000E+00  0.00000000000E+00  0.54587870669E+03  0.54588018404E+03  0.12700000000E+01 0.  1.
          4   -1    0    0  501    0  0.00000000000E+00 -0.00000000000E+00 -0.70982089847E+01  0.72109271797E+01  0.12700000000E+01 0.  1.
         25    2    1    2    0    0  0.00000000000E+00  0.00000000000E+00  0.53878049771E+03  0.55309111122E+03  0.12500141036E+03 0.  0.
    9000005    1    3    3    0    0 -0.12598564532E+02  0.39457095100E+01  0.53965975615E+03  0.53982214188E+03  0.10000000000E+01 0.  0.
    9000005    1    3    3    0    0  0.12598564532E+02 -0.39457095100E+01 -0.87925844434E+00  0.13268969335E+02  0.10000000000E+01 0.  0.
<mgrwt>
<rscale>  0 0.12500141E+03</rscale>
<asrwt>0</asrwt>
<pdfrwt beam="2">  1        4 0.11008163E-02 0.12500141E+03</pdfrwt>
<pdfrwt beam="1">  1       -4 0.83990134E-01 0.12500141E+03</pdfrwt>
<totfact> 0.51967540E+03</totfact>
</mgrwt>
</event>
<event>
 5    1  0.3199195E-002  0.1249989E+03  0.7818608E-02  0.1235071E+00
         -4   -1    0    0    0  501 -0.00000000000E+00  0.00000000000E+00  0.16929759900E+03  0.16930236244E+03  0.12700000000E+01 0.  1.
          4   -1    0    0  501    0  0.00000000000E+00 -0.00000000000E+00 -0.23050296725E+02  0.23085256748E+02  0.12700000000E+01 0.  1.
         25    2    1    2    0    0  0.00000000000E+00  0.00000000000E+00  0.14624730228E+03  0.19238761919E+03  0.12499889037E+03 0.  0.
    9000005    1    3    3    0    0 -0.41482148290E+02 -0.22288720028E+01  0.14497647400E+03  0.15081417211E+03  0.10000000000E+01 0.  0.
    9000005    1    3    3    0    0  0.41482148290E+02  0.22288720028E+01  0.12708282796E+01  0.41573447075E+02  0.10000000000E+01 0.  0.
<mgrwt>
<rscale>  0 0.12499889E+03</rscale>
<asrwt>0</asrwt>
<pdfrwt beam="2">  1        4 0.35492552E-02 0.12499889E+03</pdfrwt>
<pdfrwt beam="1">  1       -4 0.26048840E-01 0.12499889E+03</pdfrwt>
<totfact> 0.91435800E+03</totfact>
</mgrwt>
</event>
<event>
 5    1  0.3199195E-002  0.1250032E+03  0.7818608E-02  0.1235064E+00
          4   -1    0    0  501    0  0.00000000000E+00  0.00000000000E+00  0.32203620768E+02  0.32228653254E+02  0.12700000000E+01 0.  1.
         -4   -1    0    0    0  501 -0.00000000000E+00 -0.00000000000E+00 -0.12122910248E+03  0.12123575458E+03  0.12700000000E+01 0.  1.
         25    2    1    2    0    0  0.00000000000E+00  0.00000000000E+00 -0.89025481710E+02  0.15346440783E+03  0.12500315227E+03 0.  0.
    9000005    1    3    3    0    0 -0.37398733437E+02 -0.18309673741E+02  0.12697052640E+02  0.43544512409E+02  0.10000000000E+01 0.  0.
    9000005    1    3    3    0    0  0.37398733437E+02  0.18309673741E+02 -0.10172253435E+03  0.10991989542E+03  0.10000000000E+01 0.  0.
<mgrwt>
<rscale>  0 0.12500315E+03</rscale>
<asrwt>0</asrwt>
<pdfrwt beam="1">  1        4 0.49568405E-02 0.12500315E+03</pdfrwt>
<pdfrwt beam="2">  1       -4 0.18653068E-01 0.12500315E+03</pdfrwt>
<totfact> 0.98610556E+03</totfact>
</mgrwt>
</event>
<event>
 5    1  0.3199195E-002  0.1250071E+03  0.7818608E-02  0.1235058E+00
         -4   -1    0    0    0  501 -0.00000000000E+00  0.00000000000E+00  0.22558177938E+04  0.22558181513E+04  0.12700000000E+01 0.  1.
          4   -1    0    0  501    0  0.00000000000E+00 -0.00000000000E+00 -0.14985930517E+01  0.19643525993E+01  0.12700000000E+01 0.  1.
         25    2    1    2    0    0  0.00000000000E+00  0.00000000000E+00  0.22543192007E+04  0.22577825039E+04  0.12500710396E+03 0.  0.
    9000005    1    3    3    0    0  0.53922530669E+02 -0.72712647062E+01  0.57188801069E+03  0.57447141563E+03  0.10000000000E+01 0.  0.
    9000005    1    3    3    0    0 -0.53922530669E+02  0.72712647062E+01  0.16824311900E+04  0.16833110882E+04  0.10000000000E+01 0.  0.
<mgrwt>
<rscale>  0 0.12500710E+03</rscale>
<asrwt>0</asrwt>
<pdfrwt beam="2">  1        4 0.26640828E-03 0.12500710E+03</pdfrwt>
<pdfrwt beam="1">  1       -4 0.34708430E+00 0.12500710E+03</pdfrwt>
<totfact> 0.68595798E+02</totfact>
</mgrwt>
</event>
<event>
 5    1  0.3199195E-002  0.1250052E+03  0.7818608E-02  0.1235061E+00
         -4   -1    0    0    0  501 -0.00000000000E+00  0.00000000000E+00  0.18424555007E+02  0.18468273531E+02  0.12700000000E+01 0. -1.
          4   -1    0    0  501    0  0.00000000000E+00 -0.00000000000E+00 -0.21173396300E+03  0.21173777176E+03  0.12700000000E+01 0. -1.
         25    2    1    2    0    0  0.00000000000E+00  0.00000000000E+00 -0.19330940799E+03  0.23020604529E+03  0.12500518416E+03 0.  0.
    9000005    1    3    3    0    0 -0.70614326383E+01 -0.91395945795E+01  0.16451073289E+02  0.20125452351E+02  0.10000000000E+01 0.  0.
    9000005    1    3    3    0    0  0.70614326383E+01  0.91395945795E+01 -0.20976048128E+03  0.21008059294E+03  0.10000000000E+01 0.  0.
<mgrwt>
<rscale>  0 0.12500518E+03</rscale>
<asrwt>0</asrwt>
<pdfrwt beam="2">  1        4 0.32578110E-01 0.12500518E+03</pdfrwt>
<pdfrwt beam="1">  1       -4 0.28382030E-02 0.12500518E+03</pdfrwt>
<totfact> 0.85268106E+03</totfact>
</mgrwt>
</event>
<event>
 5    1  0.3199195E-002  0.1250020E+03  0.7818608E-02  0.1235066E+00
         -4   -1    0    0    0  501 -0.00000000000E+00  0.00000000000E+00  0.66473779578E+01  0.67676091579E+01  0.12700000000E+01 0.  1.
          4   -1    0    0  501    0  0.00000000000E+00 -0.00000000000E+00 -0.58226885146E+03  0.58227023647E+03  0.12700000000E+01 0.  1.
         25    2    1    2    0    0  0.00000000000E+00  0.00000000000E+00 -0.57562147350E+03  0.58903784563E+03  0.12500201129E+03 0.  0.
    9000005    1    3    3    0    0  0.23925810740E+02  0.43475902552E+02 -0.46679952634E+03  0.46943092816E+03  0.10000000000E+01 0.  0.
    9000005    1    3    3    0    0 -0.23925810740E+02 -0.43475902552E+02 -0.10882194716E+03  0.11960691747E+03  0.10000000000E+01 0.  0.
<mgrwt>
<rscale>  0 0.12500201E+03</rscale>
<asrwt>0</asrwt>
<pdfrwt beam="2">  1        4 0.89589138E-01 0.12500201E+03</pdfrwt>
<pdfrwt beam="1">  1       -4 0.10320291E-02 0.12500201E+03</pdfrwt>
<totfact> 0.49564795E+03</totfact>
</mgrwt>
</event>
<event>
 5    1  0.3199195E-002  0.1250063E+03  0.7818608E-02  0.1235059E+00
          4   -1    0    0  501    0  0.00000000000E+00  0.00000000000E+00  0.54807472700E+01  0.56259657515E+01  0.12700000000E+01 0. -1.
         -4   -1    0    0    0  501 -0.00000000000E+00 -0.00000000000E+00 -0.70332901940E+03  0.70333016601E+03  0.12700000000E+01 0. -1.
         25    2    1    2    0    0  0.00000000000E+00  0.00000000000E+00 -0.69784827213E+03  0.70895613177E+03  0.12500634327E+03 0.  0.
    9000005    1    3    3    0    0 -0.39599043345E+02 -0.24092800857E+02 -0.58665493483E+03  0.58848412031E+03  0.10000000000E+01 0.  0.
    9000005    1    3    3    0    0  0.39599043345E+02  0.24092800857E+02 -0.11119333729E+03  0.12047201146E+03  0.10000000000E+01 0.  0.
<mgrwt>
<rscale>  0 0.12500634E+03</rscale>
<asrwt>0</asrwt>
<pdfrwt beam="1">  1        4 0.85445130E-03 0.12500634E+03</pdfrwt>
<pdfrwt beam="2">  1       -4 0.10821565E+00 0.12500634E+03</pdfrwt>
<totfact> 0.42612224E+03</totfact>
</mgrwt>
</event>
<event>
 5    1  0.3199195E-002  0.1250003E+03  0.7818608E-02  0.1235069E+00
         -4   -1    0    0    0  501 -0.00000000000E+00  0.00000000000E+00  0.57275670840E+03  0.57275811642E+03  0.12700000000E+01 0. -1.
          4   -1    0    0  501    0  0.00000000000E+00 -0.00000000000E+00 -0.67595704595E+01  0.68778407075E+01  0.12700000000E+01 0. -1.
         25    2    1    2    0    0  0.00000000000E+00  0.00000000000E+00  0.56599713794E+03  0.57963595713E+03  0.12500033052E+03 0.  0.
    9000005    1    3    3    0    0  0.57157574902E+02  0.95939146415E+01  0.17462196313E+03  0.18399147148E+03  0.10000000000E+01 0.  0.
    9000005    1    3    3    0    0 -0.57157574902E+02 -0.95939146415E+01  0.39137517481E+03  0.39564448565E+03  0.10000000000E+01 0.  0.
<mgrwt>
<rscale>  0 0.12500033E+03</rscale>
<asrwt>0</asrwt>
<pdfrwt beam="2">  1        4 0.10491399E-02 0.12500033E+03</pdfrwt>
<pdfrwt beam="1">  1       -4 0.88125625E-01 0.12500033E+03</pdfrwt>
<totfact> 0.50178440E+03</totfact>
</mgrwt>
</event>
<event>
 5    1  0.3199195E-002  0.1250218E+03  0.7818608E-02  0.1235035E+00
          4   -1    0    0  501    0  0.00000000000E+00  0.00000000000E+00  0.34681827912E+03  0.34682060439E+03  0.12700000000E+01 0. -1.
         -4   -1    0    0    0  501 -0.00000000000E+00 -0.00000000000E+00 -0.11228866369E+02  0.11300457510E+02  0.12700000000E+01 0. -1.
         25    2    1    2    0    0  0.00000000000E+00  0.00000000000E+00  0.33558941275E+03  0.35812106190E+03  0.12502176222E+03 0.  0.
    9000005    1    3    3    0    0  0.47898216400E+02 -0.18562385911E+02  0.65801521251E+02  0.83484378802E+02  0.10000000000E+01 0.  0.
    9000005    1    3    3    0    0 -0.47898216400E+02  0.18562385911E+02  0.26978789150E+03  0.27463668310E+03  0.10000000000E+01 0.  0.
<mgrwt>
<rscale>  0 0.12502176E+03</rscale>
<asrwt>0</asrwt>
<pdfrwt beam="1">  1        4 0.53362339E-01 0.12502176E+03</pdfrwt>
<pdfrwt beam="2">  1       -4 0.17332039E-02 0.12502176E+03</pdfrwt>
<totfact> 0.68807156E+03</totfact>
</mgrwt>
</event>
<event>
 5    1  0.3199195E-002  0.1250037E+03  0.7818608E-02  0.1235064E+00
         -4   -1    0    0    0  501 -0.00000000000E+00  0.00000000000E+00  0.33259038883E+02  0.33283277594E+02  0.12700000000E+01 0.  1.
          4   -1    0    0  501    0  0.00000000000E+00 -0.00000000000E+00 -0.11738574124E+03  0.11739261112E+03  0.12700000000E+01 0.  1.
         25    2    1    2    0    0  0.00000000000E+00  0.00000000000E+00 -0.84126702358E+02  0.15067588872E+03  0.12500368551E+03 0.  0.
    9000005    1    3    3    0    0  0.51778024726E+02 -0.24511093514E+02 -0.11959867721E+02  0.58530299723E+02  0.10000000000E+01 0.  0.
    9000005    1    3    3    0    0 -0.51778024726E+02  0.24511093514E+02 -0.72166834637E+02  0.92145588996E+02  0.10000000000E+01 0.  0.
<mgrwt>
<rscale>  0 0.12500369E+03</rscale>
<asrwt>0</asrwt>
<pdfrwt beam="2">  1        4 0.18061738E-01 0.12500369E+03</pdfrwt>
<pdfrwt beam="1">  1       -4 0.51191683E-02 0.12500369E+03</pdfrwt>
<totfact> 0.99160916E+03</totfact>
</mgrwt>
</event>
<event>
 5    1  0.3199195E-002  0.1249837E+03  0.7818608E-02  0.1235095E+00
         -4   -1    0    0    0  501 -0.00000000000E+00  0.00000000000E+00  0.55410022413E+02  0.55424574729E+02  0.12700000000E+01 0. -1.
          4   -1    0    0  501    0  0.00000000000E+00 -0.00000000000E+00 -0.70449242020E+02  0.70460688339E+02  0.12700000000E+01 0. -1.
         25    2    1    2    0    0  0.00000000000E+00  0.00000000000E+00 -0.15039219606E+02  0.12588526307E+03  0.12498368426E+03 0.  0.
    9000005    1    3    3    0    0  0.39983891792E+02 -0.35355022250E+02 -0.40243064715E+02  0.66852026587E+02  0.10000000000E+01 0.  0.
    9000005    1    3    3    0    0 -0.39983891792E+02  0.35355022250E+02  0.25203845108E+02  0.59033236481E+02  0.10000000000E+01 0.  0.
<mgrwt>
<rscale>  0 0.12498368E+03</rscale>
<asrwt>0</asrwt>
<pdfrwt beam="2">  1        4 0.10840345E-01 0.12498368E+03</pdfrwt>
<pdfrwt beam="1">  1       -4 0.85266187E-02 0.12498368E+03</pdfrwt>
<totfact> 0.10437315E+04</totfact>
</mgrwt>
</event>
<event>
 5    1  0.3199195E-002  0.1249890E+03  0.7818608E-02  0.1235087E+00
          4   -1    0    0  501    0  0.00000000000E+00  0.00000000000E+00  0.87258831776E+01  0.88178193012E+01  0.12700000000E+01 0. -1.
         -4   -1    0    0    0  501 -0.00000000000E+00 -0.00000000000E+00 -0.44514507070E+03  0.44514688235E+03  0.12700000000E+01 0. -1.
         25    2    1    2    0    0  0.00000000000E+00  0.00000000000E+00 -0.43641918752E+03  0.45396470165E+03  0.12498897195E+03 0.  0.
    9000005    1    3    3    0    0  0.40498220210E+01 -0.25230728676E+02 -0.42531762802E+03  0.42608576065E+03  0.10000000000E+01 0.  0.
    9000005    1    3    3    0    0 -0.40498220210E+01  0.25230728676E+02 -0.11101559503E+02  0.27878941001E+02  0.10000000000E+01 0.  0.
<mgrwt>
<rscale>  0 0.12498897E+03</rscale>
<asrwt>0</asrwt>
<pdfrwt beam="1">  1        4 0.13496553E-02 0.12498897E+03</pdfrwt>
<pdfrwt beam="2">  1       -4 0.68491051E-01 0.12498897E+03</pdfrwt>
<totfact> 0.59636356E+03</totfact>
</mgrwt>
</event>
<event>
 5    1  0.3199195E-002  0.1249946E+03  0.7818608E-02  0.1235078E+00
         -4   -1    0    0    0  501 -0.00000000000E+00  0.00000000000E+00  0.46303907361E+03  0.46304081525E+03  0.12700000000E+01 0. -1.
          4   -1    0    0  501    0  0.00000000000E+00 -0.00000000000E+00 -0.83858101219E+01  0.84814333340E+01  0.12700000000E+01 0. -1.
         25    2    1    2    0    0  0.00000000000E+00  0.00000000000E+00  0.45465326349E+03  0.47152224858E+03  0.12499456353E+03 0.  0.
    9000005    1    3    3    0    0 -0.35269989655E+02 -0.36493903787E+02  0.36485595085E+03  0.36837025131E+03  0.10000000000E+01 0.  0.
    9000005    1    3    3    0    0  0.35269989655E+02  0.36493903787E+02  0.89797312638E+02  0.10315199727E+03  0.10000000000E+01 0.  0.
<mgrwt>
<rscale>  0 0.12499456E+03</rscale>
<asrwt>0</asrwt>
<pdfrwt beam="2">  1        4 0.12976138E-02 0.12499456E+03</pdfrwt>
<pdfrwt beam="1">  1       -4 0.71244295E-01 0.12499456E+03</pdfrwt>
<totfact> 0.58150574E+03</totfact>
</mgrwt>
</event>
<event>
 5    1  0.3199195E-002  0.1249846E+03  0.7818608E-02  0.1235093E+00
          4   -1    0    0  501    0  0.00000000000E+00  0.00000000000E+00  0.11470864422E+03  0.11471567442E+03  0.12700000000E+01 0.  1.
         -4   -1    0    0    0  501 -0.00000000000E+00 -0.00000000000E+00 -0.34025342054E+02  0.34049035257E+02  0.12700000000E+01 0.  1.
         25    2    1    2    0    0  0.00000000000E+00  0.00000000000E+00  0.80683302161E+02  0.14876470968E+03  0.12498457344E+03 0.  0.
    9000005    1    3    3    0    0 -0.11360108627E+02 -0.33329378509E+02 -0.21097061617E+02  0.41060754361E+02  0.10000000000E+01 0.  0.
    9000005    1    3    3    0    0  0.11360108627E+02  0.33329378509E+02  0.10178036378E+03  0.10770395532E+03  0.10000000000E+01 0.  0.
<mgrwt>
<rscale>  0 0.12498457E+03</rscale>
<asrwt>0</asrwt>
<pdfrwt beam="1">  1        4 0.17649847E-01 0.12498457E+03</pdfrwt>
<pdfrwt beam="2">  1       -4 0.52370315E-02 0.12498457E+03</pdfrwt>
<totfact> 0.99585082E+03</totfact>
</mgrwt>
</event>
<event>
 5    1  0.3199195E-002  0.1250085E+03  0.7818608E-02  0.1235056E+00
          4   -1    0    0  501    0  0.00000000000E+00  0.00000000000E+00  0.52395700870E+02  0.52411090140E+02  0.12700000000E+01 0.  1.
         -4   -1    0    0    0  501 -0.00000000000E+00 -0.00000000000E+00 -0.74531208381E+02  0.74542027895E+02  0.12700000000E+01 0.  1.
         25    2    1    2    0    0  0.00000000000E+00  0.00000000000E+00 -0.22135507511E+02  0.12695311803E+03  0.12500845366E+03 0.  0.
    9000005    1    3    3    0    0 -0.39526400813E+02  0.46657452926E+02 -0.24172919927E+02  0.65761571853E+02  0.10000000000E+01 0.  0.
    9000005    1    3    3    0    0  0.39526400813E+02 -0.46657452926E+02  0.20374124158E+01  0.61191546182E+02  0.10000000000E+01 0.  0.
<mgrwt>
<rscale>  0 0.12500845E+03</rscale>
<asrwt>0</asrwt>
<pdfrwt beam="1">  1        4 0.80628931E-02 0.12500845E+03</pdfrwt>
<pdfrwt beam="2">  1       -4 0.11468356E-01 0.12500845E+03</pdfrwt>
<totfact> 0.10408178E+04</totfact>
</mgrwt>
</event>
<event>
 5    1  0.3199195E-002  0.1249973E+03  0.7818608E-02  0.1235074E+00
         -4   -1    0    0    0  501 -0.00000000000E+00  0.00000000000E+00  0.11207686889E+03  0.11208406416E+03  0.12700000000E+01 0.  1.
          4   -1    0    0  501    0  0.00000000000E+00 -0.00000000000E+00 -0.34831898995E+02  0.34855043934E+02  0.12700000000E+01 0.  1.
         25    2    1    2    0    0  0.00000000000E+00  0.00000000000E+00  0.77244969892E+02  0.14693910810E+03  0.12499726443E+03 0.  0.
    9000005    1    3    3    0    0  0.16634464841E+02  0.42378660733E+02 -0.11698568598E+02  0.47016091004E+02  0.10000000000E+01 0.  0.
    9000005    1    3    3    0    0 -0.16634464841E+02 -0.42378660733E+02  0.88943538490E+02  0.99923017094E+02  0.10000000000E+01 0.  0.
<mgrwt>
<rscale>  0 0.12499726E+03</rscale>
<asrwt>0</asrwt>
<pdfrwt beam="2">  1        4 0.53610875E-02 0.12499726E+03</pdfrwt>
<pdfrwt beam="1">  1       -4 0.17244929E-01 0.12499726E+03</pdfrwt>
<totfact> 0.99923532E+03</totfact>
</mgrwt>
</event>
<event>
 5    1  0.3199195E-002  0.1249991E+03  0.7818608E-02  0.1235071E+00
          4   -1    0    0  501    0  0.00000000000E+00  0.00000000000E+00  0.15546485840E+02  0.15598273045E+02  0.12700000000E+01 0.  1.
         -4   -1    0    0    0  501 -0.00000000000E+00 -0.00000000000E+00 -0.25078792588E+03  0.25079114152E+03  0.12700000000E+01 0.  1.
         25    2    1    2    0    0  0.00000000000E+00  0.00000000000E+00 -0.23524144004E+03  0.26638941457E+03  0.12499914033E+03 0.  0.
    9000005    1    3    3    0    0  0.10510127771E+02  0.35972211143E+02 -0.11048590449E+02  0.39083680881E+02  0.10000000000E+01 0.  0.
    9000005    1    3    3    0    0 -0.10510127771E+02 -0.35972211143E+02 -0.22419284959E+03  0.22730573369E+03  0.10000000000E+01 0.  0.
<mgrwt>
<rscale>  0 0.12499914E+03</rscale>
<asrwt>0</asrwt>
<pdfrwt beam="1">  1        4 0.23959982E-02 0.12499914E+03</pdfrwt>
<pdfrwt beam="2">  1       -4 0.38586986E-01 0.12499914E+03</pdfrwt>
<totfact> 0.80019208E+03</totfact>
</mgrwt>
</event>
<event>
 5    1  0.3199195E-002  0.1250046E+03  0.7818608E-02  0.1235062E+00
         -4   -1    0    0    0  501 -0.00000000000E+00  0.00000000000E+00  0.13687437843E+04  0.13687443735E+04  0.12700000000E+01 0.  1.
          4   -1    0    0  501    0  0.00000000000E+00 -0.00000000000E+00 -0.27122076533E+01  0.29948239272E+01  0.12700000000E+01 0.  1.
         25    2    1    2    0    0  0.00000000000E+00  0.00000000000E+00  0.13660315767E+04  0.13717391975E+04  0.12500462925E+03 0.  0.
    9000005    1    3    3    0    0  0.13022056500E+02 -0.40929836094E+02  0.11811590984E+04  0.11819402020E+04  0.10000000000E+01 0.  0.
    9000005    1    3    3    0    0 -0.13022056500E+02  0.40929836094E+02  0.18487247833E+03  0.18979899547E+03  0.10000000000E+01 0.  0.
<mgrwt>
<rscale>  0 0.12500463E+03</rscale>
<asrwt>0</asrwt>
<pdfrwt beam="2">  1        4 0.43904760E-03 0.12500463E+03</pdfrwt>
<pdfrwt beam="1">  1       -4 0.21059782E+00 0.12500463E+03</pdfrwt>
<totfact> 0.20593512E+03</totfact>
</mgrwt>
</event>
<event>
 5    1  0.3199195E-002  0.1250019E+03  0.7818608E-02  0.1235066E+00
         -4   -1    0    0    0  501 -0.00000000000E+00  0.00000000000E+00  0.36408932568E+02  0.36431075619E+02  0.12700000000E+01 0.  1.
          4   -1    0    0  501    0  0.00000000000E+00 -0.00000000000E+00 -0.10723302259E+03  0.10724054286E+03  0.12700000000E+01 0.  1.
         25    2    1    2    0    0  0.00000000000E+00  0.00000000000E+00 -0.70824090018E+02  0.14367161848E+03  0.12500192890E+03 0.  0.
    9000005    1    3    3    0    0 -0.14253958354E+02 -0.21081458487E+02 -0.10101362538E+03  0.10417464054E+03  0.10000000000E+01 0.  0.
    9000005    1    3    3    0    0  0.14253958354E+02  0.21081458487E+02  0.30189535360E+02  0.39496977934E+02  0.10000000000E+01 0.  0.
<mgrwt>
<rscale>  0 0.12500193E+03</rscale>
<asrwt>0</asrwt>
<pdfrwt beam="2">  1        4 0.16499670E-01 0.12500193E+03</pdfrwt>
<pdfrwt beam="1">  1       -4 0.56036561E-02 0.12500193E+03</pdfrwt>
<totfact> 0.10057611E+04</totfact>
</mgrwt>
</event>
<event>
 5    1  0.3199195E-002  0.1250032E+03  0.7818608E-02  0.1235064E+00
         -4   -1    0    0    0  501 -0.00000000000E+00  0.00000000000E+00  0.33008702710E+02  0.33033125111E+02  0.12700000000E+01 0. -1.
          4   -1    0    0  501    0  0.00000000000E+00 -0.00000000000E+00 -0.11827448778E+03  0.11828130605E+03  0.12700000000E+01 0. -1.
         25    2    1    2    0    0  0.00000000000E+00  0.00000000000E+00 -0.85265785073E+02  0.15131443116E+03  0.12500321185E+03 0.  0.
    9000005    1    3    3    0    0 -0.14014689223E+02  0.69828154423E+01  0.30601705697E+02  0.34389469567E+02  0.10000000000E+01 0.  0.
    9000005    1    3    3    0    0  0.14014689223E+02 -0.69828154423E+01 -0.11586749077E+03  0.11692496159E+03  0.10000000000E+01 0.  0.
<mgrwt>
<rscale>  0 0.12500321E+03</rscale>
<asrwt>0</asrwt>
<pdfrwt beam="2">  1        4 0.18198478E-01 0.12500321E+03</pdfrwt>
<pdfrwt beam="1">  1       -4 0.50806652E-02 0.12500321E+03</pdfrwt>
<totfact> 0.99035171E+03</totfact>
</mgrwt>
</event>
<event>
 5    1  0.3199195E-002  0.1250006E+03  0.7818608E-02  0.1235068E+00
         -4   -1    0    0    0  501 -0.00000000000E+00  0.00000000000E+00  0.27984682008E+03  0.27984970182E+03  0.12700000000E+01 0. -1.
          4   -1    0    0  501    0  0.00000000000E+00 -0.00000000000E+00 -0.13926813112E+02  0.13984599510E+02  0.12700000000E+01 0. -1.
         25    2    1    2    0    0  0.00000000000E+00  0.00000000000E+00  0.26592000697E+03  0.29383430133E+03  0.12500058613E+03 0.  0.
    9000005    1    3    3    0    0  0.45658231136E+02 -0.64991088505E+01  0.23208929706E+03  0.23662914930E+03  0.10000000000E+01 0.  0.
    9000005    1    3    3    0    0 -0.45658231136E+02  0.64991088505E+01  0.33830709905E+02  0.57205152032E+02  0.10000000000E+01 0.  0.
<mgrwt>
<rscale>  0 0.12500059E+03</rscale>
<asrwt>0</asrwt>
<pdfrwt beam="2">  1        4 0.21472535E-02 0.12500059E+03</pdfrwt>
<pdfrwt beam="1">  1       -4 0.43058022E-01 0.12500059E+03</pdfrwt>
<totfact> 0.76377824E+03</totfact>
</mgrwt>
</event>
<event>
 5    1  0.3199195E-002  0.1249977E+03  0.7818608E-02  0.1235073E+00
          4   -1    0    0  501    0  0.00000000000E+00  0.00000000000E+00  0.17375521999E+03  0.17375986123E+03  0.12700000000E+01 0. -1.
         -4   -1    0    0    0  501 -0.00000000000E+00 -0.00000000000E+00 -0.22457644423E+02  0.22493525581E+02  0.12700000000E+01 0. -1.
         25    2    1    2    0    0  0.00000000000E+00  0.00000000000E+00  0.15129757557E+03  0.19625338681E+03  0.12499774182E+03 0.  0.
    9000005    1    3    3    0    0 -0.34994527844E+02 -0.46077210935E+02  0.38581427019E+02  0.69550362022E+02  0.10000000000E+01 0.  0.
    9000005    1    3    3    0    0  0.34994527844E+02  0.46077210935E+02  0.11271614855E+03  0.12670302479E+03  0.10000000000E+01 0.  0.
<mgrwt>
<rscale>  0 0.12499774E+03</rscale>
<asrwt>0</asrwt>
<pdfrwt beam="1">  1        4 0.26734691E-01 0.12499774E+03</pdfrwt>
<pdfrwt beam="2">  1       -4 0.34581392E-02 0.12499774E+03</pdfrwt>
<totfact> 0.90775074E+03</totfact>
</mgrwt>
</event>
<event>
 5    1  0.3199195E-002  0.1249966E+03  0.7818608E-02  0.1235075E+00
          4   -1    0    0  501    0  0.00000000000E+00  0.00000000000E+00  0.16933483852E+03  0.16933960091E+03  0.12700000000E+01 0.  1.
         -4   -1    0    0    0  501 -0.00000000000E+00 -0.00000000000E+00 -0.23044370062E+02  0.23079339062E+02  0.12700000000E+01 0.  1.
         25    2    1    2    0    0  0.00000000000E+00  0.00000000000E+00  0.14629046845E+03  0.19241893997E+03  0.12499658915E+03 0.  0.
    9000005    1    3    3    0    0  0.49082774066E+02  0.34738727003E+01  0.13244387016E+03  0.14129248120E+03  0.10000000000E+01 0.  0.
    9000005    1    3    3    0    0 -0.49082774066E+02 -0.34738727003E+01  0.13846598294E+02  0.51126458765E+02  0.10000000000E+01 0.  0.
<mgrwt>
<rscale>  0 0.12499659E+03</rscale>
<asrwt>0</asrwt>
<pdfrwt beam="1">  1        4 0.26054569E-01 0.12499659E+03</pdfrwt>
<pdfrwt beam="2">  1       -4 0.35483441E-02 0.12499659E+03</pdfrwt>
<totfact> 0.91435107E+03</totfact>
</mgrwt>
</event>
<event>
 5    1  0.3199195E-002  0.1250017E+03  0.7818608E-02  0.1235067E+00
         -4   -1    0    0    0  501 -0.00000000000E+00  0.00000000000E+00  0.35941452878E+01  0.38119260682E+01  0.12700000000E+01 0.  1.
          4   -1    0    0  501    0  0.00000000000E+00 -0.00000000000E+00 -0.10546877818E+04  0.10546885465E+04  0.12700000000E+01 0.  1.
         25    2    1    2    0    0  0.00000000000E+00  0.00000000000E+00 -0.10510936365E+04  0.10585004725E+04  0.12500167027E+03 0.  0.
    9000005    1    3    3    0    0  0.21754899652E+02 -0.13890037781E+02 -0.10074840449E+04  0.10078151167E+04  0.10000000000E+01 0.  0.
    9000005    1    3    3    0    0 -0.21754899652E+02  0.13890037781E+02 -0.43609591659E+02  0.50685355806E+02  0.10000000000E+01 0.  0.
<mgrwt>
<rscale>  0 0.12500167E+03</rscale>
<asrwt>0</asrwt>
<pdfrwt beam="2">  1        4 0.16227623E+00 0.12500167E+03</pdfrwt>
<pdfrwt beam="1">  1       -4 0.56975746E-03 0.12500167E+03</pdfrwt>
<totfact> 0.28729829E+03</totfact>
</mgrwt>
</event>
<event>
 5    1  0.3199195E-002  0.1250120E+03  0.7818608E-02  0.1235051E+00
         -4   -1    0    0    0  501 -0.00000000000E+00  0.00000000000E+00  0.14814158207E+03  0.14814702575E+03  0.12700000000E+01 0. -1.
          4   -1    0    0  501    0  0.00000000000E+00 -0.00000000000E+00 -0.26352204150E+02  0.26382789155E+02  0.12700000000E+01 0. -1.
         25    2    1    2    0    0  0.00000000000E+00  0.00000000000E+00  0.12178937792E+03  0.17452981491E+03  0.12501201429E+03 0.  0.
    9000005    1    3    3    0    0 -0.18488953439E+02 -0.18878664001E+02  0.13996592167E+03  0.14244193407E+03  0.10000000000E+01 0.  0.
    9000005    1    3    3    0    0  0.18488953439E+02  0.18878664001E+02 -0.18176543747E+02  0.32087880833E+02  0.10000000000E+01 0.  0.
<mgrwt>
<rscale>  0 0.12501201E+03</rscale>
<asrwt>0</asrwt>
<pdfrwt beam="2">  1        4 0.40569566E-02 0.12501201E+03</pdfrwt>
<pdfrwt beam="1">  1       -4 0.22793784E-01 0.12501201E+03</pdfrwt>
<totfact> 0.94585527E+03</totfact>
</mgrwt>
</event>
<event>
 5    1  0.3199195E-002  0.1249981E+03  0.7818608E-02  0.1235072E+00
          4   -1    0    0  501    0  0.00000000000E+00  0.00000000000E+00  0.22420695103E+02  0.22456635297E+02  0.12700000000E+01 0.  1.
         -4   -1    0    0    0  501 -0.00000000000E+00 -0.00000000000E+00 -0.17404215355E+03  0.17404678713E+03  0.12700000000E+01 0.  1.
         25    2    1    2    0    0  0.00000000000E+00  0.00000000000E+00 -0.15162145845E+03  0.19650342243E+03  0.12499811345E+03 0.  0.
    9000005    1    3    3    0    0  0.57744291420E+02  0.11091757259E+02 -0.42547754123E+02  0.72586098198E+02  0.10000000000E+01 0.  0.
    9000005    1    3    3    0    0 -0.57744291420E+02 -0.11091757259E+02 -0.10907370432E+03  0.12391732423E+03  0.10000000000E+01 0.  0.
<mgrwt>
<rscale>  0 0.12499811E+03</rscale>
<asrwt>0</asrwt>
<pdfrwt beam="1">  1        4 0.34524589E-02 0.12499811E+03</pdfrwt>
<pdfrwt beam="2">  1       -4 0.26778836E-01 0.12499811E+03</pdfrwt>
<totfact> 0.90731724E+03</totfact>
</mgrwt>
</event>
<event>
 5    1  0.3199195E-002  0.1249999E+03  0.7818608E-02  0.1235069E+00
          4   -1    0    0  501    0  0.00000000000E+00  0.00000000000E+00  0.16153763562E+02  0.16203610006E+02  0.12700000000E+01 0.  1.
         -4   -1    0    0    0  501 -0.00000000000E+00 -0.00000000000E+00 -0.24139229519E+03  0.24139563600E+03  0.12700000000E+01 0.  1.
         25    2    1    2    0    0  0.00000000000E+00  0.00000000000E+00 -0.22523853163E+03  0.25759924600E+03  0.12499990164E+03 0.  0.
    9000005    1    3    3    0    0  0.18860326365E+02  0.16046500177E+02 -0.23086012722E+03  0.23218656382E+03  0.10000000000E+01 0.  0.
    9000005    1    3    3    0    0 -0.18860326365E+02 -0.16046500177E+02  0.56215955931E+01  0.25412682179E+02  0.10000000000E+01 0.  0.
<mgrwt>
<rscale>  0 0.12499990E+03</rscale>
<asrwt>0</asrwt>
<pdfrwt beam="1">  1        4 0.24892859E-02 0.12499990E+03</pdfrwt>
<pdfrwt beam="2">  1       -4 0.37141365E-01 0.12499990E+03</pdfrwt>
<totfact> 0.81244336E+03</totfact>
</mgrwt>
</event>
<event>
 5    1  0.3199195E-002  0.1250027E+03  0.7818608E-02  0.1235065E+00
          4   -1    0    0  501    0  0.00000000000E+00  0.00000000000E+00  0.37039810161E+02  0.37061576286E+02  0.12700000000E+01 0.  1.
         -4   -1    0    0    0  501 -0.00000000000E+00 -0.00000000000E+00 -0.10540890769E+03  0.10541655810E+03  0.12700000000E+01 0.  1.
         25    2    1    2    0    0  0.00000000000E+00  0.00000000000E+00 -0.68369097532E+02  0.14247813438E+03  0.12500274109E+03 0.  0.
    9000005    1    3    3    0    0  0.29670964325E+02 -0.34839348805E+02  0.14324289774E+02  0.47961772555E+02  0.10000000000E+01 0.  0.
    9000005    1    3    3    0    0 -0.29670964325E+02  0.34839348805E+02 -0.82693387306E+02  0.94516361829E+02  0.10000000000E+01 0.  0.
<mgrwt>
<rscale>  0 0.12500274E+03</rscale>
<asrwt>0</asrwt>
<pdfrwt beam="1">  1        4 0.57006952E-02 0.12500274E+03</pdfrwt>
<pdfrwt beam="2">  1       -4 0.16219018E-01 0.12500274E+03</pdfrwt>
<totfact> 0.10081859E+04</totfact>
</mgrwt>
</event>
<event>
 5    1  0.3199195E-002  0.1250023E+03  0.7818608E-02  0.1235066E+00
          4   -1    0    0  501    0  0.00000000000E+00  0.00000000000E+00  0.10994133814E+03  0.10994867317E+03  0.12700000000E+01 0.  1.
         -4   -1    0    0    0  501 -0.00000000000E+00 -0.00000000000E+00 -0.35511742356E+02  0.35534444490E+02  0.12700000000E+01 0.  1.
         25    2    1    2    0    0  0.00000000000E+00  0.00000000000E+00  0.74429595781E+02  0.14548311766E+03  0.12500229116E+03 0.  0.
    9000005    1    3    3    0    0  0.34150968326E+02 -0.15751603921E+02  0.95302039271E+02  0.10245916432E+03  0.10000000000E+01 0.  0.
    9000005    1    3    3    0    0 -0.34150968326E+02  0.15751603921E+02 -0.20872443490E+02  0.43023953339E+02  0.10000000000E+01 0.  0.
<mgrwt>
<rscale>  0 0.12500229E+03</rscale>
<asrwt>0</asrwt>
<pdfrwt beam="1">  1        4 0.16916363E-01 0.12500229E+03</pdfrwt>
<pdfrwt beam="2">  1       -4 0.54656555E-02 0.12500229E+03</pdfrwt>
<totfact> 0.10020665E+04</totfact>
</mgrwt>
</event>
<event>
 5    1  0.3199195E-002  0.1250001E+03  0.7818608E-02  0.1235069E+00
         -4   -1    0    0    0  501 -0.00000000000E+00  0.00000000000E+00  0.78152712823E+02  0.78163031041E+02  0.12700000000E+01 0.  1.
          4   -1    0    0  501    0  0.00000000000E+00 -0.00000000000E+00 -0.49960660865E+02  0.49976799959E+02  0.12700000000E+01 0.  1.
         25    2    1    2    0    0  0.00000000000E+00  0.00000000000E+00  0.28192051958E+02  0.12813983100E+03  0.12500009798E+03 0.  0.
    9000005    1    3    3    0    0 -0.31180135089E+02 -0.13291211711E+02 -0.39724115438E+02  0.52228942936E+02  0.10000000000E+01 0.  0.
    9000005    1    3    3    0    0  0.31180135089E+02  0.13291211711E+02  0.67916167395E+02  0.75910888064E+02  0.10000000000E+01 0.  0.
<mgrwt>
<rscale>  0 0.12500010E+03</rscale>
<asrwt>0</asrwt>
<pdfrwt beam="2">  1        4 0.76882907E-02 0.12500010E+03</pdfrwt>
<pdfrwt beam="1">  1       -4 0.12025529E-01 0.12500010E+03</pdfrwt>
<totfact> 0.10384446E+04</totfact>
</mgrwt>
</event>
<event>
 5    1  0.3199195E-002  0.1249904E+03  0.7818608E-02  0.1235084E+00
          4   -1    0    0  501    0  0.00000000000E+00  0.00000000000E+00  0.15651103269E+02  0.15702545448E+02  0.12700000000E+01 0. -1.
         -4   -1    0    0    0  501 -0.00000000000E+00 -0.00000000000E+00 -0.24908223445E+03  0.24908547211E+03  0.12700000000E+01 0. -1.
         25    2    1    2    0    0  0.00000000000E+00  0.00000000000E+00 -0.23343113118E+03  0.26478801756E+03  0.12499040459E+03 0.  0.
    9000005    1    3    3    0    0  0.34577155906E+01  0.46848228477E+02 -0.20400919860E+03  0.20935010251E+03  0.10000000000E+01 0.  0.
    9000005    1    3    3    0    0 -0.34577155906E+01 -0.46848228477E+02 -0.29421932585E+02  0.55437915055E+02  0.10000000000E+01 0.  0.
<mgrwt>
<rscale>  0 0.12499040E+03</rscale>
<asrwt>0</asrwt>
<pdfrwt beam="1">  1        4 0.24120684E-02 0.12499040E+03</pdfrwt>
<pdfrwt beam="2">  1       -4 0.38324547E-01 0.12499040E+03</pdfrwt>
<totfact> 0.80255927E+03</totfact>
</mgrwt>
</event>
<event>
 5    1  0.3199195E-002  0.1249814E+03  0.7818608E-02  0.1235098E+00
          4   -1    0    0  501    0  0.00000000000E+00  0.00000000000E+00  0.13655268620E+03  0.13655859185E+03  0.12700000000E+01 0. -1.
         -4   -1    0    0    0  501 -0.00000000000E+00 -0.00000000000E+00 -0.28577048165E+02  0.28605254444E+02  0.12700000000E+01 0. -1.
         25    2    1    2    0    0  0.00000000000E+00  0.00000000000E+00  0.10797563803E+03  0.16516384629E+03  0.12498142947E+03 0.  0.
    9000005    1    3    3    0    0 -0.29830473725E+02  0.53564623897E+02  0.69904346568E+02  0.92987331207E+02  0.10000000000E+01 0.  0.
    9000005    1    3    3    0    0  0.29830473725E+02 -0.53564623897E+02  0.38071291463E+02  0.72176515083E+02  0.10000000000E+01 0.  0.
<mgrwt>
<rscale>  0 0.12498143E+03</rscale>
<asrwt>0</asrwt>
<pdfrwt beam="1">  1        4 0.21010730E-01 0.12498143E+03</pdfrwt>
<pdfrwt beam="2">  1       -4 0.43990929E-02 0.12498143E+03</pdfrwt>
<totfact> 0.96396580E+03</totfact>
</mgrwt>
</event>
<event>
 5    1  0.3199195E-002  0.1250032E+03  0.7818608E-02  0.1235064E+00
          4   -1    0    0  501    0  0.00000000000E+00  0.00000000000E+00  0.17723875046E+02  0.17769317563E+02  0.12700000000E+01 0.  1.
         -4   -1    0    0    0  501 -0.00000000000E+00 -0.00000000000E+00 -0.22007671673E+03  0.22008038110E+03  0.12700000000E+01 0.  1.
         25    2    1    2    0    0  0.00000000000E+00  0.00000000000E+00 -0.20235284168E+03  0.23784969866E+03  0.12500322643E+03 0.  0.
    9000005    1    3    3    0    0 -0.59598466480E+02  0.11263336314E+02 -0.72533153930E+02  0.94556323801E+02  0.10000000000E+01 0.  0.
    9000005    1    3    3    0    0  0.59598466480E+02 -0.11263336314E+02 -0.12981968775E+03  0.14329337486E+03  0.10000000000E+01 0.  0.
<mgrwt>
<rscale>  0 0.12500323E+03</rscale>
<asrwt>0</asrwt>
<pdfrwt beam="1">  1        4 0.27305276E-02 0.12500323E+03</pdfrwt>
<pdfrwt beam="2">  1       -4 0.33861732E-01 0.12500323E+03</pdfrwt>
<totfact> 0.84112612E+03</totfact>
</mgrwt>
</event>
<event>
 5    1  0.3199195E-002  0.1250020E+03  0.7818608E-02  0.1235066E+00
         -4   -1    0    0    0  501 -0.00000000000E+00  0.00000000000E+00  0.90447008316E+01  0.91334283341E+01  0.12700000000E+01 0.  1.
          4   -1    0    0  501    0  0.00000000000E+00 -0.00000000000E+00 -0.42969867001E+03  0.42970054678E+03  0.12700000000E+01 0.  1.
         25    2    1    2    0    0  0.00000000000E+00  0.00000000000E+00 -0.42065396917E+03  0.43883397512E+03  0.12500198372E+03 0.  0.
    9000005    1    3    3    0    0 -0.55812551105E+02  0.18651944445E+01 -0.11185096982E+03  0.12502063534E+03  0.10000000000E+01 0.  0.
    9000005    1    3    3    0    0  0.55812551105E+02 -0.18651944445E+01 -0.30880299936E+03  0.31381333978E+03  0.10000000000E+01 0.  0.
<mgrwt>
<rscale>  0 0.12500198E+03</rscale>
<asrwt>0</asrwt>
<pdfrwt beam="2">  1        4 0.66114442E-01 0.12500198E+03</pdfrwt>
<pdfrwt beam="1">  1       -4 0.13984623E-02 0.12500198E+03</pdfrwt>
<totfact> 0.60940670E+03</totfact>
</mgrwt>
</event>
<event>
 5    1  0.3199195E-002  0.1249995E+03  0.7818608E-02  0.1235070E+00
         -4   -1    0    0    0  501 -0.00000000000E+00  0.00000000000E+00  0.34382036287E+04  0.34382038632E+04  0.12700000000E+01 0. -1.
          4   -1    0    0  501    0  0.00000000000E+00 -0.00000000000E+00 -0.78090062935E+00  0.14908741707E+01  0.12700000000E+01 0. -1.
         25    2    1    2    0    0  0.00000000000E+00  0.00000000000E+00  0.34374227281E+04  0.34396947374E+04  0.12499950089E+03 0.  0.
    9000005    1    3    3    0    0 -0.16583652462E+02  0.20478602191E+02  0.32779771608E+04  0.32780832292E+04  0.10000000000E+01 0.  0.
    9000005    1    3    3    0    0  0.16583652462E+02 -0.20478602191E+02  0.15944556724E+03  0.16161150822E+03  0.10000000000E+01 0.  0.
<mgrwt>
<rscale>  0 0.12499950E+03</rscale>
<asrwt>0</asrwt>
<pdfrwt beam="2">  1        4 0.17477006E-03 0.12499950E+03</pdfrwt>
<pdfrwt beam="1">  1       -4 0.52900872E+00 0.12499950E+03</pdfrwt>
<totfact> 0.67005532E+01</totfact>
</mgrwt>
</event>
<event>
 5    1  0.3199195E-002  0.1250010E+03  0.7818608E-02  0.1235068E+00
          4   -1    0    0  501    0  0.00000000000E+00  0.00000000000E+00  0.15267896466E+03  0.15268424657E+03  0.12700000000E+01 0. -1.
         -4   -1    0    0    0  501 -0.00000000000E+00 -0.00000000000E+00 -0.25563645165E+02  0.25595172477E+02  0.12700000000E+01 0. -1.
         25    2    1    2    0    0  0.00000000000E+00  0.00000000000E+00  0.12711531950E+03  0.17827941905E+03  0.12500098721E+03 0.  0.
    9000005    1    3    3    0    0  0.31782794901E+02 -0.49817242812E+02  0.92556270251E+02  0.10981605937E+03  0.10000000000E+01 0.  0.
    9000005    1    3    3    0    0 -0.31782794901E+02  0.49817242812E+02  0.34559049246E+02  0.68463359675E+02  0.10000000000E+01 0.  0.
<mgrwt>
<rscale>  0 0.12500099E+03</rscale>
<asrwt>0</asrwt>
<pdfrwt beam="1">  1        4 0.23491904E-01 0.12500099E+03</pdfrwt>
<pdfrwt beam="2">  1       -4 0.39356998E-02 0.12500099E+03</pdfrwt>
<totfact> 0.93925552E+03</totfact>
</mgrwt>
</event>
<event>
 5    1  0.3199195E-002  0.1249953E+03  0.7818608E-02  0.1235077E+00
         -4   -1    0    0    0  501 -0.00000000000E+00  0.00000000000E+00  0.11104132167E+02  0.11176522321E+02  0.12700000000E+01 0. -1.
          4   -1    0    0  501    0  0.00000000000E+00 -0.00000000000E+00 -0.35054083043E+03  0.35054313101E+03  0.12700000000E+01 0. -1.
         25    2    1    2    0    0  0.00000000000E+00  0.00000000000E+00 -0.33943669826E+03  0.36171965333E+03  0.12499534183E+03 0.  0.
    9000005    1    3    3    0    0  0.76896525942E+01  0.40170409100E+02 -0.32995356633E+02  0.52559357717E+02  0.10000000000E+01 0.  0.
    9000005    1    3    3    0    0 -0.76896525942E+01 -0.40170409100E+02 -0.30644134163E+03  0.30916029561E+03  0.10000000000E+01 0.  0.
<mgrwt>
<rscale>  0 0.12499534E+03</rscale>
<asrwt>0</asrwt>
<pdfrwt beam="2">  1        4 0.53935096E-01 0.12499534E+03</pdfrwt>
<pdfrwt beam="1">  1       -4 0.17140737E-02 0.12499534E+03</pdfrwt>
<totfact> 0.68461263E+03</totfact>
</mgrwt>
</event>
<event>
 5    1  0.3199195E-002  0.1249967E+03  0.7818608E-02  0.1235074E+00
         -4   -1    0    0    0  501 -0.00000000000E+00  0.00000000000E+00  0.11297307656E+03  0.11298021476E+03  0.12700000000E+01 0. -1.
          4   -1    0    0  501    0  0.00000000000E+00 -0.00000000000E+00 -0.34555086269E+02  0.34578416492E+02  0.12700000000E+01 0. -1.
         25    2    1    2    0    0  0.00000000000E+00  0.00000000000E+00  0.78417990292E+02  0.14755863125E+03  0.12499667378E+03 0.  0.
    9000005    1    3    3    0    0  0.19951705056E+02  0.56548708106E+01  0.10879841120E+03  0.11076164669E+03  0.10000000000E+01 0.  0.
    9000005    1    3    3    0    0 -0.19951705056E+02 -0.56548708106E+01 -0.30380420906E+02  0.36796984563E+02  0.10000000000E+01 0.  0.
<mgrwt>
<rscale>  0 0.12499667E+03</rscale>
<asrwt>0</asrwt>
<pdfrwt beam="2">  1        4 0.53185108E-02 0.12499667E+03</pdfrwt>
<pdfrwt beam="1">  1       -4 0.17382817E-01 0.12499667E+03</pdfrwt>
<totfact> 0.99800065E+03</totfact>
</mgrwt>
</event>
<event>
 5    1  0.3199195E-002  0.1249978E+03  0.7818608E-02  0.1235073E+00
          4   -1    0    0  501    0  0.00000000000E+00  0.00000000000E+00  0.70028209788E+01  0.71170500673E+01  0.12700000000E+01 0. -1.
         -4   -1    0    0    0  501 -0.00000000000E+00 -0.00000000000E+00 -0.55316419781E+03  0.55316565569E+03  0.12700000000E+01 0. -1.
         25    2    1    2    0    0  0.00000000000E+00  0.00000000000E+00 -0.54616137683E+03  0.56028270576E+03  0.12499784331E+03 0.  0.
    9000005    1    3    3    0    0  0.55539149766E+01 -0.19720413725E+02 -0.53770480634E+03  0.53809590172E+03  0.10000000000E+01 0.  0.
    9000005    1    3    3    0    0 -0.55539149766E+01  0.19720413725E+02 -0.84565704934E+01  0.22186804041E+02  0.10000000000E+01 0.  0.
<mgrwt>
<rscale>  0 0.12499784E+03</rscale>
<asrwt>0</asrwt>
<pdfrwt beam="1">  1        4 0.10862565E-02 0.12499784E+03</pdfrwt>
<pdfrwt beam="2">  1       -4 0.85111050E-01 0.12499784E+03</pdfrwt>
<totfact> 0.51477106E+03</totfact>
</mgrwt>
</event>
<event>
 5    1  0.3199195E-002  0.1250532E+03  0.7818608E-02  0.1234986E+00
         -4   -1    0    0    0  501 -0.00000000000E+00  0.00000000000E+00  0.24424804028E+04  0.24424807329E+04  0.12700000000E+01 0. -1.
          4   -1    0    0  501    0  0.00000000000E+00 -0.00000000000E+00 -0.13483640595E+01  0.18522919956E+01  0.12700000000E+01 0. -1.
         25    2    1    2    0    0  0.00000000000E+00  0.00000000000E+00  0.24411320387E+04  0.24443330249E+04  0.12505321429E+03 0.  0.
    9000005    1    3    3    0    0 -0.52371155132E+02 -0.31415432721E+02  0.14820120017E+04  0.14832701172E+04  0.10000000000E+01 0.  0.
    9000005    1    3    3    0    0  0.52371155132E+02  0.31415432721E+02  0.95912003701E+03  0.96106290777E+03  0.10000000000E+01 0.  0.
<mgrwt>
<rscale>  0 0.12505321E+03</rscale>
<asrwt>0</asrwt>
<pdfrwt beam="2">  1        4 0.24622823E-03 0.12505321E+03</pdfrwt>
<pdfrwt beam="1">  1       -4 0.37580726E+00 0.12505321E+03</pdfrwt>
<totfact> 0.51154382E+02</totfact>
</mgrwt>
</event>
<event>
 5    1  0.3199195E-002  0.1249915E+03  0.7818608E-02  0.1235082E+00
         -4   -1    0    0    0  501 -0.00000000000E+00  0.00000000000E+00  0.34999980004E+02  0.35023013866E+02  0.12700000000E+01 0. -1.
          4   -1    0    0  501    0  0.00000000000E+00 -0.00000000000E+00 -0.11152875147E+03  0.11153598210E+03  0.12700000000E+01 0. -1.
         25    2    1    2    0    0  0.00000000000E+00  0.00000000000E+00 -0.76528771463E+02  0.14655899597E+03  0.12499154547E+03 0.  0.
    9000005    1    3    3    0    0 -0.58290308823E+02 -0.12544725513E+02 -0.60188002093E+02  0.84727361796E+02  0.10000000000E+01 0.  0.
    9000005    1    3    3    0    0  0.58290308823E+02  0.12544725513E+02 -0.16340769370E+02  0.61831634173E+02  0.10000000000E+01 0.  0.
<mgrwt>
<rscale>  0 0.12499155E+03</rscale>
<asrwt>0</asrwt>
<pdfrwt beam="2">  1        4 0.17160597E-01 0.12499155E+03</pdfrwt>
<pdfrwt beam="1">  1       -4 0.53869404E-02 0.12499155E+03</pdfrwt>
<totfact> 0.10001312E+04</totfact>
</mgrwt>
</event>
<event>
 5    1  0.3199195E-002  0.1249992E+03  0.7818608E-02  0.1235070E+00
         -4   -1    0    0    0  501 -0.00000000000E+00  0.00000000000E+00  0.10449712121E+02  0.10526603603E+02  0.12700000000E+01 0. -1.
          4   -1    0    0  501    0  0.00000000000E+00 -0.00000000000E+00 -0.37236138646E+03  0.37236355223E+03  0.12700000000E+01 0. -1.
         25    2    1    2    0    0  0.00000000000E+00  0.00000000000E+00 -0.36191167434E+03  0.38289015583E+03  0.12499924563E+03 0.  0.
    9000005    1    3    3    0    0  0.15348869840E+02  0.41217144712E+02 -0.44973061531E+02  0.62912773640E+02  0.10000000000E+01 0.  0.
    9000005    1    3    3    0    0 -0.15348869840E+02 -0.41217144712E+02 -0.31693861281E+03  0.31997738219E+03  0.10000000000E+01 0.  0.
<mgrwt>
<rscale>  0 0.12499925E+03</rscale>
<asrwt>0</asrwt>
<pdfrwt beam="2">  1        4 0.57292438E-01 0.12499925E+03</pdfrwt>
<pdfrwt beam="1">  1       -4 0.16137296E-02 0.12499925E+03</pdfrwt>
<totfact> 0.66252709E+03</totfact>
</mgrwt>
</event>
<event>
 5    1  0.3199195E-002  0.1249988E+03  0.7818608E-02  0.1235071E+00
          4   -1    0    0  501    0  0.00000000000E+00  0.00000000000E+00  0.79982444744E+02  0.79992526946E+02  0.12700000000E+01 0. -1.
         -4   -1    0    0    0  501 -0.00000000000E+00 -0.00000000000E+00 -0.48816511093E+02  0.48833028324E+02  0.12700000000E+01 0. -1.
         25    2    1    2    0    0  0.00000000000E+00  0.00000000000E+00  0.31165933651E+02  0.12882555527E+03  0.12499883308E+03 0.  0.
    9000005    1    3    3    0    0  0.36682921489E+02  0.44870559565E+02 -0.85028437537E+01  0.58585853211E+02  0.10000000000E+01 0.  0.
    9000005    1    3    3    0    0 -0.36682921489E+02 -0.44870559565E+02  0.39668777404E+02  0.70239702059E+02  0.10000000000E+01 0.  0.
<mgrwt>
<rscale>  0 0.12499883E+03</rscale>
<asrwt>0</asrwt>
<pdfrwt beam="1">  1        4 0.12307038E-01 0.12499883E+03</pdfrwt>
<pdfrwt beam="2">  1       -4 0.75122786E-02 0.12499883E+03</pdfrwt>
<totfact> 0.10369970E+04</totfact>
</mgrwt>
</event>
<event>
 5    1  0.3199195E-002  0.1250269E+03  0.7818608E-02  0.1235027E+00
         -4   -1    0    0    0  501 -0.00000000000E+00  0.00000000000E+00  0.63632954586E+01  0.64887925759E+01  0.12700000000E+01 0. -1.
          4   -1    0    0  501    0  0.00000000000E+00 -0.00000000000E+00 -0.60801311274E+03  0.60801443911E+03  0.12700000000E+01 0. -1.
         25    2    1    2    0    0  0.00000000000E+00  0.00000000000E+00 -0.60164981728E+03  0.61450323168E+03  0.12502687357E+03 0.  0.
    9000005    1    3    3    0    0  0.55673238330E+02  0.19725261791E+02 -0.40135187301E+03  0.40567588219E+03  0.10000000000E+01 0.  0.
    9000005    1    3    3    0    0 -0.55673238330E+02 -0.19725261791E+02 -0.20029794427E+03  0.20882734949E+03  0.10000000000E+01 0.  0.
<mgrwt>
<rscale>  0 0.12502687E+03</rscale>
<asrwt>0</asrwt>
<pdfrwt beam="2">  1        4 0.93550189E-01 0.12502687E+03</pdfrwt>
<pdfrwt beam="1">  1       -4 0.98872467E-03 0.12502687E+03</pdfrwt>
<totfact> 0.47936512E+03</totfact>
</mgrwt>
</event>
<event>
 5    1  0.3199195E-002  0.1249868E+03  0.7818608E-02  0.1235090E+00
         -4   -1    0    0    0  501 -0.00000000000E+00  0.00000000000E+00  0.49282944655E+03  0.49283108292E+03  0.12700000000E+01 0.  1.
          4   -1    0    0  501    0  0.00000000000E+00 -0.00000000000E+00 -0.78719498645E+01  0.79737378104E+01  0.12700000000E+01 0.  1.
         25    2    1    2    0    0  0.00000000000E+00  0.00000000000E+00  0.48495749669E+03  0.50080482073E+03  0.12498677878E+03 0.  0.
    9000005    1    3    3    0    0  0.99611633043E+01  0.35587747609E+02  0.44436701146E+03  0.44590217921E+03  0.10000000000E+01 0.  0.
    9000005    1    3    3    0    0 -0.99611633043E+01 -0.35587747609E+02  0.40590485234E+02  0.54902641519E+02  0.10000000000E+01 0.  0.
<mgrwt>
<rscale>  0 0.12498678E+03</rscale>
<asrwt>0</asrwt>
<pdfrwt beam="2">  1        4 0.12190243E-02 0.12498678E+03</pdfrwt>
<pdfrwt beam="1">  1       -4 0.75827912E-01 0.12498678E+03</pdfrwt>
<totfact> 0.55818179E+03</totfact>
</mgrwt>
</event>
<event>
 5    1  0.3199195E-002  0.1249830E+03  0.7818608E-02  0.1235096E+00
          4   -1    0    0  501    0  0.00000000000E+00  0.00000000000E+00  0.33743222559E+03  0.33743461554E+03  0.12700000000E+01 0. -1.
         -4   -1    0    0    0  501 -0.00000000000E+00 -0.00000000000E+00 -0.11535965614E+02  0.11605662525E+02  0.12700000000E+01 0. -1.
         25    2    1    2    0    0  0.00000000000E+00  0.00000000000E+00  0.32589625997E+03  0.34904027806E+03  0.12498297263E+03 0.  0.
    9000005    1    3    3    0    0  0.41824418472E+02  0.18434087364E+02  0.28192802334E+03  0.28561076293E+03  0.10000000000E+01 0.  0.
    9000005    1    3    3    0    0 -0.41824418472E+02 -0.18434087364E+02  0.43968236633E+02  0.63429515134E+02  0.10000000000E+01 0.  0.
<mgrwt>
<rscale>  0 0.12498297E+03</rscale>
<asrwt>0</asrwt>
<pdfrwt beam="1">  1        4 0.51918199E-01 0.12498297E+03</pdfrwt>
<pdfrwt beam="2">  1       -4 0.17803090E-02 0.12498297E+03</pdfrwt>
<totfact> 0.69856583E+03</totfact>
</mgrwt>
</event>
<event>
 5    1  0.3199195E-002  0.1249990E+03  0.7818608E-02  0.1235071E+00
          4   -1    0    0  501    0  0.00000000000E+00  0.00000000000E+00  0.25720884195E+02  0.25752219007E+02  0.12700000000E+01 0. -1.
         -4   -1    0    0    0  501 -0.00000000000E+00 -0.00000000000E+00 -0.15174176559E+03  0.15174708011E+03  0.12700000000E+01 0. -1.
         25    2    1    2    0    0  0.00000000000E+00  0.00000000000E+00 -0.12602088139E+03  0.17749929912E+03  0.12499895456E+03 0.  0.
    9000005    1    3    3    0    0 -0.56002587855E+02 -0.17330543221E+02 -0.32273058149E+02  0.66926734995E+02  0.10000000000E+01 0.  0.
    9000005    1    3    3    0    0  0.56002587855E+02  0.17330543221E+02 -0.93747823242E+02  0.11057256413E+03  0.10000000000E+01 0.  0.
<mgrwt>
<rscale>  0 0.12499895E+03</rscale>
<asrwt>0</asrwt>
<pdfrwt beam="1">  1        4 0.39598784E-02 0.12499895E+03</pdfrwt>
<pdfrwt beam="2">  1       -4 0.23347706E-01 0.12499895E+03</pdfrwt>
<totfact> 0.94071290E+03</totfact>
</mgrwt>
</event>
<event>
 5    1  0.3199195E-002  0.1249982E+03  0.7818608E-02  0.1235072E+00
          4   -1    0    0  501    0  0.00000000000E+00  0.00000000000E+00  0.19115727217E+02  0.19157868541E+02  0.12700000000E+01 0. -1.
         -4   -1    0    0    0  501 -0.00000000000E+00 -0.00000000000E+00 -0.20407238599E+03  0.20407633773E+03  0.12700000000E+01 0. -1.
         25    2    1    2    0    0  0.00000000000E+00  0.00000000000E+00 -0.18495665877E+03  0.22323420627E+03  0.12499818089E+03 0.  0.
    9000005    1    3    3    0    0 -0.29636278565E+02  0.54594117786E+02 -0.10463158347E+03  0.12168646171E+03  0.10000000000E+01 0.  0.
    9000005    1    3    3    0    0  0.29636278565E+02 -0.54594117786E+02 -0.80325075301E+02  0.10154774456E+03  0.10000000000E+01 0.  0.
<mgrwt>
<rscale>  0 0.12499818E+03</rscale>
<asrwt>0</asrwt>
<pdfrwt beam="1">  1        4 0.29444269E-02 0.12499818E+03</pdfrwt>
<pdfrwt beam="2">  1       -4 0.31399296E-01 0.12499818E+03</pdfrwt>
<totfact> 0.86362661E+03</totfact>
</mgrwt>
</event>
<event>
 5    1  0.3199195E-002  0.1249999E+03  0.7818608E-02  0.1235069E+00
          4   -1    0    0  501    0  0.00000000000E+00  0.00000000000E+00  0.18780273431E+02  0.18823165784E+02  0.12700000000E+01 0. -1.
         -4   -1    0    0    0  501 -0.00000000000E+00 -0.00000000000E+00 -0.20771507940E+03  0.20771896184E+03  0.12700000000E+01 0. -1.
         25    2    1    2    0    0  0.00000000000E+00  0.00000000000E+00 -0.18893480597E+03  0.22654212763E+03  0.12499989874E+03 0.  0.
    9000005    1    3    3    0    0 -0.25222429418E+02 -0.52666008272E+02 -0.13480422373E+03  0.14691173578E+03  0.10000000000E+01 0.  0.
    9000005    1    3    3    0    0  0.25222429418E+02  0.52666008272E+02 -0.54130582237E+02  0.79630391852E+02  0.10000000000E+01 0.  0.
<mgrwt>
<rscale>  0 0.12499990E+03</rscale>
<asrwt>0</asrwt>
<pdfrwt beam="1">  1        4 0.28928711E-02 0.12499990E+03</pdfrwt>
<pdfrwt beam="2">  1       -4 0.31959762E-01 0.12499990E+03</pdfrwt>
<totfact> 0.85843595E+03</totfact>
</mgrwt>
</event>
<event>
 5    1  0.3199195E-002  0.1249974E+03  0.7818608E-02  0.1235073E+00
          4   -1    0    0  501    0  0.00000000000E+00  0.00000000000E+00  0.43594857664E+02  0.43613352482E+02  0.12700000000E+01 0. -1.
         -4   -1    0    0    0  501 -0.00000000000E+00 -0.00000000000E+00 -0.89557662349E+02  0.89566666709E+02  0.12700000000E+01 0. -1.
         25    2    1    2    0    0  0.00000000000E+00  0.00000000000E+00 -0.45962804685E+02  0.13318001919E+03  0.12499735236E+03 0.  0.
    9000005    1    3    3    0    0  0.11857235986E+02  0.50671713368E+02 -0.59841915469E+02  0.79311231411E+02  0.10000000000E+01 0.  0.
    9000005    1    3    3    0    0 -0.11857235986E+02 -0.50671713368E+02  0.13879110784E+02  0.53868787781E+02  0.10000000000E+01 0.  0.
<mgrwt>
<rscale>  0 0.12499735E+03</rscale>
<asrwt>0</asrwt>
<pdfrwt beam="1">  1        4 0.67090165E-02 0.12499735E+03</pdfrwt>
<pdfrwt beam="2">  1       -4 0.13780217E-01 0.12499735E+03</pdfrwt>
<totfact> 0.10277189E+04</totfact>
</mgrwt>
</event>
<event>
 5    1  0.3199195E-002  0.1249897E+03  0.7818608E-02  0.1235085E+00
          4   -1    0    0  501    0  0.00000000000E+00  0.00000000000E+00  0.20163360016E+02  0.20203316241E+02  0.12700000000E+01 0. -1.
         -4   -1    0    0    0  501 -0.00000000000E+00 -0.00000000000E+00 -0.19346449974E+03  0.19346866816E+03  0.12700000000E+01 0. -1.
         25    2    1    2    0    0  0.00000000000E+00  0.00000000000E+00 -0.17330113972E+03  0.21367198440E+03  0.12498972713E+03 0.  0.
    9000005    1    3    3    0    0  0.13532375475E+02 -0.22033164952E+02  0.10597059890E+02  0.27962174846E+02  0.10000000000E+01 0.  0.
    9000005    1    3    3    0    0 -0.13532375475E+02  0.22033164952E+02 -0.18389819961E+03  0.18570980955E+03  0.10000000000E+01 0.  0.
<mgrwt>
<rscale>  0 0.12498973E+03</rscale>
<asrwt>0</asrwt>
<pdfrwt beam="1">  1        4 0.31054497E-02 0.12498973E+03</pdfrwt>
<pdfrwt beam="2">  1       -4 0.29767162E-01 0.12498973E+03</pdfrwt>
<totfact> 0.87899867E+03</totfact>
</mgrwt>
</event>
<event>
 5    1  0.3199195E-002  0.1249912E+03  0.7818608E-02  0.1235083E+00
          4   -1    0    0  501    0  0.00000000000E+00  0.00000000000E+00  0.25708480546E+03  0.25708794234E+03  0.12700000000E+01 0.  1.
         -4   -1    0    0    0  501 -0.00000000000E+00 -0.00000000000E+00 -0.15162476438E+02  0.15215570700E+02  0.12700000000E+01 0.  1.
         25    2    1    2    0    0  0.00000000000E+00  0.00000000000E+00  0.24192232902E+03  0.27230351304E+03  0.12499115943E+03 0.  0.
    9000005    1    3    3    0    0 -0.24170676401E+02 -0.88551040177E+00 -0.45616960040E+01  0.24633611119E+02  0.10000000000E+01 0.  0.
    9000005    1    3    3    0    0  0.24170676401E+02  0.88551040177E+00  0.24648402502E+03  0.24766990192E+03  0.10000000000E+01 0.  0.
<mgrwt>
<rscale>  0 0.12499116E+03</rscale>
<asrwt>0</asrwt>
<pdfrwt beam="1">  1        4 0.39555835E-01 0.12499116E+03</pdfrwt>
<pdfrwt beam="2">  1       -4 0.23370141E-02 0.12499116E+03</pdfrwt>
<totfact> 0.79225371E+03</totfact>
</mgrwt>
</event>
<event>
 5    1  0.3199195E-002  0.1250002E+03  0.7818608E-02  0.1235069E+00
          4   -1    0    0  501    0  0.00000000000E+00  0.00000000000E+00  0.15534914476E+02  0.15586740126E+02  0.12700000000E+01 0.  1.
         -4   -1    0    0    0  501 -0.00000000000E+00 -0.00000000000E+00 -0.25097829317E+03  0.25098150638E+03  0.12700000000E+01 0.  1.
         25    2    1    2    0    0  0.00000000000E+00  0.00000000000E+00 -0.23544337870E+03  0.26656824651E+03  0.12500018189E+03 0.  0.
    9000005    1    3    3    0    0 -0.22886687016E+02 -0.55258280822E+02 -0.15634270167E+03  0.16739569411E+03  0.10000000000E+01 0.  0.
    9000005    1    3    3    0    0  0.22886687016E+02  0.55258280822E+02 -0.79100677028E+02  0.99172552393E+02  0.10000000000E+01 0.  0.
<mgrwt>
<rscale>  0 0.12500018E+03</rscale>
<asrwt>0</asrwt>
<pdfrwt beam="1">  1        4 0.23942208E-02 0.12500018E+03</pdfrwt>
<pdfrwt beam="2">  1       -4 0.38616276E-01 0.12500018E+03</pdfrwt>
<totfact> 0.79992724E+03</totfact>
</mgrwt>
</event>
<event>
 5    1  0.3199195E-002  0.1249979E+03  0.7818608E-02  0.1235073E+00
         -4   -1    0    0    0  501 -0.00000000000E+00  0.00000000000E+00  0.97131464103E+01  0.97958212105E+01  0.12700000000E+01 0.  1.
          4   -1    0    0  501    0  0.00000000000E+00 -0.00000000000E+00 -0.40035961971E+03  0.40036163402E+03  0.12700000000E+01 0.  1.
         25    2    1    2    0    0  0.00000000000E+00  0.00000000000E+00 -0.39064647330E+03  0.41015745523E+03  0.12499788390E+03 0.  0.
    9000005    1    3    3    0    0 -0.41637218169E+02  0.44756815746E+02 -0.23789028715E+03  0.24562088513E+03  0.10000000000E+01 0.  0.
    9000005    1    3    3    0    0  0.41637218169E+02 -0.44756815746E+02 -0.15275618615E+03  0.16453657010E+03  0.10000000000E+01 0.  0.
<mgrwt>
<rscale>  0 0.12499788E+03</rscale>
<asrwt>0</asrwt>
<pdfrwt beam="2">  1        4 0.61600289E-01 0.12499788E+03</pdfrwt>
<pdfrwt beam="1">  1       -4 0.15008451E-02 0.12499788E+03</pdfrwt>
<totfact> 0.63579707E+03</totfact>
</mgrwt>
</event>
<event>
 5    1  0.3199195E-002  0.1249893E+03  0.7818608E-02  0.1235086E+00
          4   -1    0    0  501    0  0.00000000000E+00  0.00000000000E+00  0.32612329235E+02  0.32637048245E+02  0.12700000000E+01 0. -1.
         -4   -1    0    0    0  501 -0.00000000000E+00 -0.00000000000E+00 -0.11968435444E+03  0.11969109239E+03  0.12700000000E+01 0. -1.
         25    2    1    2    0    0  0.00000000000E+00  0.00000000000E+00 -0.87072025208E+02  0.15232814064E+03  0.12498929897E+03 0.  0.
    9000005    1    3    3    0    0 -0.23301216452E+02  0.49909212116E+02 -0.75740946477E+01  0.55607940547E+02  0.10000000000E+01 0.  0.
    9000005    1    3    3    0    0  0.23301216452E+02 -0.49909212116E+02 -0.79497930560E+02  0.96720200090E+02  0.10000000000E+01 0.  0.
<mgrwt>
<rscale>  0 0.12498930E+03</rscale>
<asrwt>0</asrwt>
<pdfrwt beam="1">  1        4 0.50197013E-02 0.12498930E+03</pdfrwt>
<pdfrwt beam="2">  1       -4 0.18415397E-01 0.12498930E+03</pdfrwt>
<totfact> 0.98865429E+03</totfact>
</mgrwt>
</event>
<event>
 5    1  0.3199195E-002  0.1250008E+03  0.7818608E-02  0.1235068E+00
         -4   -1    0    0    0  501 -0.00000000000E+00  0.00000000000E+00  0.66190135609E+03  0.66190257448E+03  0.12700000000E+01 0.  1.
          4   -1    0    0  501    0  0.00000000000E+00 -0.00000000000E+00 -0.58320730259E+01  0.59687499344E+01  0.12700000000E+01 0.  1.
         25    2    1    2    0    0  0.00000000000E+00  0.00000000000E+00  0.65606928307E+03  0.66787132441E+03  0.12500080714E+03 0.  0.
    9000005    1    3    3    0    0 -0.18100718076E+02  0.44910189390E+02  0.11695557324E+03  0.12658659968E+03  0.10000000000E+01 0.  0.
    9000005    1    3    3    0    0  0.18100718076E+02 -0.44910189390E+02  0.53911370983E+03  0.54128472473E+03  0.10000000000E+01 0.  0.
<mgrwt>
<rscale>  0 0.12500081E+03</rscale>
<asrwt>0</asrwt>
<pdfrwt beam="2">  1        4 0.90784992E-03 0.12500081E+03</pdfrwt>
<pdfrwt beam="1">  1       -4 0.10184152E+00 0.12500081E+03</pdfrwt>
<totfact> 0.44837048E+03</totfact>
</mgrwt>
</event>
<event>
 5    1  0.3199195E-002  0.1250014E+03  0.7818608E-02  0.1235067E+00
         -4   -1    0    0    0  501 -0.00000000000E+00  0.00000000000E+00  0.44338589230E+02  0.44356773946E+02  0.12700000000E+01 0. -1.
          4   -1    0    0  501    0  0.00000000000E+00 -0.00000000000E+00 -0.88061638240E+02  0.88070795554E+02  0.12700000000E+01 0. -1.
         25    2    1    2    0    0  0.00000000000E+00  0.00000000000E+00 -0.43723049010E+02  0.13242756950E+03  0.12500142459E+03 0.  0.
    9000005    1    3    3    0    0 -0.51240832312E+02 -0.31107471048E+02 -0.40575650328E+02  0.72392548308E+02  0.10000000000E+01 0.  0.
    9000005    1    3    3    0    0  0.51240832312E+02  0.31107471048E+02 -0.31473986821E+01  0.60035021191E+02  0.10000000000E+01 0.  0.
<mgrwt>
<rscale>  0 0.12500142E+03</rscale>
<asrwt>0</asrwt>
<pdfrwt beam="2">  1        4 0.13550048E-01 0.12500142E+03</pdfrwt>
<pdfrwt beam="1">  1       -4 0.68234246E-02 0.12500142E+03</pdfrwt>
<totfact> 0.10292250E+04</totfact>
</mgrwt>
</event>
<event>
 5    1  0.3199195E-002  0.1250035E+03  0.7818608E-02  0.1235064E+00
         -4   -1    0    0    0  501 -0.00000000000E+00  0.00000000000E+00  0.64281805712E+01  0.65524350784E+01  0.12700000000E+01 0.  1.
          4   -1    0    0  501    0  0.00000000000E+00 -0.00000000000E+00 -0.60176810304E+03  0.60176944317E+03  0.12700000000E+01 0.  1.
         25    2    1    2    0    0  0.00000000000E+00  0.00000000000E+00 -0.59533992247E+03  0.60832187825E+03  0.12500353705E+03 0.  0.
    9000005    1    3    3    0    0 -0.12764147580E+02 -0.41050693250E+01 -0.63002518060E+00  0.13460014462E+02  0.10000000000E+01 0.  0.
    9000005    1    3    3    0    0  0.12764147580E+02  0.41050693250E+01 -0.59470989729E+03  0.59486186379E+03  0.10000000000E+01 0.  0.
<mgrwt>
<rscale>  0 0.12500354E+03</rscale>
<asrwt>0</asrwt>
<pdfrwt beam="2">  1        4 0.92589326E-01 0.12500354E+03</pdfrwt>
<pdfrwt beam="1">  1       -4 0.99861245E-03 0.12500354E+03</pdfrwt>
<totfact> 0.48342756E+03</totfact>
</mgrwt>
</event>
<event>
 5    1  0.3199195E-002  0.1249997E+03  0.7818608E-02  0.1235070E+00
          4   -1    0    0  501    0  0.00000000000E+00  0.00000000000E+00  0.46784954914E+01  0.48478056957E+01  0.12700000000E+01 0. -1.
         -4   -1    0    0    0  501 -0.00000000000E+00 -0.00000000000E+00 -0.81992396252E+03  0.81992494609E+03  0.12700000000E+01 0. -1.
         25    2    1    2    0    0  0.00000000000E+00  0.00000000000E+00 -0.81524546703E+03  0.82477275178E+03  0.12499968228E+03 0.  0.
    9000005    1    3    3    0    0  0.11241347256E+01  0.50211151466E+02 -0.65298407538E+03  0.65491344933E+03  0.10000000000E+01 0.  0.
    9000005    1    3    3    0    0 -0.11241347256E+01 -0.50211151466E+02 -0.16226139164E+03  0.16985930245E+03  0.10000000000E+01 0.  0.
<mgrwt>
<rscale>  0 0.12499968E+03</rscale>
<asrwt>0</asrwt>
<pdfrwt beam="1">  1        4 0.73286871E-03 0.12499968E+03</pdfrwt>
<pdfrwt beam="2">  1       -4 0.12615514E+00 0.12499968E+03</pdfrwt>
<totfact> 0.37182729E+03</totfact>
</mgrwt>
</event>
<event>
 5    1  0.3199195E-002  0.1250041E+03  0.7818608E-02  0.1235063E+00
          4   -1    0    0  501    0  0.00000000000E+00  0.00000000000E+00  0.43297955714E+02  0.43316577300E+02  0.12700000000E+01 0. -1.
         -4   -1    0    0    0  501 -0.00000000000E+00 -0.00000000000E+00 -0.90181275100E+02  0.90190217200E+02  0.12700000000E+01 0. -1.
         25    2    1    2    0    0  0.00000000000E+00  0.00000000000E+00 -0.46883319386E+02  0.13350679450E+03  0.12500407410E+03 0.  0.
    9000005    1    3    3    0    0  0.44595652496E+02  0.36335810859E+02 -0.49524990026E+02  0.75913029247E+02  0.10000000000E+01 0.  0.
    9000005    1    3    3    0    0 -0.44595652496E+02 -0.36335810859E+02  0.26416706403E+01  0.57593765254E+02  0.10000000000E+01 0.  0.
<mgrwt>
<rscale>  0 0.12500407E+03</rscale>
<asrwt>0</asrwt>
<pdfrwt beam="1">  1        4 0.66633443E-02 0.12500407E+03</pdfrwt>
<pdfrwt beam="2">  1       -4 0.13876163E-01 0.12500407E+03</pdfrwt>
<totfact> 0.10268697E+04</totfact>
</mgrwt>
</event>
<event>
 5    1  0.3199195E-002  0.1250024E+03  0.7818608E-02  0.1235066E+00
          4   -1    0    0  501    0  0.00000000000E+00  0.00000000000E+00  0.21497551953E+03  0.21497927085E+03  0.12700000000E+01 0.  1.
         -4   -1    0    0    0  501 -0.00000000000E+00 -0.00000000000E+00 -0.18145261739E+02  0.18189651552E+02  0.12700000000E+01 0.  1.
         25    2    1    2    0    0  0.00000000000E+00  0.00000000000E+00  0.19683025779E+03  0.23316892240E+03  0.12500238395E+03 0.  0.
    9000005    1    3    3    0    0  0.29505518910E+02  0.26518203710E+02  0.18848512817E+03  0.19261732610E+03  0.10000000000E+01 0.  0.
    9000005    1    3    3    0    0 -0.29505518910E+02 -0.26518203710E+02  0.83451296202E+01  0.40551596301E+02  0.10000000000E+01 0.  0.
<mgrwt>
<rscale>  0 0.12500238E+03</rscale>
<asrwt>0</asrwt>
<pdfrwt beam="1">  1        4 0.33076859E-01 0.12500238E+03</pdfrwt>
<pdfrwt beam="2">  1       -4 0.27952820E-02 0.12500238E+03</pdfrwt>
<totfact> 0.84820859E+03</totfact>
</mgrwt>
</event>
<event>
 5    1  0.3199195E-002  0.1249996E+03  0.7818608E-02  0.1235070E+00
         -4   -1    0    0    0  501 -0.00000000000E+00  0.00000000000E+00  0.76847513492E+02  0.76858006934E+02  0.12700000000E+01 0. -1.
          4   -1    0    0  501    0  0.00000000000E+00 -0.00000000000E+00 -0.50808968725E+02  0.50824838445E+02  0.12700000000E+01 0. -1.
         25    2    1    2    0    0  0.00000000000E+00  0.00000000000E+00  0.26038544767E+02  0.12768284538E+03  0.12499961276E+03 0.  0.
    9000005    1    3    3    0    0  0.14742763507E+02 -0.18526584928E+02  0.72093592000E+02  0.75888532944E+02  0.10000000000E+01 0.  0.
    9000005    1    3    3    0    0 -0.14742763507E+02  0.18526584928E+02 -0.46055047234E+02  0.51794312435E+02  0.10000000000E+01 0.  0.
<mgrwt>
<rscale>  0 0.12499961E+03</rscale>
<asrwt>0</asrwt>
<pdfrwt beam="2">  1        4 0.78187925E-02 0.12499961E+03</pdfrwt>
<pdfrwt beam="1">  1       -4 0.11824722E-01 0.12499961E+03</pdfrwt>
<totfact> 0.10394434E+04</totfact>
</mgrwt>
</event>
<event>
 5    1  0.3199195E-002  0.1249981E+03  0.7818608E-02  0.1235072E+00
          4   -1    0    0  501    0  0.00000000000E+00  0.00000000000E+00  0.44831029665E+03  0.44831209551E+03  0.12700000000E+01 0. -1.
         -4   -1    0    0    0  501 -0.00000000000E+00 -0.00000000000E+00 -0.86649060969E+01  0.87574823818E+01  0.12700000000E+01 0. -1.
         25    2    1    2    0    0  0.00000000000E+00  0.00000000000E+00  0.43964539055E+03  0.45706957789E+03  0.12499811839E+03 0.  0.
    9000005    1    3    3    0    0 -0.45240322875E+02 -0.41822069764E+02  0.18158354576E+03  0.19175337396E+03  0.10000000000E+01 0.  0.
    9000005    1    3    3    0    0  0.45240322875E+02  0.41822069764E+02  0.25806184480E+03  0.26531620394E+03  0.10000000000E+01 0.  0.
<mgrwt>
<rscale>  0 0.12499812E+03</rscale>
<asrwt>0</asrwt>
<pdfrwt beam="1">  1        4 0.68978081E-01 0.12499812E+03</pdfrwt>
<pdfrwt beam="2">  1       -4 0.13403220E-02 0.12499812E+03</pdfrwt>
<totfact> 0.59358668E+03</totfact>
</mgrwt>
</event>
<event>
 5    1  0.3199195E-002  0.1250007E+03  0.7818608E-02  0.1235068E+00
         -4   -1    0    0    0  501 -0.00000000000E+00  0.00000000000E+00  0.15295746367E+03  0.15296273596E+03  0.12700000000E+01 0. -1.
          4   -1    0    0  501    0  0.00000000000E+00 -0.00000000000E+00 -0.25516940064E+02  0.25548525011E+02  0.12700000000E+01 0. -1.
         25    2    1    2    0    0  0.00000000000E+00  0.00000000000E+00  0.12744052360E+03  0.17851126097E+03  0.12500073294E+03 0.  0.
    9000005    1    3    3    0    0 -0.36053102447E+02  0.41277749174E+02  0.20839339987E+02  0.58642619860E+02  0.10000000000E+01 0.  0.
    9000005    1    3    3    0    0  0.36053102447E+02 -0.41277749174E+02  0.10660118362E+03  0.11986864111E+03  0.10000000000E+01 0.  0.
<mgrwt>
<rscale>  0 0.12500073E+03</rscale>
<asrwt>0</asrwt>
<pdfrwt beam="2">  1        4 0.39285182E-02 0.12500073E+03</pdfrwt>
<pdfrwt beam="1">  1       -4 0.23534753E-01 0.12500073E+03</pdfrwt>
<totfact> 0.93884126E+03</totfact>
</mgrwt>
</event>
<event>
 5    1  0.3199195E-002  0.1250004E+03  0.7818608E-02  0.1235069E+00
         -4   -1    0    0    0  501 -0.00000000000E+00  0.00000000000E+00  0.77913217664E+01  0.78941494075E+01  0.12700000000E+01 0.  1.
          4   -1    0    0  501    0  0.00000000000E+00 -0.00000000000E+00 -0.49797156945E+03  0.49797318892E+03  0.12700000000E+01 0.  1.
         25    2    1    2    0    0  0.00000000000E+00  0.00000000000E+00 -0.49018024769E+03  0.50586733833E+03  0.12500035506E+03 0.  0.
    9000005    1    3    3    0    0  0.37045458827E+02  0.49802614291E+02 -0.21573782430E+03  0.22449159281E+03  0.10000000000E+01 0.  0.
    9000005    1    3    3    0    0 -0.37045458827E+02 -0.49802614291E+02 -0.27444242339E+03  0.28137574552E+03  0.10000000000E+01 0.  0.
<mgrwt>
<rscale>  0 0.12500036E+03</rscale>
<asrwt>0</asrwt>
<pdfrwt beam="2">  1        4 0.76619020E-01 0.12500036E+03</pdfrwt>
<pdfrwt beam="1">  1       -4 0.12066997E-02 0.12500036E+03</pdfrwt>
<totfact> 0.55411568E+03</totfact>
</mgrwt>
</event>
<event>
 5    1  0.3199195E-002  0.1250030E+03  0.7818608E-02  0.1235065E+00
         -4   -1    0    0    0  501 -0.00000000000E+00  0.00000000000E+00  0.11284821452E+02  0.11356059845E+02  0.12700000000E+01 0.  1.
          4   -1    0    0  501    0  0.00000000000E+00 -0.00000000000E+00 -0.34500607300E+03  0.34500841049E+03  0.12700000000E+01 0.  1.
         25    2    1    2    0    0  0.00000000000E+00  0.00000000000E+00 -0.33372125155E+03  0.35636447033E+03  0.12500304788E+03 0.  0.
    9000005    1    3    3    0    0 -0.22118082792E+01  0.25392917610E+02 -0.32952752796E+03  0.33051336439E+03  0.10000000000E+01 0.  0.
    9000005    1    3    3    0    0  0.22118082792E+01 -0.25392917610E+02 -0.41937235888E+01  0.25851105937E+02  0.10000000000E+01 0.  0.
<mgrwt>
<rscale>  0 0.12500305E+03</rscale>
<asrwt>0</asrwt>
<pdfrwt beam="2">  1        4 0.53083509E-01 0.12500305E+03</pdfrwt>
<pdfrwt beam="1">  1       -4 0.17417863E-02 0.12500305E+03</pdfrwt>
<totfact> 0.69025364E+03</totfact>
</mgrwt>
</event>
<event>
 5    1  0.3199195E-002  0.1250035E+03  0.7818608E-02  0.1235064E+00
         -4   -1    0    0    0  501 -0.00000000000E+00  0.00000000000E+00  0.41271551920E+03  0.41271747321E+03  0.12700000000E+01 0. -1.
          4   -1    0    0  501    0  0.00000000000E+00 -0.00000000000E+00 -0.94206966103E+01  0.95059152438E+01  0.12700000000E+01 0. -1.
         25    2    1    2    0    0  0.00000000000E+00  0.00000000000E+00  0.40329482259E+03  0.42222338845E+03  0.12500350325E+03 0.  0.
    9000005    1    3    3    0    0  0.59747294019E+02 -0.66882568382E+01  0.25926623446E+03  0.26614742578E+03  0.10000000000E+01 0.  0.
    9000005    1    3    3    0    0 -0.59747294019E+02  0.66882568382E+01  0.14402858813E+03  0.15607596267E+03  0.10000000000E+01 0.  0.
<mgrwt>
<rscale>  0 0.12500350E+03</rscale>
<asrwt>0</asrwt>
<pdfrwt beam="2">  1        4 0.14560437E-02 0.12500350E+03</pdfrwt>
<pdfrwt beam="1">  1       -4 0.63501392E-01 0.12500350E+03</pdfrwt>
<totfact> 0.62442453E+03</totfact>
</mgrwt>
</event>
<event>
 5    1  0.3199195E-002  0.1250042E+03  0.7818608E-02  0.1235063E+00
         -4   -1    0    0    0  501 -0.00000000000E+00  0.00000000000E+00  0.52835939236E+03  0.52836091869E+03  0.12700000000E+01 0. -1.
          4   -1    0    0  501    0  0.00000000000E+00 -0.00000000000E+00 -0.73375843032E+01  0.74466800258E+01  0.12700000000E+01 0. -1.
         25    2    1    2    0    0  0.00000000000E+00  0.00000000000E+00  0.52102180806E+03  0.53580759871E+03  0.12500423340E+03 0.  0.
    9000005    1    3    3    0    0 -0.61928421085E+02  0.20007222458E+01  0.29543382045E+03  0.30186300617E+03  0.10000000000E+01 0.  0.
    9000005    1    3    3    0    0  0.61928421085E+02 -0.20007222458E+01  0.22558798760E+03  0.23394459254E+03  0.10000000000E+01 0.  0.
<mgrwt>
<rscale>  0 0.12500423E+03</rscale>
<asrwt>0</asrwt>
<pdfrwt beam="2">  1        4 0.11373683E-02 0.12500423E+03</pdfrwt>
<pdfrwt beam="1">  1       -4 0.81294584E-01 0.12500423E+03</pdfrwt>
<totfact> 0.53184418E+03</totfact>
</mgrwt>
</event>
<event>
 5    1  0.3199195E-002  0.1249989E+03  0.7818608E-02  0.1235071E+00
         -4   -1    0    0    0  501 -0.00000000000E+00  0.00000000000E+00  0.37611112183E+03  0.37611326600E+03  0.12700000000E+01 0. -1.
          4   -1    0    0  501    0  0.00000000000E+00 -0.00000000000E+00 -0.10344707281E+02  0.10422373469E+02  0.12700000000E+01 0. -1.
         25    2    1    2    0    0  0.00000000000E+00  0.00000000000E+00  0.36576641455E+03  0.38653563947E+03  0.12499892228E+03 0.  0.
    9000005    1    3    3    0    0 -0.92927594097E+01  0.28147101323E+02  0.35300442746E+03  0.35424813407E+03  0.10000000000E+01 0.  0.
    9000005    1    3    3    0    0  0.92927594097E+01 -0.28147101323E+02  0.12761987090E+02  0.32287505398E+02  0.10000000000E+01 0.  0.
<mgrwt>
<rscale>  0 0.12499892E+03</rscale>
<asrwt>0</asrwt>
<pdfrwt beam="2">  1        4 0.15976328E-02 0.12499892E+03</pdfrwt>
<pdfrwt beam="1">  1       -4 0.57869384E-01 0.12499892E+03</pdfrwt>
<totfact> 0.65885297E+03</totfact>
</mgrwt>
</event>
<event>
 5    1  0.3199195E-002  0.1250010E+03  0.7818608E-02  0.1235068E+00
         -4   -1    0    0    0  501 -0.00000000000E+00  0.00000000000E+00  0.66839484396E+03  0.66839605051E+03  0.12700000000E+01 0.  1.
          4   -1    0    0  501    0  0.00000000000E+00 -0.00000000000E+00 -0.57740943569E+01  0.59121117752E+01  0.12700000000E+01 0.  1.
         25    2    1    2    0    0  0.00000000000E+00  0.00000000000E+00  0.66262074960E+03  0.67430816228E+03  0.12500095966E+03 0.  0.
    9000005    1    3    3    0    0 -0.14880514348E+02 -0.53899973992E+02  0.18078051800E+03  0.18923327559E+03  0.10000000000E+01 0.  0.
    9000005    1    3    3    0    0  0.14880514348E+02  0.53899973992E+02  0.48184023160E+03  0.48507488669E+03  0.10000000000E+01 0.  0.
<mgrwt>
<rscale>  0 0.12500096E+03</rscale>
<asrwt>0</asrwt>
<pdfrwt beam="2">  1        4 0.89903157E-03 0.12500096E+03</pdfrwt>
<pdfrwt beam="1">  1       -4 0.10284071E+00 0.12500096E+03</pdfrwt>
<totfact> 0.44477131E+03</totfact>
</mgrwt>
</event>
<event>
 5    1  0.3199195E-002  0.1249868E+03  0.7818608E-02  0.1235090E+00
          4   -1    0    0  501    0  0.00000000000E+00  0.00000000000E+00  0.49485066068E+02  0.49501360222E+02  0.12700000000E+01 0.  1.
         -4   -1    0    0    0  501 -0.00000000000E+00 -0.00000000000E+00 -0.78886879379E+02  0.78897101583E+02  0.12700000000E+01 0.  1.
         25    2    1    2    0    0  0.00000000000E+00  0.00000000000E+00 -0.29401813311E+02  0.12839846180E+03  0.12498679277E+03 0.  0.
    9000005    1    3    3    0    0  0.56730227432E+02  0.20013327159E+02  0.26592637018E+01  0.60223945835E+02  0.10000000000E+01 0.  0.
    9000005    1    3    3    0    0 -0.56730227432E+02 -0.20013327159E+02 -0.32061077013E+02  0.68174515970E+02  0.10000000000E+01 0.  0.
<mgrwt>
<rscale>  0 0.12498679E+03</rscale>
<asrwt>0</asrwt>
<pdfrwt beam="1">  1        4 0.76151268E-02 0.12498679E+03</pdfrwt>
<pdfrwt beam="2">  1       -4 0.12138483E-01 0.12498679E+03</pdfrwt>
<totfact> 0.10381986E+04</totfact>
</mgrwt>
</event>
<event>
 5    1  0.3199195E-002  0.1249983E+03  0.7818608E-02  0.1235072E+00
          4   -1    0    0  501    0  0.00000000000E+00  0.00000000000E+00  0.18437356052E+02  0.18481044294E+02  0.12700000000E+01 0.  1.
         -4   -1    0    0    0  501 -0.00000000000E+00 -0.00000000000E+00 -0.21156399335E+03  0.21156780516E+03  0.12700000000E+01 0.  1.
         25    2    1    2    0    0  0.00000000000E+00  0.00000000000E+00 -0.19312663729E+03  0.23004884945E+03  0.12499830040E+03 0.  0.
    9000005    1    3    3    0    0 -0.61072514043E+02  0.25940214811E+01 -0.72668876316E+02  0.94964975144E+02  0.10000000000E+01 0.  0.
    9000005    1    3    3    0    0  0.61072514043E+02 -0.25940214811E+01 -0.12045776098E+03  0.13508387431E+03  0.10000000000E+01 0.  0.
<mgrwt>
<rscale>  0 0.12499830E+03</rscale>
<asrwt>0</asrwt>
<pdfrwt beam="1">  1        4 0.28401703E-02 0.12499830E+03</pdfrwt>
<pdfrwt beam="2">  1       -4 0.32551959E-01 0.12499830E+03</pdfrwt>
<totfact> 0.85305332E+03</totfact>
</mgrwt>
</event>
<event>
 5    1  0.3199195E-002  0.1249993E+03  0.7818608E-02  0.1235070E+00
          4   -1    0    0  501    0  0.00000000000E+00  0.00000000000E+00  0.10478344742E+03  0.10479114349E+03  0.12700000000E+01 0.  1.
         -4   -1    0    0    0  501 -0.00000000000E+00 -0.00000000000E+00 -0.37258982234E+02  0.37280620396E+02  0.12700000000E+01 0.  1.
         25    2    1    2    0    0  0.00000000000E+00  0.00000000000E+00  0.67524465186E+02  0.14207176388E+03  0.12499933077E+03 0.  0.
    9000005    1    3    3    0    0  0.12346386090E+02 -0.59689804246E+02  0.18099588670E+02  0.63591674695E+02  0.10000000000E+01 0.  0.
    9000005    1    3    3    0    0 -0.12346386090E+02  0.59689804246E+02  0.49424876515E+02  0.78480089188E+02  0.10000000000E+01 0.  0.
<mgrwt>
<rscale>  0 0.12499933E+03</rscale>
<asrwt>0</asrwt>
<pdfrwt beam="1">  1        4 0.16122786E-01 0.12499933E+03</pdfrwt>
<pdfrwt beam="2">  1       -4 0.57344077E-02 0.12499933E+03</pdfrwt>
<totfact> 0.10090979E+04</totfact>
</mgrwt>
</event>
<event>
 5    1  0.3199195E-002  0.1250007E+03  0.7818608E-02  0.1235068E+00
         -4   -1    0    0    0  501 -0.00000000000E+00  0.00000000000E+00  0.25571062875E+03  0.25571378249E+03  0.12700000000E+01 0. -1.
          4   -1    0    0  501    0  0.00000000000E+00 -0.00000000000E+00 -0.15246590339E+02  0.15299392699E+02  0.12700000000E+01 0. -1.
         25    2    1    2    0    0  0.00000000000E+00  0.00000000000E+00  0.24046403841E+03  0.27101317519E+03  0.12500074943E+03 0.  0.
    9000005    1    3    3    0    0  0.60670513956E+01  0.61571318661E+02  0.10115028766E+03  0.11857578626E+03  0.10000000000E+01 0.  0.
    9000005    1    3    3    0    0 -0.60670513956E+01 -0.61571318661E+02  0.13931375075E+03  0.15243738893E+03  0.10000000000E+01 0.  0.
<mgrwt>
<rscale>  0 0.12500075E+03</rscale>
<asrwt>0</asrwt>
<pdfrwt beam="2">  1        4 0.23499337E-02 0.12500075E+03</pdfrwt>
<pdfrwt beam="1">  1       -4 0.39344399E-01 0.12500075E+03</pdfrwt>
<totfact> 0.79383614E+03</totfact>
</mgrwt>
</event>
<event>
 5    1  0.3199195E-002  0.1250008E+03  0.7818608E-02  0.1235068E+00
         -4   -1    0    0    0  501 -0.00000000000E+00  0.00000000000E+00  0.38127868545E+01  0.40187365674E+01  0.12700000000E+01 0.  1.
          4   -1    0    0  501    0  0.00000000000E+00 -0.00000000000E+00 -0.99737694683E+03  0.99737775540E+03  0.12700000000E+01 0.  1.
         25    2    1    2    0    0  0.00000000000E+00  0.00000000000E+00 -0.99356415997E+03  0.10013964920E+04  0.12500077655E+03 0.  0.
    9000005    1    3    3    0    0 -0.59783769822E+02 -0.14139906037E+01 -0.35142931809E+03  0.35648234755E+03  0.10000000000E+01 0.  0.
    9000005    1    3    3    0    0  0.59783769822E+02  0.14139906037E+01 -0.64213484188E+03  0.64491414441E+03  0.10000000000E+01 0.  0.
<mgrwt>
<rscale>  0 0.12500078E+03</rscale>
<asrwt>0</asrwt>
<pdfrwt beam="2">  1        4 0.15345831E+00 0.12500078E+03</pdfrwt>
<pdfrwt beam="1">  1       -4 0.60248787E-03 0.12500078E+03</pdfrwt>
<totfact> 0.30557942E+03</totfact>
</mgrwt>
</event>
<event>
 5    1  0.3199195E-002  0.1249992E+03  0.7818608E-02  0.1235071E+00
         -4   -1    0    0    0  501 -0.00000000000E+00  0.00000000000E+00  0.76337429175E+02  0.76347992724E+02  0.12700000000E+01 0. -1.
          4   -1    0    0  501    0  0.00000000000E+00 -0.00000000000E+00 -0.51148166753E+02  0.51163931262E+02  0.12700000000E+01 0. -1.
         25    2    1    2    0    0  0.00000000000E+00  0.00000000000E+00  0.25189262422E+02  0.12751192399E+03  0.12499916727E+03 0.  0.
    9000005    1    3    3    0    0  0.47365311286E+02 -0.18010290808E+02  0.49899625480E+02  0.71125353505E+02  0.10000000000E+01 0.  0.
    9000005    1    3    3    0    0 -0.47365311286E+02  0.18010290808E+02 -0.24710363058E+02  0.56386570481E+02  0.10000000000E+01 0.  0.
<mgrwt>
<rscale>  0 0.12499917E+03</rscale>
<asrwt>0</asrwt>
<pdfrwt beam="2">  1        4 0.78709740E-02 0.12499917E+03</pdfrwt>
<pdfrwt beam="1">  1       -4 0.11746245E-01 0.12499917E+03</pdfrwt>
<totfact> 0.10398238E+04</totfact>
</mgrwt>
</event>
<event>
 5    1  0.3199195E-002  0.1249954E+03  0.7818608E-02  0.1235077E+00
          4   -1    0    0  501    0  0.00000000000E+00  0.00000000000E+00  0.15238973235E+02  0.15291801897E+02  0.12700000000E+01 0. -1.
         -4   -1    0    0    0  501 -0.00000000000E+00 -0.00000000000E+00 -0.25581595347E+03  0.25581910591E+03  0.12700000000E+01 0. -1.
         25    2    1    2    0    0  0.00000000000E+00  0.00000000000E+00 -0.24057698023E+03  0.27111090781E+03  0.12499536357E+03 0.  0.
    9000005    1    3    3    0    0  0.40393951634E+02 -0.16382231721E+02 -0.23170278163E+02  0.49375202631E+02  0.10000000000E+01 0.  0.
    9000005    1    3    3    0    0 -0.40393951634E+02  0.16382231721E+02 -0.21740670207E+03  0.22173570518E+03  0.10000000000E+01 0.  0.
<mgrwt>
<rscale>  0 0.12499536E+03</rscale>
<asrwt>0</asrwt>
<pdfrwt beam="1">  1        4 0.23487638E-02 0.12499536E+03</pdfrwt>
<pdfrwt beam="2">  1       -4 0.39360604E-01 0.12499536E+03</pdfrwt>
<totfact> 0.79379840E+03</totfact>
</mgrwt>
</event>
<event>
 5    1  0.3199195E-002  0.1249941E+03  0.7818608E-02  0.1235079E+00
          4   -1    0    0  501    0  0.00000000000E+00  0.00000000000E+00  0.13108988553E+02  0.13170363734E+02  0.12700000000E+01 0. -1.
         -4   -1    0    0    0  501 -0.00000000000E+00 -0.00000000000E+00 -0.29719562002E+03  0.29719833354E+03  0.12700000000E+01 0. -1.
         25    2    1    2    0    0  0.00000000000E+00  0.00000000000E+00 -0.28408663147E+03  0.31036869728E+03  0.12499405614E+03 0.  0.
    9000005    1    3    3    0    0 -0.38463850634E+02  0.31367195836E+02 -0.47768141858E+02  0.68892410008E+02  0.10000000000E+01 0.  0.
    9000005    1    3    3    0    0  0.38463850634E+02 -0.31367195836E+02 -0.23631848961E+03  0.24147628727E+03  0.10000000000E+01 0.  0.
<mgrwt>
<rscale>  0 0.12499406E+03</rscale>
<asrwt>0</asrwt>
<pdfrwt beam="1">  1        4 0.20216976E-02 0.12499406E+03</pdfrwt>
<pdfrwt beam="2">  1       -4 0.45727328E-01 0.12499406E+03</pdfrwt>
<totfact> 0.74326150E+03</totfact>
</mgrwt>
</event>
<event>
 5    1  0.3199195E-002  0.1250126E+03  0.7818608E-02  0.1235050E+00
          4   -1    0    0  501    0  0.00000000000E+00  0.00000000000E+00  0.14174765954E+04  0.14174771644E+04  0.12700000000E+01 0.  1.
         -4   -1    0    0    0  501 -0.00000000000E+00 -0.00000000000E+00 -0.26094444384E+01  0.29020855048E+01  0.12700000000E+01 0.  1.
         25    2    1    2    0    0  0.00000000000E+00  0.00000000000E+00  0.14148671510E+04  0.14203792499E+04  0.12501263337E+03 0.  0.
    9000005    1    3    3    0    0 -0.52033703684E+01  0.37768275625E+02  0.12701075968E+04  0.12706800641E+04  0.10000000000E+01 0.  0.
    9000005    1    3    3    0    0  0.52033703684E+01 -0.37768275625E+02  0.14475955418E+03  0.14969918581E+03  0.10000000000E+01 0.  0.
<mgrwt>
<rscale>  0 0.12501263E+03</rscale>
<asrwt>0</asrwt>
<pdfrwt beam="1">  1        4 0.21809600E+00 0.12501263E+03</pdfrwt>
<pdfrwt beam="2">  1       -4 0.42400737E-03 0.12501263E+03</pdfrwt>
<totfact> 0.19542368E+03</totfact>
</mgrwt>
</event>
<event>
 5    1  0.3199195E-002  0.1249944E+03  0.7818608E-02  0.1235078E+00
          4   -1    0    0  501    0  0.00000000000E+00  0.00000000000E+00  0.53072772904E+02  0.53087965903E+02  0.12700000000E+01 0. -1.
         -4   -1    0    0    0  501 -0.00000000000E+00 -0.00000000000E+00 -0.73563963318E+02  0.73574925070E+02  0.12700000000E+01 0. -1.
         25    2    1    2    0    0  0.00000000000E+00  0.00000000000E+00 -0.20491190414E+02  0.12666289097E+03  0.12499439613E+03 0.  0.
    9000005    1    3    3    0    0  0.58627212366E+02 -0.20691328450E+02 -0.16623951332E+02  0.64363319218E+02  0.10000000000E+01 0.  0.
    9000005    1    3    3    0    0 -0.58627212366E+02  0.20691328450E+02 -0.38672390818E+01  0.62299571755E+02  0.10000000000E+01 0.  0.
<mgrwt>
<rscale>  0 0.12499440E+03</rscale>
<asrwt>0</asrwt>
<pdfrwt beam="1">  1        4 0.81670538E-02 0.12499440E+03</pdfrwt>
<pdfrwt beam="2">  1       -4 0.11319545E-01 0.12499440E+03</pdfrwt>
<totfact> 0.10417796E+04</totfact>
</mgrwt>
</event>
<event>
 5    1  0.3199195E-002  0.1250022E+03  0.7818608E-02  0.1235066E+00
          4   -1    0    0  501    0  0.00000000000E+00  0.00000000000E+00  0.28695864245E+02  0.28723953850E+02  0.12700000000E+01 0. -1.
         -4   -1    0    0    0  501 -0.00000000000E+00 -0.00000000000E+00 -0.13603305655E+03  0.13603898476E+03  0.12700000000E+01 0. -1.
         25    2    1    2    0    0  0.00000000000E+00  0.00000000000E+00 -0.10733719231E+03  0.16476293861E+03  0.12500221233E+03 0.  0.
    9000005    1    3    3    0    0  0.92480300668E+01 -0.38852422599E+01 -0.13497146472E+03  0.13534739546E+03  0.10000000000E+01 0.  0.
    9000005    1    3    3    0    0 -0.92480300668E+01  0.38852422599E+01  0.27634272413E+02  0.29415543158E+02  0.10000000000E+01 0.  0.
<mgrwt>
<rscale>  0 0.12500221E+03</rscale>
<asrwt>0</asrwt>
<pdfrwt beam="1">  1        4 0.44173652E-02 0.12500221E+03</pdfrwt>
<pdfrwt beam="2">  1       -4 0.20930779E-01 0.12500221E+03</pdfrwt>
<totfact> 0.96427514E+03</totfact>
</mgrwt>
</event>
<event>
 5    1  0.3199195E-002  0.1250057E+03  0.7818608E-02  0.1235060E+00
         -4   -1    0    0    0  501 -0.00000000000E+00  0.00000000000E+00  0.29683373976E+03  0.29683645658E+03  0.12700000000E+01 0. -1.
          4   -1    0    0  501    0  0.00000000000E+00 -0.00000000000E+00 -0.13127496182E+02  0.13188785237E+02  0.12700000000E+01 0. -1.
         25    2    1    2    0    0  0.00000000000E+00  0.00000000000E+00  0.28370624357E+03  0.31002524182E+03  0.12500567157E+03 0.  0.
    9000005    1    3    3    0    0  0.38304609015E+02  0.48703086971E+02  0.12164827182E+03  0.13652302293E+03  0.10000000000E+01 0.  0.
    9000005    1    3    3    0    0 -0.38304609015E+02 -0.48703086971E+02  0.16205797175E+03  0.17350221889E+03  0.10000000000E+01 0.  0.
<mgrwt>
<rscale>  0 0.12500567E+03</rscale>
<asrwt>0</asrwt>
<pdfrwt beam="2">  1        4 0.20245383E-02 0.12500567E+03</pdfrwt>
<pdfrwt beam="1">  1       -4 0.45671654E-01 0.12500567E+03</pdfrwt>
<totfact> 0.74348898E+03</totfact>
</mgrwt>
</event>
<event>
 5    1  0.3199195E-002  0.1250007E+03  0.7818608E-02  0.1235068E+00
         -4   -1    0    0    0  501 -0.00000000000E+00  0.00000000000E+00  0.82386087527E+02  0.82395875613E+02  0.12700000000E+01 0. -1.
          4   -1    0    0  501    0  0.00000000000E+00 -0.00000000000E+00 -0.47393343897E+02  0.47410356946E+02  0.12700000000E+01 0. -1.
         25    2    1    2    0    0  0.00000000000E+00  0.00000000000E+00  0.34992743630E+02  0.12980623256E+03  0.12500066361E+03 0.  0.
    9000005    1    3    3    0    0  0.36158483545E+02  0.22813134411E+02 -0.29834555028E+02  0.52143798362E+02  0.10000000000E+01 0.  0.
    9000005    1    3    3    0    0 -0.36158483545E+02 -0.22813134411E+02  0.64827298658E+02  0.77662434196E+02  0.10000000000E+01 0.  0.
<mgrwt>
<rscale>  0 0.12500066E+03</rscale>
<asrwt>0</asrwt>
<pdfrwt beam="2">  1        4 0.72933453E-02 0.12500066E+03</pdfrwt>
<pdfrwt beam="1">  1       -4 0.12676844E-01 0.12500066E+03</pdfrwt>
<totfact> 0.10348499E+04</totfact>
</mgrwt>
</event>
<event>
 5    1  0.3199195E-002  0.1250000E+03  0.7818608E-02  0.1235069E+00
         -4   -1    0    0    0  501 -0.00000000000E+00  0.00000000000E+00  0.79531289828E+01  0.80538910234E+01  0.12700000000E+01 0. -1.
          4   -1    0    0  501    0  0.00000000000E+00 -0.00000000000E+00 -0.48796579162E+03  0.48796744429E+03  0.12700000000E+01 0. -1.
         25    2    1    2    0    0  0.00000000000E+00  0.00000000000E+00 -0.48001266264E+03  0.49602133532E+03  0.12500003519E+03 0.  0.
    9000005    1    3    3    0    0  0.22854253481E+02  0.57908001507E+02 -0.26159501877E+03  0.26890259833E+03  0.10000000000E+01 0.  0.
    9000005    1    3    3    0    0 -0.22854253481E+02 -0.57908001507E+02 -0.21841764387E+03  0.22711873699E+03  0.10000000000E+01 0.  0.
<mgrwt>
<rscale>  0 0.12500004E+03</rscale>
<asrwt>0</asrwt>
<pdfrwt beam="2">  1        4 0.75079515E-01 0.12500004E+03</pdfrwt>
<pdfrwt beam="1">  1       -4 0.12314367E-02 0.12500004E+03</pdfrwt>
<totfact> 0.56174355E+03</totfact>
</mgrwt>
</event>
<event>
 5    1  0.3199195E-002  0.1250025E+03  0.7818608E-02  0.1235065E+00
         -4   -1    0    0    0  501 -0.00000000000E+00  0.00000000000E+00  0.17218157581E+03  0.17218625946E+03  0.12700000000E+01 0. -1.
          4   -1    0    0  501    0  0.00000000000E+00 -0.00000000000E+00 -0.22664943484E+02  0.22700496980E+02  0.12700000000E+01 0. -1.
         25    2    1    2    0    0  0.00000000000E+00  0.00000000000E+00  0.14951663232E+03  0.19488675644E+03  0.12500249796E+03 0.  0.
    9000005    1    3    3    0    0  0.53517022967E+02  0.31261596736E+02  0.87235392976E+02  0.10701576036E+03  0.10000000000E+01 0.  0.
    9000005    1    3    3    0    0 -0.53517022967E+02 -0.31261596736E+02  0.62281239348E+02  0.87870996083E+02  0.10000000000E+01 0.  0.
<mgrwt>
<rscale>  0 0.12500250E+03</rscale>
<asrwt>0</asrwt>
<pdfrwt beam="2">  1        4 0.34900095E-02 0.12500250E+03</pdfrwt>
<pdfrwt beam="1">  1       -4 0.26492568E-01 0.12500250E+03</pdfrwt>
<totfact> 0.90998829E+03</totfact>
</mgrwt>
</event>
<event>
 5    1  0.3199195E-002  0.1250017E+03  0.7818608E-02  0.1235067E+00
         -4   -1    0    0    0  501 -0.00000000000E+00  0.00000000000E+00  0.29633453932E+03  0.29633726073E+03  0.12700000000E+01 0.  1.
          4   -1    0    0  501    0  0.00000000000E+00 -0.00000000000E+00 -0.13148884032E+02  0.13210073857E+02  0.12700000000E+01 0.  1.
         25    2    1    2    0    0  0.00000000000E+00  0.00000000000E+00  0.28318565529E+03  0.30954733458E+03  0.12500174793E+03 0.  0.
    9000005    1    3    3    0    0  0.52325702517E+02 -0.20957506164E+02  0.74769930941E+02  0.93641544100E+02  0.10000000000E+01 0.  0.
    9000005    1    3    3    0    0 -0.52325702517E+02  0.20957506164E+02  0.20841572435E+03  0.21590579048E+03  0.10000000000E+01 0.  0.
<mgrwt>
<rscale>  0 0.12500175E+03</rscale>
<asrwt>0</asrwt>
<pdfrwt beam="2">  1        4 0.20278216E-02 0.12500175E+03</pdfrwt>
<pdfrwt beam="1">  1       -4 0.45594843E-01 0.12500175E+03</pdfrwt>
<totfact> 0.74413750E+03</totfact>
</mgrwt>
</event>
<event>
 5    1  0.3199195E-002  0.1250040E+03  0.7818608E-02  0.1235063E+00
          4   -1    0    0  501    0  0.00000000000E+00  0.00000000000E+00  0.13545107244E+04  0.13545113198E+04  0.12700000000E+01 0. -1.
         -4   -1    0    0    0  501 -0.00000000000E+00 -0.00000000000E+00 -0.27436303909E+01  0.30233107221E+01  0.12700000000E+01 0. -1.
         25    2    1    2    0    0  0.00000000000E+00  0.00000000000E+00  0.13517670940E+04  0.13575346305E+04  0.12500398621E+03 0.  0.
    9000005    1    3    3    0    0  0.40414963223E+02  0.37963234633E+01  0.11918980229E+04  0.11925894844E+04  0.10000000000E+01 0.  0.
    9000005    1    3    3    0    0 -0.40414963223E+02 -0.37963234633E+01  0.15986907118E+03  0.16494514617E+03  0.10000000000E+01 0.  0.
<mgrwt>
<rscale>  0 0.12500399E+03</rscale>
<asrwt>0</asrwt>
<pdfrwt beam="1">  1        4 0.20840829E+00 0.12500399E+03</pdfrwt>
<pdfrwt beam="2">  1       -4 0.44365567E-03 0.12500399E+03</pdfrwt>
<totfact> 0.20907998E+03</totfact>
</mgrwt>
</event>
<event>
 5    1  0.3199195E-002  0.1249917E+03  0.7818608E-02  0.1235082E+00
         -4   -1    0    0    0  501 -0.00000000000E+00  0.00000000000E+00  0.24447941190E+02  0.24480905385E+02  0.12700000000E+01 0. -1.
          4   -1    0    0  501    0  0.00000000000E+00 -0.00000000000E+00 -0.15961397007E+03  0.15961902249E+03  0.12700000000E+01 0. -1.
         25    2    1    2    0    0  0.00000000000E+00  0.00000000000E+00 -0.13516602887E+03  0.18409992787E+03  0.12499171205E+03 0.  0.
    9000005    1    3    3    0    0 -0.50723230721E+02 -0.29980251575E+02 -0.36931520079E+02  0.69545659783E+02  0.10000000000E+01 0.  0.
    9000005    1    3    3    0    0  0.50723230721E+02  0.29980251575E+02 -0.98234508795E+02  0.11455426809E+03  0.10000000000E+01 0.  0.
<mgrwt>
<rscale>  0 0.12499171E+03</rscale>
<asrwt>0</asrwt>
<pdfrwt beam="2">  1        4 0.24558919E-01 0.12499171E+03</pdfrwt>
<pdfrwt beam="1">  1       -4 0.37641462E-02 0.12499171E+03</pdfrwt>
<totfact> 0.92901422E+03</totfact>
</mgrwt>
</event>
<event>
 5    1  0.3199195E-002  0.1250026E+03  0.7818608E-02  0.1235065E+00
          4   -1    0    0  501    0  0.00000000000E+00  0.00000000000E+00  0.22753216235E+02  0.22788632013E+02  0.12700000000E+01 0.  1.
         -4   -1    0    0    0  501 -0.00000000000E+00 -0.00000000000E+00 -0.17151497229E+03  0.17151967415E+03  0.12700000000E+01 0.  1.
         25    2    1    2    0    0  0.00000000000E+00  0.00000000000E+00 -0.14876175606E+03  0.19430830616E+03  0.12500263109E+03 0.  0.
    9000005    1    3    3    0    0 -0.40757626627E+02 -0.12085811989E+02 -0.14558282543E+03  0.15166611368E+03  0.10000000000E+01 0.  0.
    9000005    1    3    3    0    0  0.40757626627E+02  0.12085811989E+02 -0.31789306303E+01  0.42642192482E+02  0.10000000000E+01 0.  0.
<mgrwt>
<rscale>  0 0.12500263E+03</rscale>
<asrwt>0</asrwt>
<pdfrwt beam="1">  1        4 0.35035809E-02 0.12500263E+03</pdfrwt>
<pdfrwt beam="2">  1       -4 0.26390004E-01 0.12500263E+03</pdfrwt>
<totfact> 0.91097674E+03</totfact>
</mgrwt>
</event>
<event>
 5    1  0.3199195E-002  0.1249990E+03  0.7818608E-02  0.1235071E+00
         -4   -1    0    0    0  501 -0.00000000000E+00  0.00000000000E+00  0.99516310294E+02  0.99524413660E+02  0.12700000000E+01 0. -1.
          4   -1    0    0  501    0  0.00000000000E+00 -0.00000000000E+00 -0.39231763351E+02  0.39252314017E+02  0.12700000000E+01 0. -1.
         25    2    1    2    0    0  0.00000000000E+00  0.00000000000E+00  0.60284546942E+02  0.13877672768E+03  0.12499901418E+03 0.  0.
    9000005    1    3    3    0    0 -0.61529967316E+02 -0.57856259334E+01  0.40424759219E+02  0.73855070938E+02  0.10000000000E+01 0.  0.
    9000005    1    3    3    0    0  0.61529967316E+02  0.57856259334E+01  0.19859787723E+02  0.64921656739E+02  0.10000000000E+01 0.  0.
<mgrwt>
<rscale>  0 0.12499901E+03</rscale>
<asrwt>0</asrwt>
<pdfrwt beam="2">  1        4 0.60378601E-02 0.12499901E+03</pdfrwt>
<pdfrwt beam="1">  1       -4 0.15312406E-01 0.12499901E+03</pdfrwt>
<totfact> 0.10159227E+04</totfact>
</mgrwt>
</event>
<event>
 5    1  0.3199195E-002  0.1250244E+03  0.7818608E-02  0.1235031E+00
          4   -1    0    0  501    0  0.00000000000E+00  0.00000000000E+00  0.48982715671E+01  0.50602336255E+01  0.12700000000E+01 0.  1.
         -4   -1    0    0    0  501 -0.00000000000E+00 -0.00000000000E+00 -0.78464851097E+03  0.78464953876E+03  0.12700000000E+01 0.  1.
         25    2    1    2    0    0  0.00000000000E+00  0.00000000000E+00 -0.77975023941E+03  0.78970977238E+03  0.12502435260E+03 0.  0.
    9000005    1    3    3    0    0 -0.44940710782E+02 -0.27362471381E+02 -0.60299320946E+03  0.60528520797E+03  0.10000000000E+01 0.  0.
    9000005    1    3    3    0    0  0.44940710782E+02  0.27362471381E+02 -0.17675702994E+03  0.18442456442E+03  0.10000000000E+01 0.  0.
<mgrwt>
<rscale>  0 0.12502435E+03</rscale>
<asrwt>0</asrwt>
<pdfrwt beam="1">  1        4 0.76611854E-03 0.12502435E+03</pdfrwt>
<pdfrwt beam="2">  1       -4 0.12072760E+00 0.12502435E+03</pdfrwt>
<totfact> 0.38707687E+03</totfact>
</mgrwt>
</event>
<event>
 5    1  0.3199195E-002  0.1250011E+03  0.7818608E-02  0.1235068E+00
         -4   -1    0    0    0  501 -0.00000000000E+00  0.00000000000E+00  0.23984088469E+03  0.23984424711E+03  0.12700000000E+01 0. -1.
          4   -1    0    0  501    0  0.00000000000E+00 -0.00000000000E+00 -0.16258888342E+02  0.16308413477E+02  0.12700000000E+01 0. -1.
         25    2    1    2    0    0  0.00000000000E+00  0.00000000000E+00  0.22358199635E+03  0.25615266059E+03  0.12500110572E+03 0.  0.
    9000005    1    3    3    0    0  0.58604659284E+02  0.10733028719E+02  0.15043437955E+03  0.16180607697E+03  0.10000000000E+01 0.  0.
    9000005    1    3    3    0    0 -0.58604659284E+02 -0.10733028719E+02  0.73147616806E+02  0.94346583615E+02  0.10000000000E+01 0.  0.
<mgrwt>
<rscale>  0 0.12500111E+03</rscale>
<asrwt>0</asrwt>
<pdfrwt beam="2">  1        4 0.25054359E-02 0.12500111E+03</pdfrwt>
<pdfrwt beam="1">  1       -4 0.36902663E-01 0.12500111E+03</pdfrwt>
<totfact> 0.81447027E+03</totfact>
</mgrwt>
</event>
<event>
 5    1  0.3199195E-002  0.1250015E+03  0.7818608E-02  0.1235067E+00
         -4   -1    0    0    0  501 -0.00000000000E+00  0.00000000000E+00  0.22852944388E+02  0.22888205854E+02  0.12700000000E+01 0.  1.
          4   -1    0    0  501    0  0.00000000000E+00 -0.00000000000E+00 -0.17076450016E+03  0.17076922268E+03  0.12700000000E+01 0.  1.
         25    2    1    2    0    0  0.00000000000E+00  0.00000000000E+00 -0.14791155577E+03  0.19365742853E+03  0.12500148517E+03 0.  0.
    9000005    1    3    3    0    0  0.44110156429E+02  0.42794705690E+02 -0.91500553752E+02  0.11022905276E+03  0.10000000000E+01 0.  0.
    9000005    1    3    3    0    0 -0.44110156429E+02 -0.42794705690E+02 -0.56411002015E+02  0.83428375770E+02  0.10000000000E+01 0.  0.
<mgrwt>
<rscale>  0 0.12500149E+03</rscale>
<asrwt>0</asrwt>
<pdfrwt beam="2">  1        4 0.26274536E-01 0.12500149E+03</pdfrwt>
<pdfrwt beam="1">  1       -4 0.35189134E-02 0.12500149E+03</pdfrwt>
<totfact> 0.91211767E+03</totfact>
</mgrwt>
</event>
<event>
 5    1  0.3199195E-002  0.1249964E+03  0.7818608E-02  0.1235075E+00
         -4   -1    0    0    0  501 -0.00000000000E+00  0.00000000000E+00  0.15520272124E+03  0.15520791726E+03  0.12700000000E+01 0. -1.
          4   -1    0    0  501    0  0.00000000000E+00 -0.00000000000E+00 -0.25145594403E+02  0.25177645201E+02  0.12700000000E+01 0. -1.
         25    2    1    2    0    0  0.00000000000E+00  0.00000000000E+00  0.13005712683E+03  0.18038556246E+03  0.12499637956E+03 0.  0.
    9000005    1    3    3    0    0 -0.10958046580E+02 -0.61102517362E+02  0.75377631820E+02  0.97654409996E+02  0.10000000000E+01 0.  0.
    9000005    1    3    3    0    0  0.10958046580E+02  0.61102517362E+02  0.54679495013E+02  0.82731152462E+02  0.10000000000E+01 0.  0.
<mgrwt>
<rscale>  0 0.12499638E+03</rscale>
<asrwt>0</asrwt>
<pdfrwt beam="2">  1        4 0.38714181E-02 0.12499638E+03</pdfrwt>
<pdfrwt beam="1">  1       -4 0.23880207E-01 0.12499638E+03</pdfrwt>
<totfact> 0.93555240E+03</totfact>
</mgrwt>
</event>
<event>
 5    1  0.3199195E-002  0.1250008E+03  0.7818608E-02  0.1235068E+00
         -4   -1    0    0    0  501 -0.00000000000E+00  0.00000000000E+00  0.45571635912E+01  0.47308181108E+01  0.12700000000E+01 0. -1.
          4   -1    0    0  501    0  0.00000000000E+00 -0.00000000000E+00 -0.84097785266E+03  0.84097881160E+03  0.12700000000E+01 0. -1.
         25    2    1    2    0    0  0.00000000000E+00  0.00000000000E+00 -0.83642068907E+03  0.84570962971E+03  0.12500083475E+03 0.  0.
    9000005    1    3    3    0    0 -0.29674612261E+01  0.61583316179E+02 -0.48720370736E+03  0.49109038183E+03  0.10000000000E+01 0.  0.
    9000005    1    3    3    0    0  0.29674612261E+01 -0.61583316179E+02 -0.34921698171E+03  0.35461924788E+03  0.10000000000E+01 0.  0.
<mgrwt>
<rscale>  0 0.12500083E+03</rscale>
<asrwt>0</asrwt>
<pdfrwt beam="2">  1        4 0.12939452E+00 0.12500083E+03</pdfrwt>
<pdfrwt beam="1">  1       -4 0.71453456E-03 0.12500083E+03</pdfrwt>
<totfact> 0.36302904E+03</totfact>
</mgrwt>
</event>
<event>
 5    1  0.3199195E-002  0.1249997E+03  0.7818608E-02  0.1235070E+00
         -4   -1    0    0    0  501 -0.00000000000E+00  0.00000000000E+00  0.81601697407E+02  0.81611579568E+02  0.12700000000E+01 0.  1.
          4   -1    0    0  501    0  0.00000000000E+00 -0.00000000000E+00 -0.47848299981E+02  0.47865151322E+02  0.12700000000E+01 0.  1.
         25    2    1    2    0    0  0.00000000000E+00  0.00000000000E+00  0.33753397425E+02  0.12947673089E+03  0.12499972802E+03 0.  0.
    9000005    1    3    3    0    0 -0.35843440108E+02 -0.49200031481E+02  0.31519405764E+02  0.68555585011E+02  0.10000000000E+01 0.  0.
    9000005    1    3    3    0    0  0.35843440108E+02  0.49200031481E+02  0.22339916614E+01  0.60921145879E+02  0.10000000000E+01 0.  0.
<mgrwt>
<rscale>  0 0.12499973E+03</rscale>
<asrwt>0</asrwt>
<pdfrwt beam="2">  1        4 0.73633333E-02 0.12499973E+03</pdfrwt>
<pdfrwt beam="1">  1       -4 0.12556164E-01 0.12499973E+03</pdfrwt>
<totfact> 0.10355778E+04</totfact>
</mgrwt>
</event>
<event>
 5    1  0.3199195E-002  0.1250060E+03  0.7818608E-02  0.1235060E+00
         -4   -1    0    0    0  501 -0.00000000000E+00  0.00000000000E+00  0.87877033996E+02  0.87886210545E+02  0.12700000000E+01 0. -1.
          4   -1    0    0  501    0  0.00000000000E+00 -0.00000000000E+00 -0.44434995250E+02  0.44453140528E+02  0.12700000000E+01 0. -1.
         25    2    1    2    0    0  0.00000000000E+00  0.00000000000E+00  0.43442038746E+02  0.13233935107E+03  0.12500597231E+03 0.  0.
    9000005    1    3    3    0    0 -0.20106983944E+02 -0.41807611375E+02 -0.22609792769E+02  0.51617534823E+02  0.10000000000E+01 0.  0.
    9000005    1    3    3    0    0  0.20106983944E+02  0.41807611375E+02  0.66051831515E+02  0.80721816250E+02  0.10000000000E+01 0.  0.
<mgrwt>
<rscale>  0 0.12500597E+03</rscale>
<asrwt>0</asrwt>
<pdfrwt beam="2">  1        4 0.68382549E-02 0.12500597E+03</pdfrwt>
<pdfrwt beam="1">  1       -4 0.13521645E-01 0.12500597E+03</pdfrwt>
<totfact> 0.10293074E+04</totfact>
</mgrwt>
</event>
<event>
 5    1  0.3199195E-002  0.1249986E+03  0.7818608E-02  0.1235071E+00
         -4   -1    0    0    0  501 -0.00000000000E+00  0.00000000000E+00  0.73742906896E+02  0.73753842052E+02  0.12700000000E+01 0.  1.
          4   -1    0    0  501    0  0.00000000000E+00 -0.00000000000E+00 -0.52947524021E+02  0.52962752949E+02  0.12700000000E+01 0.  1.
         25    2    1    2    0    0  0.00000000000E+00  0.00000000000E+00  0.20795382875E+02  0.12671659500E+03  0.12499858999E+03 0.  0.
    9000005    1    3    3    0    0 -0.35722563500E+02 -0.26999194233E+02  0.54586983961E+02  0.70610175260E+02  0.10000000000E+01 0.  0.
    9000005    1    3    3    0    0  0.35722563500E+02  0.26999194233E+02 -0.33791601085E+02  0.56106419741E+02  0.10000000000E+01 0.  0.
<mgrwt>
<rscale>  0 0.12499859E+03</rscale>
<asrwt>0</asrwt>
<pdfrwt beam="2">  1        4 0.81477856E-02 0.12499859E+03</pdfrwt>
<pdfrwt beam="1">  1       -4 0.11347075E-01 0.12499859E+03</pdfrwt>
<totfact> 0.10415640E+04</totfact>
</mgrwt>
</event>
<event>
 5    1  0.3199195E-002  0.1250022E+03  0.7818608E-02  0.1235066E+00
          4   -1    0    0  501    0  0.00000000000E+00  0.00000000000E+00  0.20420602491E+02  0.20460056356E+02  0.12700000000E+01 0. -1.
         -4   -1    0    0    0  501 -0.00000000000E+00 -0.00000000000E+00 -0.19107014304E+03  0.19107436370E+03  0.12700000000E+01 0. -1.
         25    2    1    2    0    0  0.00000000000E+00  0.00000000000E+00 -0.17064954055E+03  0.21153442005E+03  0.12500218069E+03 0.  0.
    9000005    1    3    3    0    0  0.16054499938E+02 -0.24403325743E+02 -0.17881453029E+03  0.18118748721E+03  0.10000000000E+01 0.  0.
    9000005    1    3    3    0    0 -0.16054499938E+02  0.24403325743E+02  0.81649897459E+01  0.30346932845E+02  0.10000000000E+01 0.  0.
<mgrwt>
<rscale>  0 0.12500218E+03</rscale>
<asrwt>0</asrwt>
<pdfrwt beam="1">  1        4 0.31449909E-02 0.12500218E+03</pdfrwt>
<pdfrwt beam="2">  1       -4 0.29398765E-01 0.12500218E+03</pdfrwt>
<totfact> 0.88221602E+03</totfact>
</mgrwt>
</event>
<event>
 5    1  0.3199195E-002  0.1250044E+03  0.7818608E-02  0.1235062E+00
         -4   -1    0    0    0  501 -0.00000000000E+00  0.00000000000E+00  0.60794986721E+02  0.60808250349E+02  0.12700000000E+01 0.  1.
          4   -1    0    0  501    0  0.00000000000E+00 -0.00000000000E+00 -0.64230797192E+02  0.64243351469E+02  0.12700000000E+01 0.  1.
         25    2    1    2    0    0  0.00000000000E+00  0.00000000000E+00 -0.34358104710E+01  0.12505160182E+03  0.12500439322E+03 0.  0.
    9000005    1    3    3    0    0  0.29178175847E+02  0.11781689565E+02 -0.55732281455E+02  0.64009853545E+02  0.10000000000E+01 0.  0.
    9000005    1    3    3    0    0 -0.29178175847E+02 -0.11781689565E+02  0.52296470984E+02  0.61041748272E+02  0.10000000000E+01 0.  0.
<mgrwt>
<rscale>  0 0.12500439E+03</rscale>
<asrwt>0</asrwt>
<pdfrwt beam="2">  1        4 0.98836472E-02 0.12500439E+03</pdfrwt>
<pdfrwt beam="1">  1       -4 0.93550608E-02 0.12500439E+03</pdfrwt>
<totfact> 0.10450704E+04</totfact>
</mgrwt>
</event>
<event>
 5    1  0.3199195E-002  0.1249968E+03  0.7818608E-02  0.1235074E+00
         -4   -1    0    0    0  501 -0.00000000000E+00  0.00000000000E+00  0.88485012025E+02  0.88494125528E+02  0.12700000000E+01 0.  1.
          4   -1    0    0  501    0  0.00000000000E+00 -0.00000000000E+00 -0.44123101131E+02  0.44141374620E+02  0.12700000000E+01 0.  1.
         25    2    1    2    0    0  0.00000000000E+00  0.00000000000E+00  0.44361910894E+02  0.13263550015E+03  0.12499678700E+03 0.  0.
    9000005    1    3    3    0    0 -0.15125339170E+02  0.60296963837E+02  0.15423962688E+02  0.64057773595E+02  0.10000000000E+01 0.  0.
    9000005    1    3    3    0    0  0.15125339170E+02 -0.60296963837E+02  0.28937948206E+02  0.68577726554E+02  0.10000000000E+01 0.  0.
<mgrwt>
<rscale>  0 0.12499679E+03</rscale>
<asrwt>0</asrwt>
<pdfrwt beam="2">  1        4 0.67902761E-02 0.12499679E+03</pdfrwt>
<pdfrwt beam="1">  1       -4 0.13615185E-01 0.12499679E+03</pdfrwt>
<totfact> 0.10288898E+04</totfact>
</mgrwt>
</event>
<event>
 5    1  0.3199195E-002  0.1249992E+03  0.7818608E-02  0.1235071E+00
          4   -1    0    0  501    0  0.00000000000E+00  0.00000000000E+00  0.10347947385E+02  0.10425589436E+02  0.12700000000E+01 0. -1.
         -4   -1    0    0    0  501 -0.00000000000E+00 -0.00000000000E+00 -0.37599600032E+03  0.37599814515E+03  0.12700000000E+01 0. -1.
         25    2    1    2    0    0  0.00000000000E+00  0.00000000000E+00 -0.36564805294E+03  0.38642373459E+03  0.12499921615E+03 0.  0.
    9000005    1    3    3    0    0 -0.35002499820E+02  0.50269985783E+02 -0.22105696663E+03  0.22938925206E+03  0.10000000000E+01 0.  0.
    9000005    1    3    3    0    0  0.35002499820E+02 -0.50269985783E+02 -0.14459108631E+03  0.15703448253E+03  0.10000000000E+01 0.  0.
<mgrwt>
<rscale>  0 0.12499922E+03</rscale>
<asrwt>0</asrwt>
<pdfrwt beam="1">  1        4 0.15981296E-02 0.12499922E+03</pdfrwt>
<pdfrwt beam="2">  1       -4 0.57851666E-01 0.12499922E+03</pdfrwt>
<totfact> 0.65896117E+03</totfact>
</mgrwt>
</event>
<event>
 5    1  0.3199195E-002  0.1249990E+03  0.7818608E-02  0.1235071E+00
          4   -1    0    0  501    0  0.00000000000E+00  0.00000000000E+00  0.22396699755E+02  0.22432678394E+02  0.12700000000E+01 0. -1.
         -4   -1    0    0    0  501 -0.00000000000E+00 -0.00000000000E+00 -0.17423089954E+03  0.17423552810E+03  0.12700000000E+01 0. -1.
         25    2    1    2    0    0  0.00000000000E+00  0.00000000000E+00 -0.15183419978E+03  0.19666820650E+03  0.12499903689E+03 0.  0.
    9000005    1    3    3    0    0  0.11389200294E+02 -0.24727307455E+02 -0.16441810673E+03  0.16665973550E+03  0.10000000000E+01 0.  0.
    9000005    1    3    3    0    0 -0.11389200294E+02  0.24727307455E+02  0.12583906948E+02  0.30008470994E+02  0.10000000000E+01 0.  0.
<mgrwt>
<rscale>  0 0.12499904E+03</rscale>
<asrwt>0</asrwt>
<pdfrwt beam="1">  1        4 0.34487699E-02 0.12499904E+03</pdfrwt>
<pdfrwt beam="2">  1       -4 0.26807876E-01 0.12499904E+03</pdfrwt>
<totfact> 0.90701795E+03</totfact>
</mgrwt>
</event>
<event>
 5    1  0.3199195E-002  0.1250051E+03  0.7818608E-02  0.1235061E+00
          4   -1    0    0  501    0  0.00000000000E+00  0.00000000000E+00  0.33610066980E+02  0.33634052721E+02  0.12700000000E+01 0. -1.
         -4   -1    0    0    0  501 -0.00000000000E+00 -0.00000000000E+00 -0.11616309966E+03  0.11617004185E+03  0.12700000000E+01 0. -1.
         25    2    1    2    0    0  0.00000000000E+00  0.00000000000E+00 -0.82553032683E+02  0.14980409457E+03  0.12500505408E+03 0.  0.
    9000005    1    3    3    0    0  0.29829477371E+02 -0.14781663766E+02 -0.10465813859E+03  0.10982996530E+03  0.10000000000E+01 0.  0.
    9000005    1    3    3    0    0 -0.29829477371E+02  0.14781663766E+02  0.22105105907E+02  0.39974129273E+02  0.10000000000E+01 0.  0.
<mgrwt>
<rscale>  0 0.12500505E+03</rscale>
<asrwt>0</asrwt>
<pdfrwt beam="1">  1        4 0.51731587E-02 0.12500505E+03</pdfrwt>
<pdfrwt beam="2">  1       -4 0.17873625E-01 0.12500505E+03</pdfrwt>
<totfact> 0.99331464E+03</totfact>
</mgrwt>
</event>
<event>
 5    1  0.3199195E-002  0.1249931E+03  0.7818608E-02  0.1235080E+00
          4   -1    0    0  501    0  0.00000000000E+00  0.00000000000E+00  0.19080526731E+02  0.19122745628E+02  0.12700000000E+01 0.  1.
         -4   -1    0    0    0  501 -0.00000000000E+00 -0.00000000000E+00 -0.20443145289E+03  0.20443539769E+03  0.12700000000E+01 0.  1.
         25    2    1    2    0    0  0.00000000000E+00  0.00000000000E+00 -0.18535092615E+03  0.22355814332E+03  0.12499311028E+03 0.  0.
    9000005    1    3    3    0    0  0.33678583250E+02  0.46369944128E+02 -0.13722473025E+03  0.14871464380E+03  0.10000000000E+01 0.  0.
    9000005    1    3    3    0    0 -0.33678583250E+02 -0.46369944128E+02 -0.48126195908E+02  0.74843499523E+02  0.10000000000E+01 0.  0.
<mgrwt>
<rscale>  0 0.12499311E+03</rscale>
<asrwt>0</asrwt>
<pdfrwt beam="1">  1        4 0.29390168E-02 0.12499311E+03</pdfrwt>
<pdfrwt beam="2">  1       -4 0.31454542E-01 0.12499311E+03</pdfrwt>
<totfact> 0.86321713E+03</totfact>
</mgrwt>
</event>
<event>
 5    1  0.3199195E-002  0.1250000E+03  0.7818608E-02  0.1235069E+00
         -4   -1    0    0    0  501 -0.00000000000E+00  0.00000000000E+00  0.29995656998E+02  0.30022530519E+02  0.12700000000E+01 0.  1.
          4   -1    0    0  501    0  0.00000000000E+00 -0.00000000000E+00 -0.13013892878E+03  0.13014512547E+03  0.12700000000E+01 0.  1.
         25    2    1    2    0    0  0.00000000000E+00  0.00000000000E+00 -0.10014327178E+03  0.16016765599E+03  0.12500001257E+03 0.  0.
    9000005    1    3    3    0    0 -0.49663754015E+02 -0.26121612441E+02 -0.85312562813E+02  0.10211787539E+03  0.10000000000E+01 0.  0.
    9000005    1    3    3    0    0  0.49663754015E+02  0.26121612441E+02 -0.14830708964E+02  0.58049780601E+02  0.10000000000E+01 0.  0.
<mgrwt>
<rscale>  0 0.12500001E+03</rscale>
<asrwt>0</asrwt>
<pdfrwt beam="2">  1        4 0.20023917E-01 0.12500001E+03</pdfrwt>
<pdfrwt beam="1">  1       -4 0.46172604E-02 0.12500001E+03</pdfrwt>
<totfact> 0.97310445E+03</totfact>
</mgrwt>
</event>
<event>
 5    1  0.3199195E-002  0.1249919E+03  0.7818608E-02  0.1235082E+00
          4   -1    0    0  501    0  0.00000000000E+00  0.00000000000E+00  0.24253100054E+03  0.24253432566E+03  0.12700000000E+01 0. -1.
         -4   -1    0    0    0  501 -0.00000000000E+00 -0.00000000000E+00 -0.16075617174E+02  0.16125705179E+02  0.12700000000E+01 0. -1.
         25    2    1    2    0    0  0.00000000000E+00  0.00000000000E+00  0.22645538336E+03  0.25866003084E+03  0.12499188333E+03 0.  0.
    9000005    1    3    3    0    0  0.46595342546E+02  0.17224264318E+02  0.34782368532E+02  0.60651581917E+02  0.10000000000E+01 0.  0.
    9000005    1    3    3    0    0 -0.46595342546E+02 -0.17224264318E+02  0.19167301483E+03  0.19800844892E+03  0.10000000000E+01 0.  0.
<mgrwt>
<rscale>  0 0.12499188E+03</rscale>
<asrwt>0</asrwt>
<pdfrwt beam="1">  1        4 0.37316569E-01 0.12499188E+03</pdfrwt>
<pdfrwt beam="2">  1       -4 0.24772807E-02 0.12499188E+03</pdfrwt>
<totfact> 0.81109130E+03</totfact>
</mgrwt>
</event>
<event>
 5    1  0.3199195E-002  0.1249797E+03  0.7818608E-02  0.1235101E+00
         -4   -1    0    0    0  501 -0.00000000000E+00  0.00000000000E+00  0.26662136594E+01  0.29532347143E+01  0.12700000000E+01 0. -1.
          4   -1    0    0  501    0  0.00000000000E+00 -0.00000000000E+00 -0.13895224619E+04  0.13895230423E+04  0.12700000000E+01 0. -1.
         25    2    1    2    0    0  0.00000000000E+00  0.00000000000E+00 -0.13868562483E+04  0.13924762770E+04  0.12497971318E+03 0.  0.
    9000005    1    3    3    0    0  0.79050973153E+01 -0.61518312628E+02 -0.60931899626E+03  0.61246847474E+03  0.10000000000E+01 0.  0.
    9000005    1    3    3    0    0 -0.79050973153E+01  0.61518312628E+02 -0.77753725199E+03  0.78000780226E+03  0.10000000000E+01 0.  0.
<mgrwt>
<rscale>  0 0.12497971E+03</rscale>
<asrwt>0</asrwt>
<pdfrwt beam="2">  1        4 0.21379426E+00 0.12497971E+03</pdfrwt>
<pdfrwt beam="1">  1       -4 0.43231101E-03 0.12497971E+03</pdfrwt>
<totfact> 0.20151960E+03</totfact>
</mgrwt>
</event>
<event>
 5    1  0.3199195E-002  0.1250014E+03  0.7818608E-02  0.1235067E+00
          4   -1    0    0  501    0  0.00000000000E+00  0.00000000000E+00  0.30952582303E+03  0.30952842846E+03  0.12700000000E+01 0. -1.
         -4   -1    0    0    0  501 -0.00000000000E+00 -0.00000000000E+00 -0.12585785334E+02  0.12649699304E+02  0.12700000000E+01 0. -1.
         25    2    1    2    0    0  0.00000000000E+00  0.00000000000E+00  0.29694003770E+03  0.32217812776E+03  0.12500144007E+03 0.  0.
    9000005    1    3    3    0    0 -0.48788397547E+02 -0.23442153306E+02  0.67970336611E+02  0.86895390821E+02  0.10000000000E+01 0.  0.
    9000005    1    3    3    0    0  0.48788397547E+02  0.23442153306E+02  0.22896970109E+03  0.23528273694E+03  0.10000000000E+01 0.  0.
<mgrwt>
<rscale>  0 0.12500144E+03</rscale>
<asrwt>0</asrwt>
<pdfrwt beam="1">  1        4 0.47624475E-01 0.12500144E+03</pdfrwt>
<pdfrwt beam="2">  1       -4 0.19413915E-02 0.12500144E+03</pdfrwt>
<totfact> 0.72895484E+03</totfact>
</mgrwt>
</event>
<event>
 5    1  0.3199195E-002  0.1249962E+03  0.7818608E-02  0.1235075E+00
         -4   -1    0    0    0  501 -0.00000000000E+00  0.00000000000E+00  0.61647919086E+01  0.62942481105E+01  0.12700000000E+01 0.  1.
          4   -1    0    0  501    0  0.00000000000E+00 -0.00000000000E+00 -0.62688623199E+03  0.62688751842E+03  0.12700000000E+01 0.  1.
         25    2    1    2    0    0  0.00000000000E+00  0.00000000000E+00 -0.62072144008E+03  0.63318176654E+03  0.12499617313E+03 0.  0.
    9000005    1    3    3    0    0 -0.32882821783E+02  0.34845460494E+02 -0.10713413875E+03  0.11736357941E+03  0.10000000000E+01 0.  0.
    9000005    1    3    3    0    0  0.32882821783E+02 -0.34845460494E+02 -0.51358730133E+03  0.51581818712E+03  0.10000000000E+01 0.  0.
<mgrwt>
<rscale>  0 0.12499617E+03</rscale>
<asrwt>0</asrwt>
<pdfrwt beam="2">  1        4 0.96454043E-01 0.12499617E+03</pdfrwt>
<pdfrwt beam="1">  1       -4 0.95848714E-03 0.12499617E+03</pdfrwt>
<totfact> 0.46841851E+03</totfact>
</mgrwt>
</event>
<event>
 5    1  0.3199195E-002  0.1250010E+03  0.7818608E-02  0.1235068E+00
          4   -1    0    0  501    0  0.00000000000E+00  0.00000000000E+00  0.32459139507E+03  0.32459387957E+03  0.12700000000E+01 0. -1.
         -4   -1    0    0    0  501 -0.00000000000E+00 -0.00000000000E+00 -0.11998503964E+02  0.12065529304E+02  0.12700000000E+01 0. -1.
         25    2    1    2    0    0  0.00000000000E+00  0.00000000000E+00  0.31259289111E+03  0.33665940887E+03  0.12500096805E+03 0.  0.
    9000005    1    3    3    0    0  0.12621207300E+02  0.47136562020E+02  0.51150463525E+02  0.70700214084E+02  0.10000000000E+01 0.  0.
    9000005    1    3    3    0    0 -0.12621207300E+02 -0.47136562020E+02  0.26144242758E+03  0.26595919479E+03  0.10000000000E+01 0.  0.
<mgrwt>
<rscale>  0 0.12500097E+03</rscale>
<asrwt>0</asrwt>
<pdfrwt beam="1">  1        4 0.49942484E-01 0.12500097E+03</pdfrwt>
<pdfrwt beam="2">  1       -4 0.18512706E-02 0.12500097E+03</pdfrwt>
<totfact> 0.71216029E+03</totfact>
</mgrwt>
</event>
<event>
 5    1  0.3199195E-002  0.1249560E+03  0.7818608E-02  0.1235138E+00
          4   -1    0    0  501    0  0.00000000000E+00  0.00000000000E+00  0.64692159394E+01  0.65926970863E+01  0.12700000000E+01 0.  1.
         -4   -1    0    0    0  501 -0.00000000000E+00 -0.00000000000E+00 -0.59756789864E+03  0.59756924820E+03  0.12700000000E+01 0.  1.
         25    2    1    2    0    0  0.00000000000E+00  0.00000000000E+00 -0.59109868270E+03  0.60416194528E+03  0.12495600599E+03 0.  0.
    9000005    1    3    3    0    0 -0.14802800854E+02 -0.31909644995E+02 -0.54515663051E+03  0.54629122283E+03  0.10000000000E+01 0.  0.
    9000005    1    3    3    0    0  0.14802800854E+02  0.31909644995E+02 -0.45942052194E+02  0.57870722448E+02  0.10000000000E+01 0.  0.
<mgrwt>
<rscale>  0 0.12495601E+03</rscale>
<asrwt>0</asrwt>
<pdfrwt beam="1">  1        4 0.10048668E-02 0.12495601E+03</pdfrwt>
<pdfrwt beam="2">  1       -4 0.91943082E-01 0.12495601E+03</pdfrwt>
<totfact> 0.48652877E+03</totfact>
</mgrwt>
</event>
<event>
 5    1  0.3199195E-002  0.1250006E+03  0.7818608E-02  0.1235068E+00
         -4   -1    0    0    0  501 -0.00000000000E+00  0.00000000000E+00  0.49411614111E+02  0.49427932478E+02  0.12700000000E+01 0. -1.
          4   -1    0    0  501    0  0.00000000000E+00 -0.00000000000E+00 -0.79021635867E+02  0.79031840641E+02  0.12700000000E+01 0. -1.
         25    2    1    2    0    0  0.00000000000E+00  0.00000000000E+00 -0.29610021756E+02  0.12845977312E+03  0.12500063968E+03 0.  0.
    9000005    1    3    3    0    0  0.26163429573E+02  0.44778000857E+02  0.21026682468E+02  0.55970668956E+02  0.10000000000E+01 0.  0.
    9000005    1    3    3    0    0 -0.26163429573E+02 -0.44778000857E+02 -0.50636704224E+02  0.72489104164E+02  0.10000000000E+01 0.  0.
<mgrwt>
<rscale>  0 0.12500064E+03</rscale>
<asrwt>0</asrwt>
<pdfrwt beam="2">  1        4 0.12159215E-01 0.12500064E+03</pdfrwt>
<pdfrwt beam="1">  1       -4 0.76038270E-02 0.12500064E+03</pdfrwt>
<totfact> 0.10377420E+04</totfact>
</mgrwt>
</event>
<event>
 5    1  0.3199195E-002  0.1249996E+03  0.7818608E-02  0.1235070E+00
          4   -1    0    0  501    0  0.00000000000E+00  0.00000000000E+00  0.40827254350E+03  0.40827451877E+03  0.12700000000E+01 0.  1.
         -4   -1    0    0    0  501 -0.00000000000E+00 -0.00000000000E+00 -0.95235354684E+01  0.96078419958E+01  0.12700000000E+01 0.  1.
         25    2    1    2    0    0  0.00000000000E+00  0.00000000000E+00  0.39874900803E+03  0.41788236077E+03  0.12499958413E+03 0.  0.
    9000005    1    3    3    0    0  0.21770072988E+02 -0.32633303578E+02  0.36199881129E+03  0.36411949681E+03  0.10000000000E+01 0.  0.
    9000005    1    3    3    0    0 -0.21770072988E+02  0.32633303578E+02  0.36750196743E+02  0.53762863958E+02  0.10000000000E+01 0.  0.
<mgrwt>
<rscale>  0 0.12499958E+03</rscale>
<asrwt>0</asrwt>
<pdfrwt beam="1">  1        4 0.62817801E-01 0.12499958E+03</pdfrwt>
<pdfrwt beam="2">  1       -4 0.14717963E-02 0.12499958E+03</pdfrwt>
<totfact> 0.62850526E+03</totfact>
</mgrwt>
</event>
<event>
 5    1  0.3199195E-002  0.1249988E+03  0.7818608E-02  0.1235071E+00
         -4   -1    0    0    0  501 -0.00000000000E+00  0.00000000000E+00  0.29841440233E+03  0.29841710477E+03  0.12700000000E+01 0.  1.
          4   -1    0    0  501    0  0.00000000000E+00 -0.00000000000E+00 -0.13056203355E+02  0.13117825508E+02  0.12700000000E+01 0.  1.
         25    2    1    2    0    0  0.00000000000E+00  0.00000000000E+00  0.28535819897E+03  0.31153493027E+03  0.12499884423E+03 0.  0.
    9000005    1    3    3    0    0  0.17556664365E+02  0.54318276960E+02  0.20604762839E+03  0.21381145161E+03  0.10000000000E+01 0.  0.
    9000005    1    3    3    0    0 -0.17556664365E+02 -0.54318276960E+02  0.79310570585E+02  0.97723478663E+02  0.10000000000E+01 0.  0.
<mgrwt>
<rscale>  0 0.12499884E+03</rscale>
<asrwt>0</asrwt>
<pdfrwt beam="2">  1        4 0.20135948E-02 0.12499884E+03</pdfrwt>
<pdfrwt beam="1">  1       -4 0.45914853E-01 0.12499884E+03</pdfrwt>
<totfact> 0.74176232E+03</totfact>
</mgrwt>
</event>
<event>
 5    1  0.3199195E-002  0.1250012E+03  0.7818608E-02  0.1235067E+00
          4   -1    0    0  501    0  0.00000000000E+00  0.00000000000E+00  0.55263306127E+01  0.56703818250E+01  0.12700000000E+01 0. -1.
         -4   -1    0    0    0  501 -0.00000000000E+00 -0.00000000000E+00 -0.69761782495E+03  0.69761898096E+03  0.12700000000E+01 0. -1.
         25    2    1    2    0    0  0.00000000000E+00  0.00000000000E+00 -0.69209149434E+03  0.70328936278E+03  0.12500116505E+03 0.  0.
    9000005    1    3    3    0    0  0.27492213649E+02  0.24504697952E+02 -0.61987975262E+02  0.72109715782E+02  0.10000000000E+01 0.  0.
    9000005    1    3    3    0    0 -0.27492213649E+02 -0.24504697952E+02 -0.63010351908E+03  0.63117964700E+03  0.10000000000E+01 0.  0.
<mgrwt>
<rscale>  0 0.12500117E+03</rscale>
<asrwt>0</asrwt>
<pdfrwt beam="1">  1        4 0.86137505E-03 0.12500117E+03</pdfrwt>
<pdfrwt beam="2">  1       -4 0.10733692E+00 0.12500117E+03</pdfrwt>
<totfact> 0.42912548E+03</totfact>
</mgrwt>
</event>
<event>
 5    1  0.3199195E-002  0.1250241E+03  0.7818608E-02  0.1235032E+00
          4   -1    0    0  501    0  0.00000000000E+00  0.00000000000E+00  0.93139229619E+02  0.93147887760E+02  0.12700000000E+01 0.  1.
         -4   -1    0    0    0  501 -0.00000000000E+00 -0.00000000000E+00 -0.41935864922E+02  0.41955091071E+02  0.12700000000E+01 0.  1.
         25    2    1    2    0    0  0.00000000000E+00  0.00000000000E+00  0.51203364697E+02  0.13510297883E+03  0.12502411900E+03 0.  0.
    9000005    1    3    3    0    0  0.17029719623E+01  0.61992570885E+02  0.34026229324E+02  0.70744351297E+02  0.10000000000E+01 0.  0.
    9000005    1    3    3    0    0 -0.17029719623E+01 -0.61992570885E+02  0.17177135373E+02  0.64358627534E+02  0.10000000000E+01 0.  0.
<mgrwt>
<rscale>  0 0.12502412E+03</rscale>
<asrwt>0</asrwt>
<pdfrwt beam="1">  1        4 0.14331257E-01 0.12502412E+03</pdfrwt>
<pdfrwt beam="2">  1       -4 0.64538165E-02 0.12502412E+03</pdfrwt>
<totfact> 0.10230335E+04</totfact>
</mgrwt>
</event>
<event>
 5    1  0.3199195E-002  0.1250002E+03  0.7818608E-02  0.1235069E+00
          4   -1    0    0  501    0  0.00000000000E+00  0.00000000000E+00  0.81791740015E+02  0.81801599218E+02  0.12700000000E+01 0.  1.
         -4   -1    0    0    0  501 -0.00000000000E+00 -0.00000000000E+00 -0.47737425152E+02  0.47754315618E+02  0.12700000000E+01 0.  1.
         25    2    1    2    0    0  0.00000000000E+00  0.00000000000E+00  0.34054314863E+02  0.12955591484E+03  0.12500015483E+03 0.  0.
    9000005    1    3    3    0    0  0.45523472397E+02  0.40213554223E+02  0.32250683219E+02  0.68779524935E+02  0.10000000000E+01 0.  0.
    9000005    1    3    3    0    0 -0.45523472397E+02 -0.40213554223E+02  0.18036316443E+01  0.60776389901E+02  0.10000000000E+01 0.  0.
<mgrwt>
<rscale>  0 0.12500015E+03</rscale>
<asrwt>0</asrwt>
<pdfrwt beam="1">  1        4 0.12585402E-01 0.12500015E+03</pdfrwt>
<pdfrwt beam="2">  1       -4 0.73462770E-02 0.12500015E+03</pdfrwt>
<totfact> 0.10353980E+04</totfact>
</mgrwt>
</event>
<event>
 5    1  0.3199195E-002  0.1250039E+03  0.7818608E-02  0.1235063E+00
          4   -1    0    0  501    0  0.00000000000E+00  0.00000000000E+00  0.38209430435E+02  0.38230530655E+02  0.12700000000E+01 0. -1.
         -4   -1    0    0    0  501 -0.00000000000E+00 -0.00000000000E+00 -0.10218575053E+03  0.10219364223E+03  0.12700000000E+01 0. -1.
         25    2    1    2    0    0  0.00000000000E+00  0.00000000000E+00 -0.63976320095E+02  0.14042417288E+03  0.12500391512E+03 0.  0.
    9000005    1    3    3    0    0 -0.46867820354E+02 -0.19887909033E+02  0.87228926406E+01  0.51664401346E+02  0.10000000000E+01 0.  0.
    9000005    1    3    3    0    0  0.46867820354E+02  0.19887909033E+02 -0.72699212736E+02  0.88759771534E+02  0.10000000000E+01 0.  0.
<mgrwt>
<rscale>  0 0.12500392E+03</rscale>
<asrwt>0</asrwt>
<pdfrwt beam="1">  1        4 0.58806041E-02 0.12500392E+03</pdfrwt>
<pdfrwt beam="2">  1       -4 0.15723115E-01 0.12500392E+03</pdfrwt>
<totfact> 0.10123909E+04</totfact>
</mgrwt>
</event>
<event>
 5    1  0.3199195E-002  0.1250011E+03  0.7818608E-02  0.1235067E+00
          4   -1    0    0  501    0  0.00000000000E+00  0.00000000000E+00  0.19281468274E+03  0.19281886521E+03  0.12700000000E+01 0.  1.
         -4   -1    0    0    0  501 -0.00000000000E+00 -0.00000000000E+00 -0.20235150632E+02  0.20274965379E+02  0.12700000000E+01 0.  1.
         25    2    1    2    0    0  0.00000000000E+00  0.00000000000E+00  0.17257953211E+03  0.21309383059E+03  0.12500114292E+03 0.  0.
    9000005    1    3    3    0    0 -0.28430126541E+00  0.29664880701E+02  0.18005384320E+03  0.18248417034E+03  0.10000000000E+01 0.  0.
    9000005    1    3    3    0    0  0.28430126541E+00 -0.29664880701E+02 -0.74743110890E+01  0.30609660248E+02  0.10000000000E+01 0.  0.
<mgrwt>
<rscale>  0 0.12500114E+03</rscale>
<asrwt>0</asrwt>
<pdfrwt beam="1">  1        4 0.29667181E-01 0.12500114E+03</pdfrwt>
<pdfrwt beam="2">  1       -4 0.31164846E-02 0.12500114E+03</pdfrwt>
<totfact> 0.87970850E+03</totfact>
</mgrwt>
</event>
<event>
 5    1  0.3199195E-002  0.1249998E+03  0.7818608E-02  0.1235070E+00
          4   -1    0    0  501    0  0.00000000000E+00  0.00000000000E+00  0.68752844527E+02  0.68764573223E+02  0.12700000000E+01 0. -1.
         -4   -1    0    0    0  501 -0.00000000000E+00 -0.00000000000E+00 -0.56791944570E+02  0.56806142873E+02  0.12700000000E+01 0. -1.
         25    2    1    2    0    0  0.00000000000E+00  0.00000000000E+00  0.11960899957E+02  0.12557071610E+03  0.12499976645E+03 0.  0.
    9000005    1    3    3    0    0  0.35450768838E+02  0.33978618226E+02 -0.32847509627E+02  0.59086905456E+02  0.10000000000E+01 0.  0.
    9000005    1    3    3    0    0 -0.35450768838E+02 -0.33978618226E+02  0.44808409584E+02  0.66483810640E+02  0.10000000000E+01 0.  0.
<mgrwt>
<rscale>  0 0.12499977E+03</rscale>
<asrwt>0</asrwt>
<pdfrwt beam="1">  1        4 0.10579355E-01 0.12499977E+03</pdfrwt>
<pdfrwt beam="2">  1       -4 0.87392166E-02 0.12499977E+03</pdfrwt>
<totfact> 0.10440448E+04</totfact>
</mgrwt>
</event>
<event>
 5    1  0.3199195E-002  0.1250109E+03  0.7818608E-02  0.1235052E+00
          4   -1    0    0  501    0  0.00000000000E+00  0.00000000000E+00  0.36955165842E+02  0.36976981791E+02  0.12700000000E+01 0. -1.
         -4   -1    0    0    0  501 -0.00000000000E+00 -0.00000000000E+00 -0.10566401129E+03  0.10567164323E+03  0.12700000000E+01 0. -1.
         25    2    1    2    0    0  0.00000000000E+00  0.00000000000E+00 -0.68708845452E+02  0.14264862502E+03  0.12501089863E+03 0.  0.
    9000005    1    3    3    0    0 -0.14216093369E+02 -0.20398132946E+02  0.31074400555E+02  0.39809540417E+02  0.10000000000E+01 0.  0.
    9000005    1    3    3    0    0  0.14216093369E+02  0.20398132946E+02 -0.99783246006E+02  0.10283908460E+03  0.10000000000E+01 0.  0.
<mgrwt>
<rscale>  0 0.12501090E+03</rscale>
<asrwt>0</asrwt>
<pdfrwt beam="1">  1        4 0.56876754E-02 0.12501090E+03</pdfrwt>
<pdfrwt beam="2">  1       -4 0.16258267E-01 0.12501090E+03</pdfrwt>
<totfact> 0.10076510E+04</totfact>
</mgrwt>
</event>
<event>
 5    1  0.3199195E-002  0.1250012E+03  0.7818608E-02  0.1235067E+00
          4   -1    0    0  501    0  0.00000000000E+00  0.00000000000E+00  0.25828942152E+03  0.25829254377E+03  0.12700000000E+01 0.  1.
         -4   -1    0    0    0  501 -0.00000000000E+00 -0.00000000000E+00 -0.15093947237E+02  0.15147281710E+02  0.12700000000E+01 0.  1.
         25    2    1    2    0    0  0.00000000000E+00  0.00000000000E+00  0.24319547428E+03  0.27343982548E+03  0.12500119779E+03 0.  0.
    9000005    1    3    3    0    0  0.11511179433E+01  0.32528296483E+02  0.49011505587E+01  0.32930782277E+02  0.10000000000E+01 0.  0.
    9000005    1    3    3    0    0 -0.11511179433E+01 -0.32528296483E+02  0.23829432372E+03  0.24050904320E+03  0.10000000000E+01 0.  0.
<mgrwt>
<rscale>  0 0.12500120E+03</rscale>
<asrwt>0</asrwt>
<pdfrwt beam="1">  1        4 0.39741174E-01 0.12500120E+03</pdfrwt>
<pdfrwt beam="2">  1       -4 0.23264887E-02 0.12500120E+03</pdfrwt>
<totfact> 0.79053951E+03</totfact>
</mgrwt>
</event>
<event>
 5    1  0.3199195E-002  0.1250013E+03  0.7818608E-02  0.1235067E+00
          4   -1    0    0  501    0  0.00000000000E+00  0.00000000000E+00  0.13292672343E+03  0.13293279017E+03  0.12700000000E+01 0. -1.
         -4   -1    0    0    0  501 -0.00000000000E+00 -0.00000000000E+00 -0.29366632660E+02  0.29394081271E+02  0.12700000000E+01 0. -1.
         25    2    1    2    0    0  0.00000000000E+00  0.00000000000E+00  0.10356009077E+03  0.16232687144E+03  0.12500128316E+03 0.  0.
    9000005    1    3    3    0    0  0.58797710395E+02 -0.66841153516E+01  0.25695212557E+02  0.64522027975E+02  0.10000000000E+01 0.  0.
    9000005    1    3    3    0    0 -0.58797710395E+02  0.66841153516E+01  0.77864878211E+02  0.97804843461E+02  0.10000000000E+01 0.  0.
<mgrwt>
<rscale>  0 0.12500128E+03</rscale>
<asrwt>0</asrwt>
<pdfrwt beam="1">  1        4 0.20452844E-01 0.12500128E+03</pdfrwt>
<pdfrwt beam="2">  1       -4 0.45205215E-02 0.12500128E+03</pdfrwt>
<totfact> 0.96893255E+03</totfact>
</mgrwt>
</event>
<event>
 5    1  0.3199195E-002  0.1249966E+03  0.7818608E-02  0.1235075E+00
         -4   -1    0    0    0  501 -0.00000000000E+00  0.00000000000E+00  0.47387689555E+02  0.47404704633E+02  0.12700000000E+01 0. -1.
          4   -1    0    0  501    0  0.00000000000E+00 -0.00000000000E+00 -0.82390569045E+02  0.82400356599E+02  0.12700000000E+01 0. -1.
         25    2    1    2    0    0  0.00000000000E+00  0.00000000000E+00 -0.35002879490E+02  0.12980506123E+03  0.12499660935E+03 0.  0.
    9000005    1    3    3    0    0  0.26878431911E+02 -0.44277095591E+02  0.18802313463E+02  0.55112959343E+02  0.10000000000E+01 0.  0.
    9000005    1    3    3    0    0 -0.26878431911E+02  0.44277095591E+02 -0.53805192953E+02  0.74692101889E+02  0.10000000000E+01 0.  0.
<mgrwt>
<rscale>  0 0.12499661E+03</rscale>
<asrwt>0</asrwt>
<pdfrwt beam="2">  1        4 0.12677534E-01 0.12499661E+03</pdfrwt>
<pdfrwt beam="1">  1       -4 0.72924755E-02 0.12499661E+03</pdfrwt>
<totfact> 0.10349471E+04</totfact>
</mgrwt>
</event>
<event>
 5    1  0.3199195E-002  0.1249760E+03  0.7818608E-02  0.1235107E+00
          4   -1    0    0  501    0  0.00000000000E+00  0.00000000000E+00  0.30983336108E+02  0.31009353692E+02  0.12700000000E+01 0. -1.
         -4   -1    0    0    0  501 -0.00000000000E+00 -0.00000000000E+00 -0.12594539754E+03  0.12595180055E+03  0.12700000000E+01 0. -1.
         25    2    1    2    0    0  0.00000000000E+00  0.00000000000E+00 -0.94962061432E+02  0.15696115424E+03  0.12497604102E+03 0.  0.
    9000005    1    3    3    0    0 -0.88741409326E+01  0.31283534833E+01 -0.12505659994E+03  0.12541407481E+03  0.10000000000E+01 0.  0.
    9000005    1    3    3    0    0  0.88741409326E+01 -0.31283534833E+01  0.30094538504E+02  0.31547079430E+02  0.10000000000E+01 0.  0.
<mgrwt>
<rscale>  0 0.12497604E+03</rscale>
<asrwt>0</asrwt>
<pdfrwt beam="1">  1        4 0.47691611E-02 0.12497604E+03</pdfrwt>
<pdfrwt beam="2">  1       -4 0.19378709E-01 0.12497604E+03</pdfrwt>
<totfact> 0.97984646E+03</totfact>
</mgrwt>
</event>
<event>
 5    1  0.3199195E-002  0.1249991E+03  0.7818608E-02  0.1235071E+00
          4   -1    0    0  501    0  0.00000000000E+00  0.00000000000E+00  0.34298121511E+01  0.36573913370E+01  0.12700000000E+01 0. -1.
         -4   -1    0    0    0  501 -0.00000000000E+00 -0.00000000000E+00 -0.11020942642E+04  0.11020949959E+04  0.12700000000E+01 0. -1.
         25    2    1    2    0    0  0.00000000000E+00  0.00000000000E+00 -0.10986644520E+04  0.11057523872E+04  0.12499905511E+03 0.  0.
    9000005    1    3    3    0    0  0.34697546397E+02 -0.33467440430E+02 -0.90109087526E+03  0.90238005007E+03  0.10000000000E+01 0.  0.
    9000005    1    3    3    0    0 -0.34697546397E+02  0.33467440430E+02 -0.19757357674E+03  0.20337233716E+03  0.10000000000E+01 0.  0.
<mgrwt>
<rscale>  0 0.12499906E+03</rscale>
<asrwt>0</asrwt>
<pdfrwt beam="1">  1        4 0.54522667E-03 0.12499906E+03</pdfrwt>
<pdfrwt beam="2">  1       -4 0.16957025E+00 0.12499906E+03</pdfrwt>
<totfact> 0.27316258E+03</totfact>
</mgrwt>
</event>
<event>
 5    1  0.3199195E-002  0.1250188E+03  0.7818608E-02  0.1235040E+00
         -4   -1    0    0    0  501 -0.00000000000E+00  0.00000000000E+00  0.11229751777E+03  0.11230469891E+03  0.12700000000E+01 0.  1.
          4   -1    0    0  501    0  0.00000000000E+00 -0.00000000000E+00 -0.34775418048E+02  0.34798600552E+02  0.12700000000E+01 0.  1.
         25    2    1    2    0    0  0.00000000000E+00  0.00000000000E+00  0.77522099727E+02  0.14710329947E+03  0.12501881766E+03 0.  0.
    9000005    1    3    3    0    0  0.30153926713E+02  0.54740013432E+02  0.37778124925E+02  0.73033657238E+02  0.10000000000E+01 0.  0.
    9000005    1    3    3    0    0 -0.30153926713E+02 -0.54740013432E+02  0.39743974802E+02  0.74069642228E+02  0.10000000000E+01 0.  0.
<mgrwt>
<rscale>  0 0.12501882E+03</rscale>
<asrwt>0</asrwt>
<pdfrwt beam="2">  1        4 0.53523999E-02 0.12501882E+03</pdfrwt>
<pdfrwt beam="1">  1       -4 0.17278877E-01 0.12501882E+03</pdfrwt>
<totfact> 0.99841975E+03</totfact>
</mgrwt>
</event>
<event>
 5    1  0.3199195E-002  0.1250125E+03  0.7818608E-02  0.1235050E+00
          4   -1    0    0  501    0  0.00000000000E+00  0.00000000000E+00  0.22566816162E+02  0.22602524011E+02  0.12700000000E+01 0.  1.
         -4   -1    0    0    0  501 -0.00000000000E+00 -0.00000000000E+00 -0.17295683999E+03  0.17296150265E+03  0.12700000000E+01 0.  1.
         25    2    1    2    0    0  0.00000000000E+00  0.00000000000E+00 -0.15039002383E+03  0.19556402667E+03  0.12501251640E+03 0.  0.
    9000005    1    3    3    0    0 -0.49574198877E+02 -0.38022762796E+02 -0.77765810059E+02  0.99758974028E+02  0.10000000000E+01 0.  0.
    9000005    1    3    3    0    0  0.49574198877E+02  0.38022762796E+02 -0.72624213772E+02  0.95805052638E+02  0.10000000000E+01 0.  0.
<mgrwt>
<rscale>  0 0.12501252E+03</rscale>
<asrwt>0</asrwt>
<pdfrwt beam="1">  1        4 0.34749234E-02 0.12501252E+03</pdfrwt>
<pdfrwt beam="2">  1       -4 0.26611849E-01 0.12501252E+03</pdfrwt>
<totfact> 0.90862641E+03</totfact>
</mgrwt>
</event>
<event>
 5    1  0.3199195E-002  0.1249943E+03  0.7818608E-02  0.1235078E+00
          4   -1    0    0  501    0  0.00000000000E+00  0.00000000000E+00  0.38538986407E+01  0.40577622814E+01  0.12700000000E+01 0. -1.
         -4   -1    0    0    0  501 -0.00000000000E+00 -0.00000000000E+00 -0.98717203443E+03  0.98717285136E+03  0.12700000000E+01 0. -1.
         25    2    1    2    0    0  0.00000000000E+00  0.00000000000E+00 -0.98331813579E+03  0.99123061364E+03  0.12499429285E+03 0.  0.
    9000005    1    3    3    0    0 -0.34573995216E+01  0.56040694665E+02 -0.70918108087E+03  0.71140095483E+03  0.10000000000E+01 0.  0.
    9000005    1    3    3    0    0  0.34573995216E+01 -0.56040694665E+02 -0.27413705492E+03  0.27982965881E+03  0.10000000000E+01 0.  0.
<mgrwt>
<rscale>  0 0.12499429E+03</rscale>
<asrwt>0</asrwt>
<pdfrwt beam="1">  1        4 0.60865293E-03 0.12499429E+03</pdfrwt>
<pdfrwt beam="2">  1       -4 0.15188817E+00 0.12499429E+03</pdfrwt>
<totfact> 0.30899697E+03</totfact>
</mgrwt>
</event>
<event>
 5    1  0.3199195E-002  0.1250000E+03  0.7818608E-02  0.1235069E+00
         -4   -1    0    0    0  501 -0.00000000000E+00  0.00000000000E+00  0.11502412918E+03  0.11503114011E+03  0.12700000000E+01 0. -1.
          4   -1    0    0  501    0  0.00000000000E+00 -0.00000000000E+00 -0.33940317827E+02  0.33964070342E+02  0.12700000000E+01 0. -1.
         25    2    1    2    0    0  0.00000000000E+00  0.00000000000E+00  0.81083811357E+02  0.14899521045E+03  0.12499995309E+03 0.  0.
    9000005    1    3    3    0    0 -0.27729513464E+02 -0.55503826884E+02  0.31650287416E+02  0.69658749696E+02  0.10000000000E+01 0.  0.
    9000005    1    3    3    0    0  0.27729513464E+02  0.55503826884E+02  0.49433523941E+02  0.79336460754E+02  0.10000000000E+01 0.  0.
<mgrwt>
<rscale>  0 0.12499995E+03</rscale>
<asrwt>0</asrwt>
<pdfrwt beam="2">  1        4 0.52239538E-02 0.12499995E+03</pdfrwt>
<pdfrwt beam="1">  1       -4 0.17698386E-01 0.12499995E+03</pdfrwt>
<totfact> 0.99504470E+03</totfact>
</mgrwt>
</event>
<event>
 5    1  0.3199195E-002  0.1249980E+03  0.7818608E-02  0.1235072E+00
         -4   -1    0    0    0  501 -0.00000000000E+00  0.00000000000E+00  0.35199565718E+02  0.35222469061E+02  0.12700000000E+01 0.  1.
          4   -1    0    0  501    0  0.00000000000E+00 -0.00000000000E+00 -0.11090814970E+03  0.11091542079E+03  0.12700000000E+01 0.  1.
         25    2    1    2    0    0  0.00000000000E+00  0.00000000000E+00 -0.75708583978E+02  0.14613788985E+03  0.12499797263E+03 0.  0.
    9000005    1    3    3    0    0  0.52833347352E+02 -0.21617708530E+02 -0.67579330124E+02  0.88468377257E+02  0.10000000000E+01 0.  0.
    9000005    1    3    3    0    0 -0.52833347352E+02  0.21617708530E+02 -0.81292538538E+01  0.57669512593E+02  0.10000000000E+01 0.  0.
<mgrwt>
<rscale>  0 0.12499797E+03</rscale>
<asrwt>0</asrwt>
<pdfrwt beam="2">  1        4 0.17065113E-01 0.12499797E+03</pdfrwt>
<pdfrwt beam="1">  1       -4 0.54176390E-02 0.12499797E+03</pdfrwt>
<totfact> 0.10008377E+04</totfact>
</mgrwt>
</event>
<event>
 5    1  0.3199195E-002  0.1249828E+03  0.7818608E-02  0.1235096E+00
         -4   -1    0    0    0  501 -0.00000000000E+00  0.00000000000E+00  0.46002431662E+02  0.46019958918E+02  0.12700000000E+01 0.  1.
          4   -1    0    0  501    0  0.00000000000E+00 -0.00000000000E+00 -0.84852182282E+02  0.84861685925E+02  0.12700000000E+01 0.  1.
         25    2    1    2    0    0  0.00000000000E+00  0.00000000000E+00 -0.38849750620E+02  0.13088164484E+03  0.12498280615E+03 0.  0.
    9000005    1    3    3    0    0  0.35412150150E+02  0.45441303383E+02 -0.44758457102E+02  0.72960618922E+02  0.10000000000E+01 0.  0.
    9000005    1    3    3    0    0 -0.35412150150E+02 -0.45441303383E+02  0.59087064817E+01  0.57921025920E+02  0.10000000000E+01 0.  0.
<mgrwt>
<rscale>  0 0.12498281E+03</rscale>
<asrwt>0</asrwt>
<pdfrwt beam="2">  1        4 0.13056261E-01 0.12498281E+03</pdfrwt>
<pdfrwt beam="1">  1       -4 0.70793765E-02 0.12498281E+03</pdfrwt>
<totfact> 0.10329634E+04</totfact>
</mgrwt>
</event>
<event>
 5    1  0.3199195E-002  0.1250032E+03  0.7818608E-02  0.1235064E+00
          4   -1    0    0  501    0  0.00000000000E+00  0.00000000000E+00  0.40743481268E+03  0.40743679201E+03  0.12700000000E+01 0. -1.
         -4   -1    0    0    0  501 -0.00000000000E+00 -0.00000000000E+00 -0.95438425527E+01  0.96279712645E+01  0.12700000000E+01 0. -1.
         25    2    1    2    0    0  0.00000000000E+00  0.00000000000E+00  0.39789097013E+03  0.41706476327E+03  0.12500317059E+03 0.  0.
    9000005    1    3    3    0    0  0.30343324094E+02  0.17319018298E+02  0.26068563401E+02  0.43603161694E+02  0.10000000000E+01 0.  0.
    9000005    1    3    3    0    0 -0.30343324094E+02 -0.17319018298E+02  0.37182240673E+03  0.37346160158E+03  0.10000000000E+01 0.  0.
<mgrwt>
<rscale>  0 0.12500317E+03</rscale>
<asrwt>0</asrwt>
<pdfrwt beam="1">  1        4 0.62688887E-01 0.12500317E+03</pdfrwt>
<pdfrwt beam="2">  1       -4 0.14749075E-02 0.12500317E+03</pdfrwt>
<totfact> 0.62921860E+03</totfact>
</mgrwt>
</event>
<event>
 5    1  0.3199195E-002  0.1249975E+03  0.7818608E-02  0.1235073E+00
         -4   -1    0    0    0  501 -0.00000000000E+00  0.00000000000E+00  0.34809763543E+03  0.34809995216E+03  0.12700000000E+01 0.  1.
          4   -1    0    0  501    0  0.00000000000E+00 -0.00000000000E+00 -0.11182965922E+02  0.11254849036E+02  0.12700000000E+01 0.  1.
         25    2    1    2    0    0  0.00000000000E+00  0.00000000000E+00  0.33691466951E+03  0.35935480120E+03  0.12499751442E+03 0.  0.
    9000005    1    3    3    0    0  0.53675437636E+02  0.30124015606E+02  0.13741568640E+03  0.15057416708E+03  0.10000000000E+01 0.  0.
    9000005    1    3    3    0    0 -0.53675437636E+02 -0.30124015606E+02  0.19949898311E+03  0.20878063412E+03  0.10000000000E+01 0.  0.
<mgrwt>
<rscale>  0 0.12499751E+03</rscale>
<asrwt>0</asrwt>
<pdfrwt beam="2">  1        4 0.17261641E-02 0.12499751E+03</pdfrwt>
<pdfrwt beam="1">  1       -4 0.53559185E-01 0.12499751E+03</pdfrwt>
<totfact> 0.68711306E+03</totfact>
</mgrwt>
</event>
<event>
 5    1  0.3199195E-002  0.1249948E+03  0.7818608E-02  0.1235077E+00
         -4   -1    0    0    0  501 -0.00000000000E+00  0.00000000000E+00  0.16482985978E+02  0.16531839787E+02  0.12700000000E+01 0. -1.
          4   -1    0    0  501    0  0.00000000000E+00 -0.00000000000E+00 -0.23656579639E+03  0.23656920536E+03  0.12700000000E+01 0. -1.
         25    2    1    2    0    0  0.00000000000E+00  0.00000000000E+00 -0.22008281041E+03  0.25310104514E+03  0.12499478234E+03 0.  0.
    9000005    1    3    3    0    0 -0.15831227178E+02 -0.69238825789E+01 -0.23164218269E+03  0.23228790047E+03  0.10000000000E+01 0.  0.
    9000005    1    3    3    0    0  0.15831227178E+02  0.69238825789E+01  0.11559372273E+02  0.20813144675E+02  0.10000000000E+01 0.  0.
<mgrwt>
<rscale>  0 0.12499478E+03</rscale>
<asrwt>0</asrwt>
<pdfrwt beam="2">  1        4 0.36398756E-01 0.12499478E+03</pdfrwt>
<pdfrwt beam="1">  1       -4 0.25398644E-02 0.12499478E+03</pdfrwt>
<totfact> 0.81893603E+03</totfact>
</mgrwt>
</event>
<event>
 5    1  0.3199195E-002  0.1249976E+03  0.7818608E-02  0.1235073E+00
          4   -1    0    0  501    0  0.00000000000E+00  0.00000000000E+00  0.16694399968E+02  0.16742636898E+02  0.12700000000E+01 0.  1.
         -4   -1    0    0    0  501 -0.00000000000E+00 -0.00000000000E+00 -0.23358922350E+03  0.23359267590E+03  0.12700000000E+01 0.  1.
         25    2    1    2    0    0  0.00000000000E+00  0.00000000000E+00 -0.21689482353E+03  0.25033531280E+03  0.12499761741E+03 0.  0.
    9000005    1    3    3    0    0 -0.51435134906E+02 -0.16599359761E+02 -0.17126996118E+03  0.17959819446E+03  0.10000000000E+01 0.  0.
    9000005    1    3    3    0    0  0.51435134906E+02  0.16599359761E+02 -0.45624862343E+02  0.70737118341E+02  0.10000000000E+01 0.  0.
<mgrwt>
<rscale>  0 0.12499762E+03</rscale>
<asrwt>0</asrwt>
<pdfrwt beam="1">  1        4 0.25723455E-02 0.12499762E+03</pdfrwt>
<pdfrwt beam="2">  1       -4 0.35940778E-01 0.12499762E+03</pdfrwt>
<totfact> 0.82286157E+03</totfact>
</mgrwt>
</event>
<event>
 5    1  0.3199195E-002  0.1250002E+03  0.7818608E-02  0.1235069E+00
          4   -1    0    0  501    0  0.00000000000E+00  0.00000000000E+00  0.33656361770E+02  0.33680314541E+02  0.12700000000E+01 0.  1.
         -4   -1    0    0    0  501 -0.00000000000E+00 -0.00000000000E+00 -0.11599444405E+03  0.11600139633E+03  0.12700000000E+01 0.  1.
         25    2    1    2    0    0  0.00000000000E+00  0.00000000000E+00 -0.82338082284E+02  0.14968171087E+03  0.12500021910E+03 0.  0.
    9000005    1    3    3    0    0  0.26861267585E+00  0.62246303763E+02 -0.34546234310E+02  0.71197730230E+02  0.10000000000E+01 0.  0.
    9000005    1    3    3    0    0 -0.26861267585E+00 -0.62246303763E+02 -0.47791847974E+02  0.78483980644E+02  0.10000000000E+01 0.  0.
<mgrwt>
<rscale>  0 0.12500022E+03</rscale>
<asrwt>0</asrwt>
<pdfrwt beam="1">  1        4 0.51802792E-02 0.12500022E+03</pdfrwt>
<pdfrwt beam="2">  1       -4 0.17847676E-01 0.12500022E+03</pdfrwt>
<totfact> 0.99366692E+03</totfact>
</mgrwt>
</event>
<event>
 5    1  0.3199195E-002  0.1249999E+03  0.7818608E-02  0.1235069E+00
          4   -1    0    0  501    0  0.00000000000E+00  0.00000000000E+00  0.91000261913E+02  0.91009123544E+02  0.12700000000E+01 0.  1.
         -4   -1    0    0    0  501 -0.00000000000E+00 -0.00000000000E+00 -0.42905258850E+02  0.42924050799E+02  0.12700000000E+01 0.  1.
         25    2    1    2    0    0  0.00000000000E+00  0.00000000000E+00  0.48095003063E+02  0.13393317434E+03  0.12499986348E+03 0.  0.
    9000005    1    3    3    0    0 -0.13349273954E+02 -0.35603814154E+02  0.77184106839E+02  0.86047783504E+02  0.10000000000E+01 0.  0.
    9000005    1    3    3    0    0  0.13349273954E+02  0.35603814154E+02 -0.29089103776E+02  0.47885390840E+02  0.10000000000E+01 0.  0.
<mgrwt>
<rscale>  0 0.12499986E+03</rscale>
<asrwt>0</asrwt>
<pdfrwt beam="1">  1        4 0.14002167E-01 0.12499986E+03</pdfrwt>
<pdfrwt beam="2">  1       -4 0.66029363E-02 0.12499986E+03</pdfrwt>
<totfact> 0.10260638E+04</totfact>
</mgrwt>
</event>
<event>
 5    1  0.3199195E-002  0.1250130E+03  0.7818608E-02  0.1235049E+00
         -4   -1    0    0    0  501 -0.00000000000E+00  0.00000000000E+00  0.20575760043E+03  0.20576151982E+03  0.12700000000E+01 0. -1.
          4   -1    0    0  501    0  0.00000000000E+00 -0.00000000000E+00 -0.18963315735E+02  0.19005795002E+02  0.12700000000E+01 0. -1.
         25    2    1    2    0    0  0.00000000000E+00  0.00000000000E+00  0.18679428470E+03  0.22476731482E+03  0.12501296338E+03 0.  0.
    9000005    1    3    3    0    0 -0.56305416319E+02 -0.48356590087E+01  0.14138517826E+03  0.15226441520E+03  0.10000000000E+01 0.  0.
    9000005    1    3    3    0    0  0.56305416319E+02  0.48356590087E+01  0.45409106437E+02  0.72502899613E+02  0.10000000000E+01 0.  0.
<mgrwt>
<rscale>  0 0.12501296E+03</rscale>
<asrwt>0</asrwt>
<pdfrwt beam="2">  1        4 0.29210022E-02 0.12501296E+03</pdfrwt>
<pdfrwt beam="1">  1       -4 0.31658586E-01 0.12501296E+03</pdfrwt>
<totfact> 0.86094637E+03</totfact>
</mgrwt>
</event>
<event>
 5    1  0.3199195E-002  0.1250135E+03  0.7818608E-02  0.1235048E+00
          4   -1    0    0  501    0  0.00000000000E+00  0.00000000000E+00  0.19831765482E+02  0.19872388435E+02  0.12700000000E+01 0. -1.
         -4   -1    0    0    0  501 -0.00000000000E+00 -0.00000000000E+00 -0.19676779949E+03  0.19677189793E+03  0.12700000000E+01 0. -1.
         25    2    1    2    0    0  0.00000000000E+00  0.00000000000E+00 -0.17693603401E+03  0.21664428637E+03  0.12501354601E+03 0.  0.
    9000005    1    3    3    0    0  0.39257730904E+02 -0.45268118670E+02 -0.57675554371E+02  0.83173562961E+02  0.10000000000E+01 0.  0.
    9000005    1    3    3    0    0 -0.39257730904E+02  0.45268118670E+02 -0.11926047964E+03  0.13347072341E+03  0.10000000000E+01 0.  0.
<mgrwt>
<rscale>  0 0.12501355E+03</rscale>
<asrwt>0</asrwt>
<pdfrwt beam="1">  1        4 0.30544811E-02 0.12501355E+03</pdfrwt>
<pdfrwt beam="2">  1       -4 0.30275408E-01 0.12501355E+03</pdfrwt>
<totfact> 0.87375701E+03</totfact>
</mgrwt>
</event>
<event>
 5    1  0.3199195E-002  0.1249959E+03  0.7818608E-02  0.1235076E+00
         -4   -1    0    0    0  501 -0.00000000000E+00  0.00000000000E+00  0.38446646732E+01  0.40489932637E+01  0.12700000000E+01 0.  1.
          4   -1    0    0  501    0  0.00000000000E+00 -0.00000000000E+00 -0.98944871442E+03  0.98944952947E+03  0.12700000000E+01 0.  1.
         25    2    1    2    0    0  0.00000000000E+00  0.00000000000E+00 -0.98560404975E+03  0.99349852274E+03  0.12499588712E+03 0.  0.
    9000005    1    3    3    0    0 -0.15791568725E+02  0.56711877349E+02 -0.65940884231E+03  0.66203219860E+03  0.10000000000E+01 0.  0.
    9000005    1    3    3    0    0  0.15791568725E+02 -0.56711877349E+02 -0.32619520744E+03  0.33146632413E+03  0.10000000000E+01 0.  0.
<mgrwt>
<rscale>  0 0.12499589E+03</rscale>
<asrwt>0</asrwt>
<pdfrwt beam="2">  1        4 0.15223846E+00 0.12499589E+03</pdfrwt>
<pdfrwt beam="1">  1       -4 0.60726794E-03 0.12499589E+03</pdfrwt>
<totfact> 0.30822930E+03</totfact>
</mgrwt>
</event>
<event>
 5    1  0.3199195E-002  0.1249997E+03  0.7818608E-02  0.1235070E+00
          4   -1    0    0  501    0  0.00000000000E+00  0.00000000000E+00  0.15835480166E+02  0.15886325317E+02  0.12700000000E+01 0.  1.
         -4   -1    0    0    0  501 -0.00000000000E+00 -0.00000000000E+00 -0.24622796721E+03  0.24623124241E+03  0.12700000000E+01 0.  1.
         25    2    1    2    0    0  0.00000000000E+00  0.00000000000E+00 -0.23039248705E+03  0.26211756773E+03  0.12499968489E+03 0.  0.
    9000005    1    3    3    0    0  0.31529951820E+02  0.40307014402E+02 -0.19040726346E+03  0.19716672957E+03  0.10000000000E+01 0.  0.
    9000005    1    3    3    0    0 -0.31529951820E+02 -0.40307014402E+02 -0.39985223594E+02  0.64950838159E+02  0.10000000000E+01 0.  0.
<mgrwt>
<rscale>  0 0.12499968E+03</rscale>
<asrwt>0</asrwt>
<pdfrwt beam="1">  1        4 0.24403910E-02 0.12499968E+03</pdfrwt>
<pdfrwt beam="2">  1       -4 0.37885386E-01 0.12499968E+03</pdfrwt>
<totfact> 0.80610372E+03</totfact>
</mgrwt>
</event>
<event>
 5    1  0.3199195E-002  0.1250092E+03  0.7818608E-02  0.1235055E+00
          4   -1    0    0  501    0  0.00000000000E+00  0.00000000000E+00  0.14942732865E+02  0.14996605132E+02  0.12700000000E+01 0.  1.
         -4   -1    0    0    0  501 -0.00000000000E+00 -0.00000000000E+00 -0.26092711665E+03  0.26093020734E+03  0.12700000000E+01 0.  1.
         25    2    1    2    0    0  0.00000000000E+00  0.00000000000E+00 -0.24598438378E+03  0.27592681247E+03  0.12500915477E+03 0.  0.
    9000005    1    3    3    0    0 -0.38391174961E+02  0.26231352375E+02 -0.21516597211E+03  0.22013487165E+03  0.10000000000E+01 0.  0.
    9000005    1    3    3    0    0  0.38391174961E+02 -0.26231352375E+02 -0.30818411669E+02  0.55791940817E+02  0.10000000000E+01 0.  0.
<mgrwt>
<rscale>  0 0.12500915E+03</rscale>
<asrwt>0</asrwt>
<pdfrwt beam="1">  1        4 0.23032639E-02 0.12500915E+03</pdfrwt>
<pdfrwt beam="2">  1       -4 0.40147012E-01 0.12500915E+03</pdfrwt>
<totfact> 0.78705278E+03</totfact>
</mgrwt>
</event>
<event>
 5    1  0.3199195E-002  0.1250017E+03  0.7818608E-02  0.1235067E+00
         -4   -1    0    0    0  501 -0.00000000000E+00  0.00000000000E+00  0.11241150349E+03  0.11241867735E+03  0.12700000000E+01 0. -1.
          4   -1    0    0  501    0  0.00000000000E+00 -0.00000000000E+00 -0.34730621554E+02  0.34753833940E+02  0.12700000000E+01 0. -1.
         25    2    1    2    0    0  0.00000000000E+00  0.00000000000E+00  0.77680881940E+02  0.14717251129E+03  0.12500171463E+03 0.  0.
    9000005    1    3    3    0    0  0.23979620298E+02 -0.39836989400E+02  0.87999428554E+02  0.99533448347E+02  0.10000000000E+01 0.  0.
    9000005    1    3    3    0    0 -0.23979620298E+02  0.39836989400E+02 -0.10318546614E+02  0.47639062946E+02  0.10000000000E+01 0.  0.
<mgrwt>
<rscale>  0 0.12500171E+03</rscale>
<asrwt>0</asrwt>
<pdfrwt beam="2">  1        4 0.53455099E-02 0.12500171E+03</pdfrwt>
<pdfrwt beam="1">  1       -4 0.17296415E-01 0.12500171E+03</pdfrwt>
<totfact> 0.99866476E+03</totfact>
</mgrwt>
</event>
<event>
 5    1  0.3199195E-002  0.1250014E+03  0.7818608E-02  0.1235067E+00
         -4   -1    0    0    0  501 -0.00000000000E+00  0.00000000000E+00  0.90238695259E+02  0.90247631670E+02  0.12700000000E+01 0.  1.
          4   -1    0    0  501    0  0.00000000000E+00 -0.00000000000E+00 -0.43268576987E+02  0.43287211212E+02  0.12700000000E+01 0.  1.
         25    2    1    2    0    0  0.00000000000E+00  0.00000000000E+00  0.46970118271E+02  0.13353484288E+03  0.12500144900E+03 0.  0.
    9000005    1    3    3    0    0 -0.53957844661E+02 -0.13471154850E+02  0.53933827841E+02  0.77477601919E+02  0.10000000000E+01 0.  0.
    9000005    1    3    3    0    0  0.53957844661E+02  0.13471154850E+02 -0.69637095699E+01  0.56057240963E+02  0.10000000000E+01 0.  0.
<mgrwt>
<rscale>  0 0.12500145E+03</rscale>
<asrwt>0</asrwt>
<pdfrwt beam="2">  1        4 0.66588250E-02 0.12500145E+03</pdfrwt>
<pdfrwt beam="1">  1       -4 0.13884997E-01 0.12500145E+03</pdfrwt>
<totfact> 0.10268710E+04</totfact>
</mgrwt>
</event>
<event>
 5    1  0.3199195E-002  0.1250050E+03  0.7818608E-02  0.1235061E+00
          4   -1    0    0  501    0  0.00000000000E+00  0.00000000000E+00  0.16411847912E+03  0.16412339287E+03  0.12700000000E+01 0.  1.
         -4   -1    0    0    0  501 -0.00000000000E+00 -0.00000000000E+00 -0.23781087854E+02  0.23814975111E+02  0.12700000000E+01 0.  1.
         25    2    1    2    0    0  0.00000000000E+00  0.00000000000E+00  0.14033739126E+03  0.18793836798E+03  0.12500498699E+03 0.  0.
    9000005    1    3    3    0    0 -0.10116985479E+02 -0.56654118956E+02  0.10679604264E+03  0.12131956690E+03  0.10000000000E+01 0.  0.
    9000005    1    3    3    0    0  0.10116985479E+02  0.56654118956E+02  0.33541348622E+02  0.66618801079E+02  0.10000000000E+01 0.  0.
<mgrwt>
<rscale>  0 0.12500499E+03</rscale>
<asrwt>0</asrwt>
<pdfrwt beam="1">  1        4 0.25251981E-01 0.12500499E+03</pdfrwt>
<pdfrwt beam="2">  1       -4 0.36616137E-02 0.12500499E+03</pdfrwt>
<totfact> 0.92196973E+03</totfact>
</mgrwt>
</event>
<event>
 5    1  0.3199195E-002  0.1249987E+03  0.7818608E-02  0.1235071E+00
         -4   -1    0    0    0  501 -0.00000000000E+00  0.00000000000E+00  0.13797689228E+04  0.13797695073E+04  0.12700000000E+01 0. -1.
          4   -1    0    0  501    0  0.00000000000E+00 -0.00000000000E+00 -0.26879879637E+01  0.29729075487E+01  0.12700000000E+01 0. -1.
         25    2    1    2    0    0  0.00000000000E+00  0.00000000000E+00  0.13770809348E+04  0.13827424148E+04  0.12499873872E+03 0.  0.
    9000005    1    3    3    0    0 -0.21263147176E+01  0.60222675482E+02  0.87160966148E+03  0.87369084569E+03  0.10000000000E+01 0.  0.
    9000005    1    3    3    0    0  0.21263147176E+01 -0.60222675482E+02  0.50547127336E+03  0.50905156914E+03  0.10000000000E+01 0.  0.
<mgrwt>
<rscale>  0 0.12499874E+03</rscale>
<asrwt>0</asrwt>
<pdfrwt beam="2">  1        4 0.43549890E-03 0.12499874E+03</pdfrwt>
<pdfrwt beam="1">  1       -4 0.21229389E+00 0.12499874E+03</pdfrwt>
<totfact> 0.20354904E+03</totfact>
</mgrwt>
</event>
<event>
 5    1  0.3199195E-002  0.1250028E+03  0.7818608E-02  0.1235065E+00
          4   -1    0    0  501    0  0.00000000000E+00  0.00000000000E+00  0.10806775819E+03  0.10807522038E+03  0.12700000000E+01 0. -1.
         -4   -1    0    0    0  501 -0.00000000000E+00 -0.00000000000E+00 -0.36128074952E+02  0.36150390036E+02  0.12700000000E+01 0. -1.
         25    2    1    2    0    0  0.00000000000E+00  0.00000000000E+00  0.71939683233E+02  0.14422561041E+03  0.12500283467E+03 0.  0.
    9000005    1    3    3    0    0  0.20937463533E+02 -0.36256878601E+02  0.89499312244E+02  0.98813286137E+02  0.10000000000E+01 0.  0.
    9000005    1    3    3    0    0 -0.20937463533E+02  0.36256878601E+02 -0.17559629011E+02  0.45412324275E+02  0.10000000000E+01 0.  0.
<mgrwt>
<rscale>  0 0.12500283E+03</rscale>
<asrwt>0</asrwt>
<pdfrwt beam="1">  1        4 0.16628099E-01 0.12500283E+03</pdfrwt>
<pdfrwt beam="2">  1       -4 0.55604560E-02 0.12500283E+03</pdfrwt>
<totfact> 0.10046105E+04</totfact>
</mgrwt>
</event>
<event>
 5    1  0.3199195E-002  0.1249981E+03  0.7818608E-02  0.1235072E+00
          4   -1    0    0  501    0  0.00000000000E+00  0.00000000000E+00  0.42193621771E+02  0.42212730523E+02  0.12700000000E+01 0. -1.
         -4   -1    0    0    0  501 -0.00000000000E+00 -0.00000000000E+00 -0.92531939661E+02  0.92540654620E+02  0.12700000000E+01 0. -1.
         25    2    1    2    0    0  0.00000000000E+00  0.00000000000E+00 -0.50338317890E+02  0.13475338514E+03  0.12499811422E+03 0.  0.
    9000005    1    3    3    0    0  0.14948612399E+02 -0.11049051867E+02  0.39149382334E+02  0.43349933068E+02  0.10000000000E+01 0.  0.
    9000005    1    3    3    0    0 -0.14948612399E+02  0.11049051867E+02 -0.89487700224E+02  0.91403452075E+02  0.10000000000E+01 0.  0.
<mgrwt>
<rscale>  0 0.12499811E+03</rscale>
<asrwt>0</asrwt>
<pdfrwt beam="1">  1        4 0.64934667E-02 0.12499811E+03</pdfrwt>
<pdfrwt beam="2">  1       -4 0.14237823E-01 0.12499811E+03</pdfrwt>
<totfact> 0.10243707E+04</totfact>
</mgrwt>
</event>
<event>
 5    1  0.3199195E-002  0.1250010E+03  0.7818608E-02  0.1235068E+00
          4   -1    0    0  501    0  0.00000000000E+00  0.00000000000E+00  0.10636694676E+03  0.10637452826E+03  0.12700000000E+01 0. -1.
         -4   -1    0    0    0  501 -0.00000000000E+00 -0.00000000000E+00 -0.36705019735E+02  0.36726984273E+02  0.12700000000E+01 0. -1.
         25    2    1    2    0    0  0.00000000000E+00  0.00000000000E+00  0.69661927021E+02  0.14310151253E+03  0.12500103525E+03 0.  0.
    9000005    1    3    3    0    0 -0.17709639308E+02 -0.81681412105E+01  0.10279951421E+03  0.10463789934E+03  0.10000000000E+01 0.  0.
    9000005    1    3    3    0    0  0.17709639308E+02  0.81681412105E+01 -0.33137587191E+02  0.38463613196E+02  0.10000000000E+01 0.  0.
<mgrwt>
<rscale>  0 0.12500104E+03</rscale>
<asrwt>0</asrwt>
<pdfrwt beam="1">  1        4 0.16366418E-01 0.12500104E+03</pdfrwt>
<pdfrwt beam="2">  1       -4 0.56491990E-02 0.12500104E+03</pdfrwt>
<totfact> 0.10069470E+04</totfact>
</mgrwt>
</event>
<event>
 5    1  0.3199195E-002  0.1249995E+03  0.7818608E-02  0.1235070E+00
         -4   -1    0    0    0  501 -0.00000000000E+00  0.00000000000E+00  0.43121087935E+02  0.43139785867E+02  0.12700000000E+01 0. -1.
          4   -1    0    0  501    0  0.00000000000E+00 -0.00000000000E+00 -0.90544469517E+02  0.90553375752E+02  0.12700000000E+01 0. -1.
         25    2    1    2    0    0  0.00000000000E+00  0.00000000000E+00 -0.47423381582E+02  0.13369316162E+03  0.12499953737E+03 0.  0.
    9000005    1    3    3    0    0  0.19552948523E+02  0.52320210195E+02  0.62643021135E+01  0.56213554164E+02  0.10000000000E+01 0.  0.
    9000005    1    3    3    0    0 -0.19552948523E+02 -0.52320210195E+02 -0.53687683696E+02  0.77479607455E+02  0.10000000000E+01 0.  0.
<mgrwt>
<rscale>  0 0.12499954E+03</rscale>
<asrwt>0</asrwt>
<pdfrwt beam="2">  1        4 0.13932042E-01 0.12499954E+03</pdfrwt>
<pdfrwt beam="1">  1       -4 0.66361369E-02 0.12499954E+03</pdfrwt>
<totfact> 0.10265797E+04</totfact>
</mgrwt>
</event>
<event>
 5    1  0.3199195E-002  0.1250000E+03  0.7818608E-02  0.1235069E+00
          4   -1    0    0  501    0  0.00000000000E+00  0.00000000000E+00  0.15199925066E+03  0.15200455618E+03  0.12700000000E+01 0.  1.
         -4   -1    0    0    0  501 -0.00000000000E+00 -0.00000000000E+00 -0.25677696627E+02  0.25709084076E+02  0.12700000000E+01 0.  1.
         25    2    1    2    0    0  0.00000000000E+00  0.00000000000E+00  0.12632155403E+03  0.17771364026E+03  0.12500001169E+03 0.  0.
    9000005    1    3    3    0    0 -0.59611494620E+02 -0.18597320594E+02  0.66602401260E+02  0.91303178903E+02  0.10000000000E+01 0.  0.
    9000005    1    3    3    0    0  0.59611494620E+02  0.18597320594E+02  0.59719152770E+02  0.86410461356E+02  0.10000000000E+01 0.  0.
<mgrwt>
<rscale>  0 0.12500001E+03</rscale>
<asrwt>0</asrwt>
<pdfrwt beam="1">  1        4 0.23387323E-01 0.12500001E+03</pdfrwt>
<pdfrwt beam="2">  1       -4 0.39532374E-02 0.12500001E+03</pdfrwt>
<totfact> 0.94030157E+03</totfact>
</mgrwt>
</event>
<event>
 5    1  0.3199195E-002  0.1250030E+03  0.7818608E-02  0.1235065E+00
          4   -1    0    0  501    0  0.00000000000E+00  0.00000000000E+00  0.15250204784E+03  0.15250733587E+03  0.12700000000E+01 0. -1.
         -4   -1    0    0    0  501 -0.00000000000E+00 -0.00000000000E+00 -0.25594150391E+02  0.25625640172E+02  0.12700000000E+01 0. -1.
         25    2    1    2    0    0  0.00000000000E+00  0.00000000000E+00  0.12690789745E+03  0.17813297604E+03  0.12500297084E+03 0.  0.
    9000005    1    3    3    0    0 -0.33472099618E+02  0.52773059507E+02  0.63109523715E+02  0.88821108111E+02  0.10000000000E+01 0.  0.
    9000005    1    3    3    0    0  0.33472099618E+02 -0.52773059507E+02  0.63798373730E+02  0.89311867931E+02  0.10000000000E+01 0.  0.
<mgrwt>
<rscale>  0 0.12500297E+03</rscale>
<asrwt>0</asrwt>
<pdfrwt beam="1">  1        4 0.23464683E-01 0.12500297E+03</pdfrwt>
<pdfrwt beam="2">  1       -4 0.39403905E-02 0.12500297E+03</pdfrwt>
<totfact> 0.93947897E+03</totfact>
</mgrwt>
</event>
<event>
 5    1  0.3199195E-002  0.1249977E+03  0.7818608E-02  0.1235073E+00
          4   -1    0    0  501    0  0.00000000000E+00  0.00000000000E+00  0.20069878116E+01  0.23750579100E+01  0.12700000000E+01 0. -1.
         -4   -1    0    0    0  501 -0.00000000000E+00 -0.00000000000E+00 -0.17824105827E+04  0.17824110351E+04  0.12700000000E+01 0. -1.
         25    2    1    2    0    0  0.00000000000E+00  0.00000000000E+00 -0.17804035949E+04  0.17847860930E+04  0.12499774912E+03 0.  0.
    9000005    1    3    3    0    0 -0.70564568680E+01 -0.24149401030E+02 -0.73433757042E+02  0.77630559878E+02  0.10000000000E+01 0.  0.
    9000005    1    3    3    0    0  0.70564568680E+01  0.24149401030E+02 -0.17069698378E+04  0.17071555332E+04  0.10000000000E+01 0.  0.
<mgrwt>
<rscale>  0 0.12499775E+03</rscale>
<asrwt>0</asrwt>
<pdfrwt beam="1">  1        4 0.33711667E-03 0.12499775E+03</pdfrwt>
<pdfrwt beam="2">  1       -4 0.27424420E+00 0.12499775E+03</pdfrwt>
<totfact> 0.12940100E+03</totfact>
</mgrwt>
</event>
<event>
 5    1  0.3199195E-002  0.1249953E+03  0.7818608E-02  0.1235077E+00
          4   -1    0    0  501    0  0.00000000000E+00  0.00000000000E+00  0.40825634616E+02  0.40845383359E+02  0.12700000000E+01 0.  1.
         -4   -1    0    0    0  501 -0.00000000000E+00 -0.00000000000E+00 -0.95626948842E+02  0.95635381762E+02  0.12700000000E+01 0.  1.
         25    2    1    2    0    0  0.00000000000E+00  0.00000000000E+00 -0.54801314226E+02  0.13648076512E+03  0.12499526074E+03 0.  0.
    9000005    1    3    3    0    0  0.21835836814E+02 -0.64678664115E+01 -0.90939849471E+02  0.93753364137E+02  0.10000000000E+01 0.  0.
    9000005    1    3    3    0    0 -0.21835836814E+02  0.64678664115E+01  0.36138535244E+02  0.42727400984E+02  0.10000000000E+01 0.  0.
<mgrwt>
<rscale>  0 0.12499526E+03</rscale>
<asrwt>0</asrwt>
<pdfrwt beam="1">  1        4 0.62830347E-02 0.12499526E+03</pdfrwt>
<pdfrwt beam="2">  1       -4 0.14714006E-01 0.12499526E+03</pdfrwt>
<totfact> 0.10208044E+04</totfact>
</mgrwt>
</event>
<event>
 5    1  0.3199195E-002  0.1249947E+03  0.7818608E-02  0.1235078E+00
          4   -1    0    0  501    0  0.00000000000E+00  0.00000000000E+00  0.14059378959E+02  0.14116622710E+02  0.12700000000E+01 0. -1.
         -4   -1    0    0    0  501 -0.00000000000E+00 -0.00000000000E+00 -0.27719282017E+03  0.27719572950E+03  0.12700000000E+01 0. -1.
         25    2    1    2    0    0  0.00000000000E+00  0.00000000000E+00 -0.26313344121E+03  0.29131235221E+03  0.12499471456E+03 0.  0.
    9000005    1    3    3    0    0 -0.58279992035E+02 -0.20386815533E+01 -0.18389919189E+03  0.19292647944E+03  0.10000000000E+01 0.  0.
    9000005    1    3    3    0    0  0.58279992035E+02  0.20386815533E+01 -0.79234249319E+02  0.98385872762E+02  0.10000000000E+01 0.  0.
<mgrwt>
<rscale>  0 0.12499471E+03</rscale>
<asrwt>0</asrwt>
<pdfrwt beam="1">  1        4 0.21676088E-02 0.12499471E+03</pdfrwt>
<pdfrwt beam="2">  1       -4 0.42649672E-01 0.12499471E+03</pdfrwt>
<totfact> 0.76710693E+03</totfact>
</mgrwt>
</event>
<event>
 5    1  0.3199195E-002  0.1249980E+03  0.7818608E-02  0.1235072E+00
          4   -1    0    0  501    0  0.00000000000E+00  0.00000000000E+00  0.92982431372E+01  0.93845738017E+01  0.12700000000E+01 0.  1.
         -4   -1    0    0    0  501 -0.00000000000E+00 -0.00000000000E+00 -0.41806415196E+03  0.41806608096E+03  0.12700000000E+01 0.  1.
         25    2    1    2    0    0  0.00000000000E+00  0.00000000000E+00 -0.40876590882E+03  0.42745065477E+03  0.12499797616E+03 0.  0.
    9000005    1    3    3    0    0  0.29066015219E+02 -0.11914459019E+02 -0.38911857626E+03  0.39038577582E+03  0.10000000000E+01 0.  0.
    9000005    1    3    3    0    0 -0.29066015219E+02  0.11914459019E+02 -0.19647332565E+02  0.37064878947E+02  0.10000000000E+01 0.  0.
<mgrwt>
<rscale>  0 0.12499798E+03</rscale>
<asrwt>0</asrwt>
<pdfrwt beam="1">  1        4 0.14372885E-02 0.12499798E+03</pdfrwt>
<pdfrwt beam="2">  1       -4 0.64324337E-01 0.12499798E+03</pdfrwt>
<totfact> 0.61970527E+03</totfact>
</mgrwt>
</event>
<event>
 5    1  0.3199195E-002  0.1250007E+03  0.7818608E-02  0.1235068E+00
          4   -1    0    0  501    0  0.00000000000E+00  0.00000000000E+00  0.14515837244E+04  0.14515842800E+04  0.12700000000E+01 0.  1.
         -4   -1    0    0    0  501 -0.00000000000E+00 -0.00000000000E+00 -0.25406295044E+01  0.28403693912E+01  0.12700000000E+01 0.  1.
         25    2    1    2    0    0  0.00000000000E+00  0.00000000000E+00  0.14490430949E+04  0.14544246494E+04  0.12500067917E+03 0.  0.
    9000005    1    3    3    0    0  0.30012191811E+02 -0.12739526729E+02  0.13448349380E+04  0.13452304775E+04  0.10000000000E+01 0.  0.
    9000005    1    3    3    0    0 -0.30012191811E+02  0.12739526729E+02  0.10420815692E+03  0.10919417186E+03  0.10000000000E+01 0.  0.
<mgrwt>
<rscale>  0 0.12500068E+03</rscale>
<asrwt>0</asrwt>
<pdfrwt beam="1">  1        4 0.22334371E+00 0.12500068E+03</pdfrwt>
<pdfrwt beam="2">  1       -4 0.41396565E-03 0.12500068E+03</pdfrwt>
<totfact> 0.18842004E+03</totfact>
</mgrwt>
</event>
<event>
 5    1  0.3199195E-002  0.1250031E+03  0.7818608E-02  0.1235064E+00
         -4   -1    0    0    0  501 -0.00000000000E+00  0.00000000000E+00  0.81964061034E+03  0.81964159425E+03  0.12700000000E+01 0. -1.
          4   -1    0    0  501    0  0.00000000000E+00 -0.00000000000E+00 -0.46804344799E+01  0.48496769914E+01  0.12700000000E+01 0. -1.
         25    2    1    2    0    0  0.00000000000E+00  0.00000000000E+00  0.81496017586E+03  0.82449127124E+03  0.12500307240E+03 0.  0.
    9000005    1    3    3    0    0 -0.48254676466E+02 -0.12832743239E+02  0.15961178033E+03  0.16724267853E+03  0.10000000000E+01 0.  0.
    9000005    1    3    3    0    0  0.48254676466E+02  0.12832743239E+02  0.65534839553E+03  0.65724859271E+03  0.10000000000E+01 0.  0.
<mgrwt>
<rscale>  0 0.12500307E+03</rscale>
<asrwt>0</asrwt>
<pdfrwt beam="2">  1        4 0.73316230E-03 0.12500307E+03</pdfrwt>
<pdfrwt beam="1">  1       -4 0.12611146E+00 0.12500307E+03</pdfrwt>
<totfact> 0.37192033E+03</totfact>
</mgrwt>
</event>
<event>
 5    1  0.3199195E-002  0.1250023E+03  0.7818608E-02  0.1235066E+00
         -4   -1    0    0    0  501 -0.00000000000E+00  0.00000000000E+00  0.54778481035E+01  0.56231414569E+01  0.12700000000E+01 0.  1.
          4   -1    0    0  501    0  0.00000000000E+00 -0.00000000000E+00 -0.70364638890E+03  0.70364753500E+03  0.12700000000E+01 0.  1.
         25    2    1    2    0    0  0.00000000000E+00  0.00000000000E+00 -0.69816854079E+03  0.70927067645E+03  0.12500232447E+03 0.  0.
    9000005    1    3    3    0    0  0.14912912290E+02  0.54222016055E+02 -0.50374516589E+03  0.50687534379E+03  0.10000000000E+01 0.  0.
    9000005    1    3    3    0    0 -0.14912912290E+02 -0.54222016055E+02 -0.19442337490E+03  0.20239533267E+03  0.10000000000E+01 0.  0.
<mgrwt>
<rscale>  0 0.12500232E+03</rscale>
<asrwt>0</asrwt>
<pdfrwt beam="2">  1        4 0.10826448E+00 0.12500232E+03</pdfrwt>
<pdfrwt beam="1">  1       -4 0.85401099E-03 0.12500232E+03</pdfrwt>
<totfact> 0.42599666E+03</totfact>
</mgrwt>
</event>
<event>
 5    1  0.3199195E-002  0.1250003E+03  0.7818608E-02  0.1235069E+00
         -4   -1    0    0    0  501 -0.00000000000E+00  0.00000000000E+00  0.20808091115E+02  0.20846811647E+02  0.12700000000E+01 0. -1.
          4   -1    0    0  501    0  0.00000000000E+00 -0.00000000000E+00 -0.18751311049E+03  0.18751741121E+03  0.12700000000E+01 0. -1.
         25    2    1    2    0    0  0.00000000000E+00  0.00000000000E+00 -0.16670501938E+03  0.20836422285E+03  0.12500034352E+03 0.  0.
    9000005    1    3    3    0    0 -0.62321537434E+02  0.74978440592E+00 -0.75762073329E+02  0.98109265413E+02  0.10000000000E+01 0.  0.
    9000005    1    3    3    0    0  0.62321537434E+02 -0.74978440592E+00 -0.90942946048E+02  0.11025495744E+03  0.10000000000E+01 0.  0.
<mgrwt>
<rscale>  0 0.12500034E+03</rscale>
<asrwt>0</asrwt>
<pdfrwt beam="2">  1        4 0.28851479E-01 0.12500034E+03</pdfrwt>
<pdfrwt beam="1">  1       -4 0.32045542E-02 0.12500034E+03</pdfrwt>
<totfact> 0.88743042E+03</totfact>
</mgrwt>
</event>
<event>
 5    1  0.3199195E-002  0.1250127E+03  0.7818608E-02  0.1235049E+00
         -4   -1    0    0    0  501 -0.00000000000E+00  0.00000000000E+00  0.36202792529E+01  0.38365768426E+01  0.12700000000E+01 0.  1.
          4   -1    0    0  501    0  0.00000000000E+00 -0.00000000000E+00 -0.10476902285E+04  0.10476909982E+04  0.12700000000E+01 0.  1.
         25    2    1    2    0    0  0.00000000000E+00  0.00000000000E+00 -0.10440699493E+04  0.10515275751E+04  0.12501272831E+03 0.  0.
    9000005    1    3    3    0    0  0.18003249966E+02 -0.53102933320E+02 -0.28984368712E+03  0.29521924311E+03  0.10000000000E+01 0.  0.
    9000005    1    3    3    0    0 -0.18003249966E+02  0.53102933320E+02 -0.75422626213E+03  0.75630833198E+03  0.10000000000E+01 0.  0.
<mgrwt>
<rscale>  0 0.12501273E+03</rscale>
<asrwt>0</asrwt>
<pdfrwt beam="2">  1        4 0.16119958E+00 0.12501273E+03</pdfrwt>
<pdfrwt beam="1">  1       -4 0.57366436E-03 0.12501273E+03</pdfrwt>
<totfact> 0.28939130E+03</totfact>
</mgrwt>
</event>
<event>
 5    1  0.3199195E-002  0.1250000E+03  0.7818608E-02  0.1235069E+00
          4   -1    0    0  501    0  0.00000000000E+00  0.00000000000E+00  0.23854781165E+04  0.23854784546E+04  0.12700000000E+01 0.  1.
         -4   -1    0    0    0  501 -0.00000000000E+00 -0.00000000000E+00 -0.13908809900E+01  0.18834675278E+01  0.12700000000E+01 0.  1.
         25    2    1    2    0    0  0.00000000000E+00  0.00000000000E+00  0.23840872355E+04  0.23873619221E+04  0.12500000217E+03 0.  0.
    9000005    1    3    3    0    0 -0.35751256437E+02  0.23464277950E+02  0.20623594264E+04  0.20628029785E+04  0.10000000000E+01 0.  0.
    9000005    1    3    3    0    0  0.35751256437E+02 -0.23464277950E+02  0.32172780916E+03  0.32455894359E+03  0.10000000000E+01 0.  0.
<mgrwt>
<rscale>  0 0.12500000E+03</rscale>
<asrwt>0</asrwt>
<pdfrwt beam="1">  1        4 0.36703654E+00 0.12500000E+03</pdfrwt>
<pdfrwt beam="2">  1       -4 0.25189761E-03 0.12500000E+03</pdfrwt>
<totfact> 0.56155399E+02</totfact>
</mgrwt>
</event>
<event>
 5    1  0.3199195E-002  0.1249981E+03  0.7818608E-02  0.1235072E+00
         -4   -1    0    0    0  501 -0.00000000000E+00  0.00000000000E+00  0.12742499987E+04  0.12742506316E+04  0.12700000000E+01 0.  1.
          4   -1    0    0  501    0  0.00000000000E+00 -0.00000000000E+00 -0.29332372124E+01  0.31963699010E+01  0.12700000000E+01 0.  1.
         25    2    1    2    0    0  0.00000000000E+00  0.00000000000E+00  0.12713167615E+04  0.12774470015E+04  0.12499813422E+03 0.  0.
    9000005    1    3    3    0    0 -0.17088538454E+02  0.40748070503E+01  0.22771861899E+02  0.28778114833E+02  0.10000000000E+01 0.  0.
    9000005    1    3    3    0    0  0.17088538454E+02 -0.40748070503E+01  0.12485448996E+04  0.12486688866E+04  0.10000000000E+01 0.  0.
<mgrwt>
<rscale>  0 0.12499813E+03</rscale>
<asrwt>0</asrwt>
<pdfrwt beam="2">  1        4 0.47155622E-03 0.12499813E+03</pdfrwt>
<pdfrwt beam="1">  1       -4 0.19605904E+00 0.12499813E+03</pdfrwt>
<totfact> 0.22768026E+03</totfact>
</mgrwt>
</event>
<event>
 5    1  0.3199195E-002  0.1249975E+03  0.7818608E-02  0.1235073E+00
         -4   -1    0    0    0  501 -0.00000000000E+00  0.00000000000E+00  0.36561230163E+03  0.36561450738E+03  0.12700000000E+01 0. -1.
          4   -1    0    0  501    0  0.00000000000E+00 -0.00000000000E+00 -0.10643708673E+02  0.10719208661E+02  0.12700000000E+01 0. -1.
         25    2    1    2    0    0  0.00000000000E+00  0.00000000000E+00  0.35496859296E+03  0.37633371604E+03  0.12499745533E+03 0.  0.
    9000005    1    3    3    0    0  0.55585952883E+02  0.18571071914E+02  0.11218487285E+03  0.12657459685E+03  0.10000000000E+01 0.  0.
    9000005    1    3    3    0    0 -0.55585952883E+02 -0.18571071914E+02  0.24278372011E+03  0.24975911919E+03  0.10000000000E+01 0.  0.
<mgrwt>
<rscale>  0 0.12499746E+03</rscale>
<asrwt>0</asrwt>
<pdfrwt beam="2">  1        4 0.16434713E-02 0.12499746E+03</pdfrwt>
<pdfrwt beam="1">  1       -4 0.56254014E-01 0.12499746E+03</pdfrwt>
<totfact> 0.66925245E+03</totfact>
</mgrwt>
</event>
<event>
 5    1  0.3199195E-002  0.1250006E+03  0.7818608E-02  0.1235068E+00
         -4   -1    0    0    0  501 -0.00000000000E+00  0.00000000000E+00  0.18809755319E+02  0.18852580597E+02  0.12700000000E+01 0.  1.
          4   -1    0    0  501    0  0.00000000000E+00 -0.00000000000E+00 -0.20739255140E+03  0.20739643989E+03  0.12700000000E+01 0.  1.
         25    2    1    2    0    0  0.00000000000E+00  0.00000000000E+00 -0.18858279608E+03  0.22624902048E+03  0.12500059316E+03 0.  0.
    9000005    1    3    3    0    0 -0.26508794540E+02  0.36064051412E+02 -0.17322733379E+03  0.17891909111E+03  0.10000000000E+01 0.  0.
    9000005    1    3    3    0    0  0.26508794540E+02 -0.36064051412E+02 -0.15355462296E+02  0.47329929374E+02  0.10000000000E+01 0.  0.
<mgrwt>
<rscale>  0 0.12500059E+03</rscale>
<asrwt>0</asrwt>
<pdfrwt beam="2">  1        4 0.31910138E-01 0.12500059E+03</pdfrwt>
<pdfrwt beam="1">  1       -4 0.28974020E-02 0.12500059E+03</pdfrwt>
<totfact> 0.85887775E+03</totfact>
</mgrwt>
</event>
<event>
 5    1  0.3199195E-002  0.1250000E+03  0.7818608E-02  0.1235069E+00
          4   -1    0    0  501    0  0.00000000000E+00  0.00000000000E+00  0.37305051123E+02  0.37326662579E+02  0.12700000000E+01 0. -1.
         -4   -1    0    0    0  501 -0.00000000000E+00 -0.00000000000E+00 -0.10465520995E+03  0.10466291545E+03  0.12700000000E+01 0. -1.
         25    2    1    2    0    0  0.00000000000E+00  0.00000000000E+00 -0.67350158830E+02  0.14198957803E+03  0.12499998550E+03 0.  0.
    9000005    1    3    3    0    0  0.22754891438E+02  0.39758016446E+02 -0.81958411850E+02  0.93897104476E+02  0.10000000000E+01 0.  0.
    9000005    1    3    3    0    0 -0.22754891438E+02 -0.39758016446E+02  0.14608253020E+02  0.48092473552E+02  0.10000000000E+01 0.  0.
<mgrwt>
<rscale>  0 0.12499999E+03</rscale>
<asrwt>0</asrwt>
<pdfrwt beam="1">  1        4 0.57414938E-02 0.12499999E+03</pdfrwt>
<pdfrwt beam="2">  1       -4 0.16103057E-01 0.12499999E+03</pdfrwt>
<totfact> 0.10092519E+04</totfact>
</mgrwt>
</event>
<event>
 5    1  0.3199195E-002  0.1250018E+03  0.7818608E-02  0.1235066E+00
         -4   -1    0    0    0  501 -0.00000000000E+00  0.00000000000E+00  0.11723113707E+03  0.11723801602E+03  0.12700000000E+01 0.  1.
          4   -1    0    0  501    0  0.00000000000E+00 -0.00000000000E+00 -0.33301918058E+02  0.33326125583E+02  0.12700000000E+01 0.  1.
         25    2    1    2    0    0  0.00000000000E+00  0.00000000000E+00  0.83929219016E+02  0.15056414160E+03  0.12500178771E+03 0.  0.
    9000005    1    3    3    0    0  0.30533230985E+02  0.43587486003E+02  0.25053787195E+01  0.53286246377E+02  0.10000000000E+01 0.  0.
    9000005    1    3    3    0    0 -0.30533230985E+02 -0.43587486003E+02  0.81423840296E+02  0.97277895223E+02  0.10000000000E+01 0.  0.
<mgrwt>
<rscale>  0 0.12500179E+03</rscale>
<asrwt>0</asrwt>
<pdfrwt beam="2">  1        4 0.51257632E-02 0.12500179E+03</pdfrwt>
<pdfrwt beam="1">  1       -4 0.18037951E-01 0.12500179E+03</pdfrwt>
<totfact> 0.99187373E+03</totfact>
</mgrwt>
</event>
<event>
 5    1  0.3199195E-002  0.1249997E+03  0.7818608E-02  0.1235070E+00
          4   -1    0    0  501    0  0.00000000000E+00  0.00000000000E+00  0.99243996829E+02  0.99252122429E+02  0.12700000000E+01 0.  1.
         -4   -1    0    0    0  501 -0.00000000000E+00 -0.00000000000E+00 -0.39339903511E+02  0.39360397715E+02  0.12700000000E+01 0.  1.
         25    2    1    2    0    0  0.00000000000E+00  0.00000000000E+00  0.59904093318E+02  0.13861252014E+03  0.12499972138E+03 0.  0.
    9000005    1    3    3    0    0 -0.25146985964E+02  0.57141308393E+02  0.26868468125E+02  0.67973631706E+02  0.10000000000E+01 0.  0.
    9000005    1    3    3    0    0  0.25146985964E+02 -0.57141308393E+02  0.33035625194E+02  0.70638888438E+02  0.10000000000E+01 0.  0.
<mgrwt>
<rscale>  0 0.12499972E+03</rscale>
<asrwt>0</asrwt>
<pdfrwt beam="1">  1        4 0.15270508E-01 0.12499972E+03</pdfrwt>
<pdfrwt beam="2">  1       -4 0.60544945E-02 0.12499972E+03</pdfrwt>
<totfact> 0.10162487E+04</totfact>
</mgrwt>
</event>
<event>
 5    1  0.3199195E-002  0.1250007E+03  0.7818608E-02  0.1235068E+00
         -4   -1    0    0    0  501 -0.00000000000E+00  0.00000000000E+00  0.11899402431E+03  0.11900080135E+03  0.12700000000E+01 0.  1.
          4   -1    0    0  501    0  0.00000000000E+00 -0.00000000000E+00 -0.32807634478E+02  0.32832206445E+02  0.12700000000E+01 0.  1.
         25    2    1    2    0    0  0.00000000000E+00  0.00000000000E+00  0.86186389832E+02  0.15183300779E+03  0.12500067385E+03 0.  0.
    9000005    1    3    3    0    0 -0.36766631185E+02  0.10383621577E+02 -0.16976345586E+02  0.41818668979E+02  0.10000000000E+01 0.  0.
    9000005    1    3    3    0    0  0.36766631185E+02 -0.10383621577E+02  0.10316273542E+03  0.11001433881E+03  0.10000000000E+01 0.  0.
<mgrwt>
<rscale>  0 0.12500067E+03</rscale>
<asrwt>0</asrwt>
<pdfrwt beam="2">  1        4 0.50497398E-02 0.12500067E+03</pdfrwt>
<pdfrwt beam="1">  1       -4 0.18309185E-01 0.12500067E+03</pdfrwt>
<totfact> 0.98938062E+03</totfact>
</mgrwt>
</event>
<event>
 5    1  0.3199195E-002  0.1250008E+03  0.7818608E-02  0.1235068E+00
         -4   -1    0    0    0  501 -0.00000000000E+00  0.00000000000E+00  0.88086962035E+02  0.88096116717E+02  0.12700000000E+01 0. -1.
          4   -1    0    0  501    0  0.00000000000E+00 -0.00000000000E+00 -0.44325411879E+02  0.44343601999E+02  0.12700000000E+01 0. -1.
         25    2    1    2    0    0  0.00000000000E+00  0.00000000000E+00  0.43761550157E+02  0.13243971872E+03  0.12500082328E+03 0.  0.
    9000005    1    3    3    0    0 -0.42265435200E+02 -0.38677259636E+01  0.70479589891E+02  0.82278180023E+02  0.10000000000E+01 0.  0.
    9000005    1    3    3    0    0  0.42265435200E+02  0.38677259636E+01 -0.26718039734E+02  0.50161538692E+02  0.10000000000E+01 0.  0.
<mgrwt>
<rscale>  0 0.12500082E+03</rscale>
<asrwt>0</asrwt>
<pdfrwt beam="2">  1        4 0.68213977E-02 0.12500082E+03</pdfrwt>
<pdfrwt beam="1">  1       -4 0.13553944E-01 0.12500082E+03</pdfrwt>
<totfact> 0.10292131E+04</totfact>
</mgrwt>
</event>
<event>
 5    1  0.3199195E-002  0.1250189E+03  0.7818608E-02  0.1235040E+00
         -4   -1    0    0    0  501 -0.00000000000E+00  0.00000000000E+00  0.31269825879E+02  0.31295605291E+02  0.12700000000E+01 0. -1.
          4   -1    0    0  501    0  0.00000000000E+00 -0.00000000000E+00 -0.12487809335E+03  0.12488455108E+03  0.12700000000E+01 0. -1.
         25    2    1    2    0    0  0.00000000000E+00  0.00000000000E+00 -0.93608267469E+02  0.15618015637E+03  0.12501893259E+03 0.  0.
    9000005    1    3    3    0    0  0.57602929011E+02 -0.23542023702E+02 -0.39508131172E+02  0.73717140065E+02  0.10000000000E+01 0.  0.
    9000005    1    3    3    0    0 -0.57602929011E+02  0.23542023702E+02 -0.54100136297E+02  0.82463016305E+02  0.10000000000E+01 0.  0.
<mgrwt>
<rscale>  0 0.12501893E+03</rscale>
<asrwt>0</asrwt>
<pdfrwt beam="2">  1        4 0.19214494E-01 0.12501893E+03</pdfrwt>
<pdfrwt beam="1">  1       -4 0.48132223E-02 0.12501893E+03</pdfrwt>
<totfact> 0.98042570E+03</totfact>
</mgrwt>
</event>
<event>
 5    1  0.3199195E-002  0.1249974E+03  0.7818608E-02  0.1235073E+00
          4   -1    0    0  501    0  0.00000000000E+00  0.00000000000E+00  0.32635737540E+01  0.35019728223E+01  0.12700000000E+01 0.  1.
         -4   -1    0    0    0  501 -0.00000000000E+00 -0.00000000000E+00 -0.11544605590E+04  0.11544612575E+04  0.12700000000E+01 0.  1.
         25    2    1    2    0    0  0.00000000000E+00  0.00000000000E+00 -0.11511969852E+04  0.11579632304E+04  0.12499737620E+03 0.  0.
    9000005    1    3    3    0    0 -0.30115390418E+02  0.49936666473E+02 -0.78367126469E+03  0.78583857026E+03  0.10000000000E+01 0.  0.
    9000005    1    3    3    0    0  0.30115390418E+02 -0.49936666473E+02 -0.36752572054E+03  0.37212466010E+03  0.10000000000E+01 0.  0.
<mgrwt>
<rscale>  0 0.12499738E+03</rscale>
<asrwt>0</asrwt>
<pdfrwt beam="1">  1        4 0.52048131E-03 0.12499738E+03</pdfrwt>
<pdfrwt beam="2">  1       -4 0.17762740E+00 0.12499738E+03</pdfrwt>
<totfact> 0.25841847E+03</totfact>
</mgrwt>
</event>
<event>
 5    1  0.3199195E-002  0.1250005E+03  0.7818608E-02  0.1235069E+00
         -4   -1    0    0    0  501 -0.00000000000E+00  0.00000000000E+00  0.60490483831E+03  0.60490617149E+03  0.12700000000E+01 0. -1.
          4   -1    0    0  501    0  0.00000000000E+00 -0.00000000000E+00 -0.63938843843E+01  0.65187926428E+01  0.12700000000E+01 0. -1.
         25    2    1    2    0    0  0.00000000000E+00  0.00000000000E+00  0.59851095392E+03  0.61142496413E+03  0.12500049920E+03 0.  0.
    9000005    1    3    3    0    0  0.51146431013E+02 -0.35280607304E+02  0.33192262565E+03  0.33768966237E+03  0.10000000000E+01 0.  0.
    9000005    1    3    3    0    0 -0.51146431013E+02  0.35280607304E+02  0.26658832827E+03  0.27373530176E+03  0.10000000000E+01 0.  0.
<mgrwt>
<rscale>  0 0.12500050E+03</rscale>
<asrwt>0</asrwt>
<pdfrwt beam="2">  1        4 0.99338537E-03 0.12500050E+03</pdfrwt>
<pdfrwt beam="1">  1       -4 0.93071996E-01 0.12500050E+03</pdfrwt>
<totfact> 0.48153756E+03</totfact>
</mgrwt>
</event>
<event>
 5    1  0.3199195E-002  0.1250012E+03  0.7818608E-02  0.1235067E+00
         -4   -1    0    0    0  501 -0.00000000000E+00  0.00000000000E+00  0.84277484467E+02  0.84287052909E+02  0.12700000000E+01 0. -1.
          4   -1    0    0  501    0  0.00000000000E+00 -0.00000000000E+00 -0.46329828295E+02  0.46347231739E+02  0.12700000000E+01 0. -1.
         25    2    1    2    0    0  0.00000000000E+00  0.00000000000E+00  0.37947656171E+02  0.13063428465E+03  0.12500116686E+03 0.  0.
    9000005    1    3    3    0    0 -0.15276139816E+02  0.43329454963E+02  0.63244626485E+02  0.78177265841E+02  0.10000000000E+01 0.  0.
    9000005    1    3    3    0    0  0.15276139816E+02 -0.43329454963E+02 -0.25296970314E+02  0.52457018807E+02  0.10000000000E+01 0.  0.
<mgrwt>
<rscale>  0 0.12500117E+03</rscale>
<asrwt>0</asrwt>
<pdfrwt beam="2">  1        4 0.71297407E-02 0.12500117E+03</pdfrwt>
<pdfrwt beam="1">  1       -4 0.12967841E-01 0.12500117E+03</pdfrwt>
<totfact> 0.10330664E+04</totfact>
</mgrwt>
</event>
<event>
 5    1  0.3199195E-002  0.1250347E+03  0.7818608E-02  0.1235015E+00
          4   -1    0    0  501    0  0.00000000000E+00  0.00000000000E+00  0.26726407773E+02  0.26756565035E+02  0.12700000000E+01 0. -1.
         -4   -1    0    0    0  501 -0.00000000000E+00 -0.00000000000E+00 -0.14612274916E+03  0.14612826805E+03  0.12700000000E+01 0. -1.
         25    2    1    2    0    0  0.00000000000E+00  0.00000000000E+00 -0.11939634139E+03  0.17288483308E+03  0.12503471187E+03 0.  0.
    9000005    1    3    3    0    0  0.36217912990E+02 -0.49625259037E+02 -0.75645157199E+02  0.97455596881E+02  0.10000000000E+01 0.  0.
    9000005    1    3    3    0    0 -0.36217912990E+02  0.49625259037E+02 -0.43751184187E+02  0.75429236199E+02  0.10000000000E+01 0.  0.
<mgrwt>
<rscale>  0 0.12503471E+03</rscale>
<asrwt>0</asrwt>
<pdfrwt beam="1">  1        4 0.41144994E-02 0.12503471E+03</pdfrwt>
<pdfrwt beam="2">  1       -4 0.22483167E-01 0.12503471E+03</pdfrwt>
<totfact> 0.94839774E+03</totfact>
</mgrwt>
</event>
<event>
 5    1  0.3199195E-002  0.1250009E+03  0.7818608E-02  0.1235068E+00
          4   -1    0    0  501    0  0.00000000000E+00  0.00000000000E+00  0.27227176769E+01  0.30043454442E+01  0.12700000000E+01 0. -1.
         -4   -1    0    0    0  501 -0.00000000000E+00 -0.00000000000E+00 -0.13638758899E+04  0.13638764812E+04  0.12700000000E+01 0. -1.
         25    2    1    2    0    0  0.00000000000E+00  0.00000000000E+00 -0.13611531723E+04  0.13668808267E+04  0.12500094390E+03 0.  0.
    9000005    1    3    3    0    0 -0.55511600244E+01  0.36714046477E+02 -0.13093038120E+03  0.13609739640E+03  0.10000000000E+01 0.  0.
    9000005    1    3    3    0    0  0.55511600244E+01 -0.36714046477E+02 -0.12302227911E+04  0.12307834303E+04  0.10000000000E+01 0.  0.
<mgrwt>
<rscale>  0 0.12500094E+03</rscale>
<asrwt>0</asrwt>
<pdfrwt beam="1">  1        4 0.44058989E-03 0.12500094E+03</pdfrwt>
<pdfrwt beam="2">  1       -4 0.20984825E+00 0.12500094E+03</pdfrwt>
<totfact> 0.20702402E+03</totfact>
</mgrwt>
</event>
<event>
 5    1  0.3199195E-002  0.1250233E+03  0.7818608E-02  0.1235033E+00
          4   -1    0    0  501    0  0.00000000000E+00  0.00000000000E+00  0.14478267673E+01  0.19259029955E+01  0.12700000000E+01 0. -1.
         -4   -1    0    0    0  501 -0.00000000000E+00 -0.00000000000E+00 -0.23160729762E+04  0.23160733244E+04  0.12700000000E+01 0. -1.
         25    2    1    2    0    0  0.00000000000E+00  0.00000000000E+00 -0.23146251495E+04  0.23179992274E+04  0.12502334105E+03 0.  0.
    9000005    1    3    3    0    0  0.67201103425E+01 -0.10903346519E+02 -0.23052283679E+02  0.26390351099E+02  0.10000000000E+01 0.  0.
    9000005    1    3    3    0    0 -0.67201103425E+01  0.10903346519E+02 -0.22915728658E+04  0.22916088763E+04  0.10000000000E+01 0.  0.
<mgrwt>
<rscale>  0 0.12502334E+03</rscale>
<asrwt>0</asrwt>
<pdfrwt beam="1">  1        4 0.25954631E-03 0.12502334E+03</pdfrwt>
<pdfrwt beam="2">  1       -4 0.35635318E+00 0.12502334E+03</pdfrwt>
<totfact> 0.62578404E+02</totfact>
</mgrwt>
</event>
<event>
 5    1  0.3199195E-002  0.1250016E+03  0.7818608E-02  0.1235067E+00
          4   -1    0    0  501    0  0.00000000000E+00  0.00000000000E+00  0.18500971943E+02  0.18544510316E+02  0.12700000000E+01 0. -1.
         -4   -1    0    0    0  501 -0.00000000000E+00 -0.00000000000E+00 -0.21084943384E+03  0.21085325857E+03  0.12700000000E+01 0. -1.
         25    2    1    2    0    0  0.00000000000E+00  0.00000000000E+00 -0.19234846190E+03  0.22939776889E+03  0.12500162230E+03 0.  0.
    9000005    1    3    3    0    0 -0.51293230978E+02 -0.34883071452E+02 -0.11009329612E+03  0.12636992549E+03  0.10000000000E+01 0.  0.
    9000005    1    3    3    0    0  0.51293230978E+02  0.34883071452E+02 -0.82255165776E+02  0.10302784340E+03  0.10000000000E+01 0.  0.
<mgrwt>
<rscale>  0 0.12500162E+03</rscale>
<asrwt>0</asrwt>
<pdfrwt beam="1">  1        4 0.28499468E-02 0.12500162E+03</pdfrwt>
<pdfrwt beam="2">  1       -4 0.32442016E-01 0.12500162E+03</pdfrwt>
<totfact> 0.85399065E+03</totfact>
</mgrwt>
</event>
<event>
 5    1  0.3199195E-002  0.1249877E+03  0.7818608E-02  0.1235088E+00
          4   -1    0    0  501    0  0.00000000000E+00  0.00000000000E+00  0.16397480158E+03  0.16397971964E+03  0.12700000000E+01 0.  1.
         -4   -1    0    0    0  501 -0.00000000000E+00 -0.00000000000E+00 -0.23795371244E+02  0.23829238189E+02  0.12700000000E+01 0.  1.
         25    2    1    2    0    0  0.00000000000E+00  0.00000000000E+00  0.14017943033E+03  0.18780895783E+03  0.12498772720E+03 0.  0.
    9000005    1    3    3    0    0  0.24966453030E+02 -0.36206417398E+02  0.13678729898E+03  0.14368713791E+03  0.10000000000E+01 0.  0.
    9000005    1    3    3    0    0 -0.24966453030E+02  0.36206417398E+02  0.33921313513E+01  0.44121819917E+02  0.10000000000E+01 0.  0.
<mgrwt>
<rscale>  0 0.12498773E+03</rscale>
<asrwt>0</asrwt>
<pdfrwt beam="1">  1        4 0.25229877E-01 0.12498773E+03</pdfrwt>
<pdfrwt beam="2">  1       -4 0.36638097E-02 0.12498773E+03</pdfrwt>
<totfact> 0.92255315E+03</totfact>
</mgrwt>
</event>
<event>
 5    1  0.3199195E-002  0.1250049E+03  0.7818608E-02  0.1235062E+00
          4   -1    0    0  501    0  0.00000000000E+00  0.00000000000E+00  0.30313426009E+02  0.30340018069E+02  0.12700000000E+01 0. -1.
         -4   -1    0    0    0  501 -0.00000000000E+00 -0.00000000000E+00 -0.12878589888E+03  0.12879216067E+03  0.12700000000E+01 0. -1.
         25    2    1    2    0    0  0.00000000000E+00  0.00000000000E+00 -0.98472472872E+02  0.15913217874E+03  0.12500488949E+03 0.  0.
    9000005    1    3    3    0    0  0.58959019387E+02 -0.10417642576E+02 -0.72039152678E+02  0.93676746114E+02  0.10000000000E+01 0.  0.
    9000005    1    3    3    0    0 -0.58959019387E+02  0.10417642576E+02 -0.26433320194E+02  0.65455432628E+02  0.10000000000E+01 0.  0.
<mgrwt>
<rscale>  0 0.12500489E+03</rscale>
<asrwt>0</asrwt>
<pdfrwt beam="1">  1        4 0.46661313E-02 0.12500489E+03</pdfrwt>
<pdfrwt beam="2">  1       -4 0.19815742E-01 0.12500489E+03</pdfrwt>
<totfact> 0.97499638E+03</totfact>
</mgrwt>
</event>
<event>
 5    1  0.3199195E-002  0.1250014E+03  0.7818608E-02  0.1235067E+00
         -4   -1    0    0    0  501 -0.00000000000E+00  0.00000000000E+00  0.42745108123E+02  0.42763970448E+02  0.12700000000E+01 0.  1.
          4   -1    0    0  501    0  0.00000000000E+00 -0.00000000000E+00 -0.91343266817E+02  0.91352095174E+02  0.12700000000E+01 0.  1.
         25    2    1    2    0    0  0.00000000000E+00  0.00000000000E+00 -0.48598158694E+02  0.13411606562E+03  0.12500135211E+03 0.  0.
    9000005    1    3    3    0    0 -0.46443441614E+02 -0.39324418635E+02 -0.39545501998E+02  0.72582710739E+02  0.10000000000E+01 0.  0.
    9000005    1    3    3    0    0  0.46443441614E+02  0.39324418635E+02 -0.90526566956E+01  0.61533354883E+02  0.10000000000E+01 0.  0.
<mgrwt>
<rscale>  0 0.12500135E+03</rscale>
<asrwt>0</asrwt>
<pdfrwt beam="2">  1        4 0.14054940E-01 0.12500135E+03</pdfrwt>
<pdfrwt beam="1">  1       -4 0.65783006E-02 0.12500135E+03</pdfrwt>
<totfact> 0.10256423E+04</totfact>
</mgrwt>
</event>
<event>
 5    1  0.3199195E-002  0.1249991E+03  0.7818608E-02  0.1235071E+00
          4   -1    0    0  501    0  0.00000000000E+00  0.00000000000E+00  0.25140437742E+02  0.25172495106E+02  0.12700000000E+01 0. -1.
         -4   -1    0    0    0  501 -0.00000000000E+00 -0.00000000000E+00 -0.15524124319E+03  0.15524643792E+03  0.12700000000E+01 0. -1.
         25    2    1    2    0    0  0.00000000000E+00  0.00000000000E+00 -0.13010080545E+03  0.18041893303E+03  0.12499908726E+03 0.  0.
    9000005    1    3    3    0    0  0.42831293069E+02 -0.29440869775E+02 -0.14969516651E+02  0.54095941695E+02  0.10000000000E+01 0.  0.
    9000005    1    3    3    0    0 -0.42831293069E+02  0.29440869775E+02 -0.11513128880E+03  0.12632299134E+03  0.10000000000E+01 0.  0.
<mgrwt>
<rscale>  0 0.12499909E+03</rscale>
<asrwt>0</asrwt>
<pdfrwt beam="1">  1        4 0.38706253E-02 0.12499909E+03</pdfrwt>
<pdfrwt beam="2">  1       -4 0.23886133E-01 0.12499909E+03</pdfrwt>
<totfact> 0.93543563E+03</totfact>
</mgrwt>
</event>
<event>
 5    1  0.3199195E-002  0.1250007E+03  0.7818608E-02  0.1235068E+00
          4   -1    0    0  501    0  0.00000000000E+00  0.00000000000E+00  0.59874312552E+01  0.61206399205E+01  0.12700000000E+01 0. -1.
         -4   -1    0    0    0  501 -0.00000000000E+00 -0.00000000000E+00 -0.64510384495E+03  0.64510509506E+03  0.12700000000E+01 0. -1.
         25    2    1    2    0    0  0.00000000000E+00  0.00000000000E+00 -0.63911641369E+03  0.65122573498E+03  0.12500067057E+03 0.  0.
    9000005    1    3    3    0    0  0.46438867373E+02  0.41515404529E+02 -0.29340808221E+03  0.29994899554E+03  0.10000000000E+01 0.  0.
    9000005    1    3    3    0    0 -0.46438867373E+02 -0.41515404529E+02 -0.34570833148E+03  0.35127673944E+03  0.10000000000E+01 0.  0.
<mgrwt>
<rscale>  0 0.12500067E+03</rscale>
<asrwt>0</asrwt>
<pdfrwt beam="1">  1        4 0.93148676E-03 0.12500067E+03</pdfrwt>
<pdfrwt beam="2">  1       -4 0.99257034E-01 0.12500067E+03</pdfrwt>
<totfact> 0.45785069E+03</totfact>
</mgrwt>
</event>
<event>
 5    1  0.3199195E-002  0.1250059E+03  0.7818608E-02  0.1235060E+00
          4   -1    0    0  501    0  0.00000000000E+00  0.00000000000E+00  0.53709532012E+03  0.53709682162E+03  0.12700000000E+01 0.  1.
         -4   -1    0    0    0  501 -0.00000000000E+00 -0.00000000000E+00 -0.72166487373E+01  0.73275452232E+01  0.12700000000E+01 0.  1.
         25    2    1    2    0    0  0.00000000000E+00  0.00000000000E+00  0.52987867138E+03  0.54442436684E+03  0.12500593917E+03 0.  0.
    9000005    1    3    3    0    0 -0.32110272876E+02  0.12533622212E+02  0.37906601607E+02  0.51245212023E+02  0.10000000000E+01 0.  0.
    9000005    1    3    3    0    0  0.32110272876E+02 -0.12533622212E+02  0.49197206977E+03  0.49317915482E+03  0.10000000000E+01 0.  0.
<mgrwt>
<rscale>  0 0.12500594E+03</rscale>
<asrwt>0</asrwt>
<pdfrwt beam="1">  1        4 0.82638685E-01 0.12500594E+03</pdfrwt>
<pdfrwt beam="2">  1       -4 0.11188998E-02 0.12500594E+03</pdfrwt>
<totfact> 0.52568285E+03</totfact>
</mgrwt>
</event>
<event>
 5    1  0.3199195E-002  0.1249989E+03  0.7818608E-02  0.1235071E+00
          4   -1    0    0  501    0  0.00000000000E+00  0.00000000000E+00  0.16130817835E+03  0.16131317771E+03  0.12700000000E+01 0. -1.
         -4   -1    0    0    0  501 -0.00000000000E+00 -0.00000000000E+00 -0.24193622791E+02  0.24226933024E+02  0.12700000000E+01 0. -1.
         25    2    1    2    0    0  0.00000000000E+00  0.00000000000E+00  0.13711455556E+03  0.18554011074E+03  0.12499892538E+03 0.  0.
    9000005    1    3    3    0    0  0.54381462218E+02  0.27768079391E+01  0.11406920193E+03  0.12640346880E+03  0.10000000000E+01 0.  0.
    9000005    1    3    3    0    0 -0.54381462218E+02 -0.27768079391E+01  0.23045353626E+02  0.59136641933E+02  0.10000000000E+01 0.  0.
<mgrwt>
<rscale>  0 0.12499893E+03</rscale>
<asrwt>0</asrwt>
<pdfrwt beam="1">  1        4 0.24819589E-01 0.12499893E+03</pdfrwt>
<pdfrwt beam="2">  1       -4 0.37250428E-02 0.12499893E+03</pdfrwt>
<totfact> 0.92631395E+03</totfact>
</mgrwt>
</event>
<event>
 5    1  0.3199195E-002  0.1250032E+03  0.7818608E-02  0.1235064E+00
          4   -1    0    0  501    0  0.00000000000E+00  0.00000000000E+00  0.28077214002E+03  0.28077501226E+03  0.12700000000E+01 0. -1.
         -4   -1    0    0    0  501 -0.00000000000E+00 -0.00000000000E+00 -0.13881316394E+02  0.13939291403E+02  0.12700000000E+01 0. -1.
         25    2    1    2    0    0  0.00000000000E+00  0.00000000000E+00  0.26689082362E+03  0.29471430366E+03  0.12500323616E+03 0.  0.
    9000005    1    3    3    0    0  0.18987614535E+02 -0.36665124781E+02  0.22846803583E+02  0.47199971556E+02  0.10000000000E+01 0.  0.
    9000005    1    3    3    0    0 -0.18987614535E+02  0.36665124781E+02  0.24404402004E+03  0.24751433211E+03  0.10000000000E+01 0.  0.
<mgrwt>
<rscale>  0 0.12500324E+03</rscale>
<asrwt>0</asrwt>
<pdfrwt beam="1">  1        4 0.43200392E-01 0.12500324E+03</pdfrwt>
<pdfrwt beam="2">  1       -4 0.21402678E-02 0.12500324E+03</pdfrwt>
<totfact> 0.76261206E+03</totfact>
</mgrwt>
</event>
<event>
 5    1  0.3199195E-002  0.1250027E+03  0.7818608E-02  0.1235065E+00
         -4   -1    0    0    0  501 -0.00000000000E+00  0.00000000000E+00  0.83769321699E+01  0.84726555801E+01  0.12700000000E+01 0.  1.
          4   -1    0    0  501    0  0.00000000000E+00 -0.00000000000E+00 -0.46358471580E+03  0.46358645540E+03  0.12700000000E+01 0.  1.
         25    2    1    2    0    0  0.00000000000E+00  0.00000000000E+00 -0.45520778363E+03  0.47205911098E+03  0.12500271187E+03 0.  0.
    9000005    1    3    3    0    0 -0.29031122796E+02 -0.47220746292E+02 -0.11862281516E+03  0.13093883017E+03  0.10000000000E+01 0.  0.
    9000005    1    3    3    0    0  0.29031122796E+02  0.47220746292E+02 -0.33658496848E+03  0.34112028080E+03  0.10000000000E+01 0.  0.
<mgrwt>
<rscale>  0 0.12500271E+03</rscale>
<asrwt>0</asrwt>
<pdfrwt beam="2">  1        4 0.71328203E-01 0.12500271E+03</pdfrwt>
<pdfrwt beam="1">  1       -4 0.12962563E-02 0.12500271E+03</pdfrwt>
<totfact> 0.58095876E+03</totfact>
</mgrwt>
</event>
<event>
 5    1  0.3199195E-002  0.1250092E+03  0.7818608E-02  0.1235055E+00
          4   -1    0    0  501    0  0.00000000000E+00  0.00000000000E+00  0.16031800271E+03  0.16032303295E+03  0.12700000000E+01 0.  1.
         -4   -1    0    0    0  501 -0.00000000000E+00 -0.00000000000E+00 -0.24347262177E+02  0.24380362498E+02  0.12700000000E+01 0.  1.
         25    2    1    2    0    0  0.00000000000E+00  0.00000000000E+00  0.13597074054E+03  0.18470339545E+03  0.12500920769E+03 0.  0.
    9000005    1    3    3    0    0 -0.44789676149E+02 -0.38678018724E+02  0.38297865458E+02  0.70497026325E+02  0.10000000000E+01 0.  0.
    9000005    1    3    3    0    0  0.44789676149E+02  0.38678018724E+02  0.97672875079E+02  0.11420636912E+03  0.10000000000E+01 0.  0.
<mgrwt>
<rscale>  0 0.12500921E+03</rscale>
<asrwt>0</asrwt>
<pdfrwt beam="1">  1        4 0.24667241E-01 0.12500921E+03</pdfrwt>
<pdfrwt beam="2">  1       -4 0.37486657E-02 0.12500921E+03</pdfrwt>
<totfact> 0.92758019E+03</totfact>
</mgrwt>
</event>
<event>
 5    1  0.3199195E-002  0.1250020E+03  0.7818608E-02  0.1235066E+00
          4   -1    0    0  501    0  0.00000000000E+00  0.00000000000E+00  0.10728189825E+03  0.10728941510E+03  0.12700000000E+01 0.  1.
         -4   -1    0    0    0  501 -0.00000000000E+00 -0.00000000000E+00 -0.36392403624E+02  0.36414556726E+02  0.12700000000E+01 0.  1.
         25    2    1    2    0    0  0.00000000000E+00  0.00000000000E+00  0.70889494627E+02  0.14370397182E+03  0.12500204426E+03 0.  0.
    9000005    1    3    3    0    0  0.30447302983E+02  0.53923365425E+02  0.45104928763E+02  0.76617375291E+02  0.10000000000E+01 0.  0.
    9000005    1    3    3    0    0 -0.30447302983E+02 -0.53923365425E+02  0.25784565864E+02  0.67086596534E+02  0.10000000000E+01 0.  0.
<mgrwt>
<rscale>  0 0.12500204E+03</rscale>
<asrwt>0</asrwt>
<pdfrwt beam="1">  1        4 0.16507190E-01 0.12500204E+03</pdfrwt>
<pdfrwt beam="2">  1       -4 0.56011136E-02 0.12500204E+03</pdfrwt>
<totfact> 0.10056924E+04</totfact>
</mgrwt>
</event>
<event>
 5    1  0.3199195E-002  0.1249969E+03  0.7818608E-02  0.1235074E+00
          4   -1    0    0  501    0  0.00000000000E+00  0.00000000000E+00  0.64055485263E+02  0.64068073892E+02  0.12700000000E+01 0. -1.
         -4   -1    0    0    0  501 -0.00000000000E+00 -0.00000000000E+00 -0.60954100043E+02  0.60967329055E+02  0.12700000000E+01 0. -1.
         25    2    1    2    0    0  0.00000000000E+00  0.00000000000E+00  0.31013852197E+01  0.12503540295E+03  0.12499693356E+03 0.  0.
    9000005    1    3    3    0    0  0.42728840191E+01  0.40498113691E+02  0.48964685430E+02  0.63693760838E+02  0.10000000000E+01 0.  0.
    9000005    1    3    3    0    0 -0.42728840191E+01 -0.40498113691E+02 -0.45863300211E+02  0.61341642109E+02  0.10000000000E+01 0.  0.
<mgrwt>
<rscale>  0 0.12499693E+03</rscale>
<asrwt>0</asrwt>
<pdfrwt beam="1">  1        4 0.98566761E-02 0.12499693E+03</pdfrwt>
<pdfrwt beam="2">  1       -4 0.93795398E-02 0.12499693E+03</pdfrwt>
<totfact> 0.10452818E+04</totfact>
</mgrwt>
</event>
<event>
 5    1  0.3199195E-002  0.1249945E+03  0.7818608E-02  0.1235078E+00
          4   -1    0    0  501    0  0.00000000000E+00  0.00000000000E+00  0.32607732927E+02  0.32632455418E+02  0.12700000000E+01 0. -1.
         -4   -1    0    0    0  501 -0.00000000000E+00 -0.00000000000E+00 -0.11971116587E+03  0.11971790231E+03  0.12700000000E+01 0. -1.
         25    2    1    2    0    0  0.00000000000E+00  0.00000000000E+00 -0.87103432940E+02  0.15235035773E+03  0.12499449376E+03 0.  0.
    9000005    1    3    3    0    0  0.33874869857E+02  0.45837303823E+02 -0.12325652595E+02  0.58322267972E+02  0.10000000000E+01 0.  0.
    9000005    1    3    3    0    0 -0.33874869857E+02 -0.45837303823E+02 -0.74777780346E+02  0.94028089755E+02  0.10000000000E+01 0.  0.
<mgrwt>
<rscale>  0 0.12499449E+03</rscale>
<asrwt>0</asrwt>
<pdfrwt beam="1">  1        4 0.50189943E-02 0.12499449E+03</pdfrwt>
<pdfrwt beam="2">  1       -4 0.18419522E-01 0.12499449E+03</pdfrwt>
<totfact> 0.98849482E+03</totfact>
</mgrwt>
</event>
<event>
 5    1  0.3199195E-002  0.1250092E+03  0.7818608E-02  0.1235055E+00
         -4   -1    0    0    0  501 -0.00000000000E+00  0.00000000000E+00  0.38161491768E+03  0.38161703093E+03  0.12700000000E+01 0.  1.
          4   -1    0    0  501    0  0.00000000000E+00 -0.00000000000E+00 -0.10196073958E+02  0.10274863705E+02  0.12700000000E+01 0.  1.
         25    2    1    2    0    0  0.00000000000E+00  0.00000000000E+00  0.37141884372E+03  0.39189189463E+03  0.12500919810E+03 0.  0.
    9000005    1    3    3    0    0 -0.14548439338E+02  0.13528969058E+02 -0.48808147063E-01  0.19892020339E+02  0.10000000000E+01 0.  0.
    9000005    1    3    3    0    0  0.14548439338E+02 -0.13528969058E+02  0.37146765187E+03  0.37199987429E+03  0.10000000000E+01 0.  0.
<mgrwt>
<rscale>  0 0.12500920E+03</rscale>
<asrwt>0</asrwt>
<pdfrwt beam="2">  1        4 0.15748499E-02 0.12500920E+03</pdfrwt>
<pdfrwt beam="1">  1       -4 0.58716216E-01 0.12500920E+03</pdfrwt>
<totfact> 0.65335809E+03</totfact>
</mgrwt>
</event>
<event>
 5    1  0.3199195E-002  0.1249699E+03  0.7818608E-02  0.1235116E+00
         -4   -1    0    0    0  501 -0.00000000000E+00  0.00000000000E+00  0.21566701372E+01  0.25028236216E+01  0.12700000000E+01 0. -1.
          4   -1    0    0  501    0  0.00000000000E+00 -0.00000000000E+00 -0.16755302881E+04  0.16755307694E+04  0.12700000000E+01 0. -1.
         25    2    1    2    0    0  0.00000000000E+00  0.00000000000E+00 -0.16733736180E+04  0.16780335931E+04  0.12496989257E+03 0.  0.
    9000005    1    3    3    0    0  0.54936555327E+01 -0.45201611957E+02 -0.14110956297E+04  0.14118304580E+04  0.10000000000E+01 0.  0.
    9000005    1    3    3    0    0 -0.54936555327E+01  0.45201611957E+02 -0.26227798832E+03  0.26620313509E+03  0.10000000000E+01 0.  0.
<mgrwt>
<rscale>  0 0.12496989E+03</rscale>
<asrwt>0</asrwt>
<pdfrwt beam="2">  1        4 0.25779959E+00 0.12496989E+03</pdfrwt>
<pdfrwt beam="1">  1       -4 0.35846096E-03 0.12496989E+03</pdfrwt>
<totfact> 0.14687502E+03</totfact>
</mgrwt>
</event>
<event>
 5    1  0.3199195E-002  0.1250057E+03  0.7818608E-02  0.1235060E+00
         -4   -1    0    0    0  501 -0.00000000000E+00  0.00000000000E+00  0.11433900548E+03  0.11434605841E+03  0.12700000000E+01 0. -1.
          4   -1    0    0  501    0  0.00000000000E+00 -0.00000000000E+00 -0.34146978809E+02  0.34170587671E+02  0.12700000000E+01 0. -1.
         25    2    1    2    0    0  0.00000000000E+00  0.00000000000E+00  0.80192026667E+02  0.14851664608E+03  0.12500573195E+03 0.  0.
    9000005    1    3    3    0    0 -0.36769131576E+02  0.48942760618E+02  0.55041523871E+02  0.82328198109E+02  0.10000000000E+01 0.  0.
    9000005    1    3    3    0    0  0.36769131576E+02 -0.48942760618E+02  0.25150502795E+02  0.66188447970E+02  0.10000000000E+01 0.  0.
<mgrwt>
<rscale>  0 0.12500573E+03</rscale>
<asrwt>0</asrwt>
<pdfrwt beam="2">  1        4 0.52557399E-02 0.12500573E+03</pdfrwt>
<pdfrwt beam="1">  1       -4 0.17592975E-01 0.12500573E+03</pdfrwt>
<totfact> 0.99587358E+03</totfact>
</mgrwt>
</event>
<event>
 5    1  0.3199195E-002  0.1250057E+03  0.7818608E-02  0.1235060E+00
          4   -1    0    0  501    0  0.00000000000E+00  0.00000000000E+00  0.15344241142E+03  0.15344766704E+03  0.12700000000E+01 0. -1.
         -4   -1    0    0    0  501 -0.00000000000E+00 -0.00000000000E+00 -0.25438213644E+02  0.25469896219E+02  0.12700000000E+01 0. -1.
         25    2    1    2    0    0  0.00000000000E+00  0.00000000000E+00  0.12800419777E+03  0.17891756326E+03  0.12500567906E+03 0.  0.
    9000005    1    3    3    0    0 -0.18354577935E+02  0.50375838345E+02  0.10995895554E+03  0.12233800523E+03  0.10000000000E+01 0.  0.
    9000005    1    3    3    0    0  0.18354577935E+02 -0.50375838345E+02  0.18045242235E+02  0.56579558035E+02  0.10000000000E+01 0.  0.
<mgrwt>
<rscale>  0 0.12500568E+03</rscale>
<asrwt>0</asrwt>
<pdfrwt beam="1">  1        4 0.23609366E-01 0.12500568E+03</pdfrwt>
<pdfrwt beam="2">  1       -4 0.39164128E-02 0.12500568E+03</pdfrwt>
<totfact> 0.93800263E+03</totfact>
</mgrwt>
</event>
<event>
 5    1  0.3199195E-002  0.1250075E+03  0.7818608E-02  0.1235058E+00
          4   -1    0    0  501    0  0.00000000000E+00  0.00000000000E+00  0.13085579731E+04  0.13085585894E+04  0.12700000000E+01 0.  1.
         -4   -1    0    0    0  501 -0.00000000000E+00 -0.00000000000E+00 -0.28498073453E+01  0.31199842797E+01  0.12700000000E+01 0.  1.
         25    2    1    2    0    0  0.00000000000E+00  0.00000000000E+00  0.13057081657E+04  0.13116785736E+04  0.12500746579E+03 0.  0.
    9000005    1    3    3    0    0 -0.60377292366E+02 -0.20669810884E+01  0.48496047118E+03  0.48870988168E+03  0.10000000000E+01 0.  0.
    9000005    1    3    3    0    0  0.60377292366E+02  0.20669810884E+01  0.82074769456E+03  0.82296869197E+03  0.10000000000E+01 0.  0.
<mgrwt>
<rscale>  0 0.12500747E+03</rscale>
<asrwt>0</asrwt>
<pdfrwt beam="1">  1        4 0.20133820E+00 0.12500747E+03</pdfrwt>
<pdfrwt beam="2">  1       -4 0.45926041E-03 0.12500747E+03</pdfrwt>
<totfact> 0.21950857E+03</totfact>
</mgrwt>
</event>
<event>
 5    1  0.3199195E-002  0.1250008E+03  0.7818608E-02  0.1235068E+00
         -4   -1    0    0    0  501 -0.00000000000E+00  0.00000000000E+00  0.12312928012E+03  0.12313582957E+03  0.12700000000E+01 0. -1.
          4   -1    0    0  501    0  0.00000000000E+00 -0.00000000000E+00 -0.31705081825E+02  0.31730507616E+02  0.12700000000E+01 0. -1.
         25    2    1    2    0    0  0.00000000000E+00  0.00000000000E+00  0.91424198295E+02  0.15486633718E+03  0.12500079343E+03 0.  0.
    9000005    1    3    3    0    0 -0.35030038641E+02  0.26690352246E+02 -0.92187421998E+01  0.45005152127E+02  0.10000000000E+01 0.  0.
    9000005    1    3    3    0    0  0.35030038641E+02 -0.26690352246E+02  0.10064294049E+03  0.10986118505E+03  0.10000000000E+01 0.  0.
<mgrwt>
<rscale>  0 0.12500079E+03</rscale>
<asrwt>0</asrwt>
<pdfrwt beam="2">  1        4 0.48801645E-02 0.12500079E+03</pdfrwt>
<pdfrwt beam="1">  1       -4 0.18945426E-01 0.12500079E+03</pdfrwt>
<totfact> 0.98339990E+03</totfact>
</mgrwt>
</event>
<event>
 5    1  0.3199195E-002  0.1249982E+03  0.7818608E-02  0.1235072E+00
          4   -1    0    0  501    0  0.00000000000E+00  0.00000000000E+00  0.45143968624E+03  0.45144147263E+03  0.12700000000E+01 0.  1.
         -4   -1    0    0    0  501 -0.00000000000E+00 -0.00000000000E+00 -0.86042143686E+01  0.86974366856E+01  0.12700000000E+01 0.  1.
         25    2    1    2    0    0  0.00000000000E+00  0.00000000000E+00  0.44283547187E+03  0.46013890932E+03  0.12499824287E+03 0.  0.
    9000005    1    3    3    0    0  0.92727265933E+01  0.60144837523E+02  0.27370518606E+03  0.28039064502E+03  0.10000000000E+01 0.  0.
    9000005    1    3    3    0    0 -0.92727265933E+01 -0.60144837523E+02  0.16913028581E+03  0.17974826430E+03  0.10000000000E+01 0.  0.
<mgrwt>
<rscale>  0 0.12499824E+03</rscale>
<asrwt>0</asrwt>
<pdfrwt beam="1">  1        4 0.69459597E-01 0.12499824E+03</pdfrwt>
<pdfrwt beam="2">  1       -4 0.13310331E-02 0.12499824E+03</pdfrwt>
<totfact> 0.59097685E+03</totfact>
</mgrwt>
</event>
<event>
 5    1  0.3199195E-002  0.1249991E+03  0.7818608E-02  0.1235071E+00
          4   -1    0    0  501    0  0.00000000000E+00  0.00000000000E+00  0.77407656435E+01  0.78442560353E+01  0.12700000000E+01 0. -1.
         -4   -1    0    0    0  501 -0.00000000000E+00 -0.00000000000E+00 -0.50117104360E+03  0.50117265273E+03  0.12700000000E+01 0. -1.
         25    2    1    2    0    0  0.00000000000E+00  0.00000000000E+00 -0.49343027796E+03  0.50901690876E+03  0.12499909681E+03 0.  0.
    9000005    1    3    3    0    0  0.57809980615E+02  0.15634375853E+01 -0.15028516512E+03  0.16103126731E+03  0.10000000000E+01 0.  0.
    9000005    1    3    3    0    0 -0.57809980615E+02 -0.15634375853E+01 -0.34314511283E+03  0.34798564145E+03  0.10000000000E+01 0.  0.
<mgrwt>
<rscale>  0 0.12499910E+03</rscale>
<asrwt>0</asrwt>
<pdfrwt beam="1">  1        4 0.11989720E-02 0.12499910E+03</pdfrwt>
<pdfrwt beam="2">  1       -4 0.77111297E-01 0.12499910E+03</pdfrwt>
<totfact> 0.55172597E+03</totfact>
</mgrwt>
</event>
<event>
 5    1  0.3199195E-002  0.1250003E+03  0.7818608E-02  0.1235069E+00
          4   -1    0    0  501    0  0.00000000000E+00  0.00000000000E+00  0.61024523080E+01  0.62332033635E+01  0.12700000000E+01 0.  1.
         -4   -1    0    0    0  501 -0.00000000000E+00 -0.00000000000E+00 -0.63319820961E+03  0.63319948322E+03  0.12700000000E+01 0.  1.
         25    2    1    2    0    0  0.00000000000E+00  0.00000000000E+00 -0.62709575730E+03  0.63943268659E+03  0.12500028739E+03 0.  0.
    9000005    1    3    3    0    0  0.42848134877E+01  0.60236328011E+02 -0.39579265393E+03  0.40037432453E+03  0.10000000000E+01 0.  0.
    9000005    1    3    3    0    0 -0.42848134877E+01 -0.60236328011E+02 -0.23130310337E+03  0.23905836206E+03  0.10000000000E+01 0.  0.
<mgrwt>
<rscale>  0 0.12500029E+03</rscale>
<asrwt>0</asrwt>
<pdfrwt beam="1">  1        4 0.94899506E-03 0.12500029E+03</pdfrwt>
<pdfrwt beam="2">  1       -4 0.97425213E-01 0.12500029E+03</pdfrwt>
<totfact> 0.46469176E+03</totfact>
</mgrwt>
</event>
<event>
 5    1  0.3199195E-002  0.1250196E+03  0.7818608E-02  0.1235039E+00
         -4   -1    0    0    0  501 -0.00000000000E+00  0.00000000000E+00  0.18003654339E+02  0.18048392437E+02  0.12700000000E+01 0.  1.
          4   -1    0    0  501    0  0.00000000000E+00 -0.00000000000E+00 -0.21672179887E+03  0.21672551997E+03  0.12700000000E+01 0.  1.
         25    2    1    2    0    0  0.00000000000E+00  0.00000000000E+00 -0.19871814453E+03  0.23477391241E+03  0.12501955439E+03 0.  0.
    9000005    1    3    3    0    0 -0.30704878902E+02 -0.39269832460E+02 -0.28555538537E+02  0.57457185025E+02  0.10000000000E+01 0.  0.
    9000005    1    3    3    0    0  0.30704878902E+02  0.39269832460E+02 -0.17016260600E+03  0.17731672738E+03  0.10000000000E+01 0.  0.
<mgrwt>
<rscale>  0 0.12501955E+03</rscale>
<asrwt>0</asrwt>
<pdfrwt beam="2">  1        4 0.33345541E-01 0.12501955E+03</pdfrwt>
<pdfrwt beam="1">  1       -4 0.27735208E-02 0.12501955E+03</pdfrwt>
<totfact> 0.84545032E+03</totfact>
</mgrwt>
</event>
<event>
 5    1  0.3199195E-002  0.1250050E+03  0.7818608E-02  0.1235061E+00
         -4   -1    0    0    0  501 -0.00000000000E+00  0.00000000000E+00  0.25102812481E+02  0.25134917833E+02  0.12700000000E+01 0.  1.
          4   -1    0    0  501    0  0.00000000000E+00 -0.00000000000E+00 -0.15548831278E+03  0.15549349926E+03  0.12700000000E+01 0.  1.
         25    2    1    2    0    0  0.00000000000E+00  0.00000000000E+00 -0.13038550030E+03  0.18062841709E+03  0.12500498539E+03 0.  0.
    9000005    1    3    3    0    0  0.51121256464E+02  0.82564864831E+01 -0.11574623244E+03  0.12680592556E+03  0.10000000000E+01 0.  0.
    9000005    1    3    3    0    0 -0.51121256464E+02 -0.82564864831E+01 -0.14639267857E+02  0.53822491534E+02  0.10000000000E+01 0.  0.
<mgrwt>
<rscale>  0 0.12500499E+03</rscale>
<asrwt>0</asrwt>
<pdfrwt beam="2">  1        4 0.23924147E-01 0.12500499E+03</pdfrwt>
<pdfrwt beam="1">  1       -4 0.38648399E-02 0.12500499E+03</pdfrwt>
<totfact> 0.93493558E+03</totfact>
</mgrwt>
</event>
<event>
 5    1  0.3199195E-002  0.1249963E+03  0.7818608E-02  0.1235075E+00
         -4   -1    0    0    0  501 -0.00000000000E+00  0.00000000000E+00  0.16660852087E+03  0.16661336119E+03  0.12700000000E+01 0.  1.
          4   -1    0    0  501    0  0.00000000000E+00 -0.00000000000E+00 -0.23421905439E+02  0.23456311611E+02  0.12700000000E+01 0.  1.
         25    2    1    2    0    0  0.00000000000E+00  0.00000000000E+00  0.14318661543E+03  0.19006967280E+03  0.12499629466E+03 0.  0.
    9000005    1    3    3    0    0 -0.34315255628E+00 -0.46858858318E+02  0.13445781725E+03  0.14239302994E+03  0.10000000000E+01 0.  0.
    9000005    1    3    3    0    0  0.34315255628E+00  0.46858858318E+02  0.87287981820E+01  0.47676642858E+02  0.10000000000E+01 0.  0.
<mgrwt>
<rscale>  0 0.12499629E+03</rscale>
<asrwt>0</asrwt>
<pdfrwt beam="2">  1        4 0.36063890E-02 0.12499629E+03</pdfrwt>
<pdfrwt beam="1">  1       -4 0.25635099E-01 0.12499629E+03</pdfrwt>
<totfact> 0.91842815E+03</totfact>
</mgrwt>
</event>
<event>
 5    1  0.3199195E-002  0.1249984E+03  0.7818608E-02  0.1235072E+00
         -4   -1    0    0    0  501 -0.00000000000E+00  0.00000000000E+00  0.25940076816E+02  0.25971147168E+02  0.12700000000E+01 0.  1.
          4   -1    0    0  501    0  0.00000000000E+00 -0.00000000000E+00 -0.15045982834E+03  0.15046518814E+03  0.12700000000E+01 0.  1.
         25    2    1    2    0    0  0.00000000000E+00  0.00000000000E+00 -0.12451975152E+03  0.17643633531E+03  0.12499844759E+03 0.  0.
    9000005    1    3    3    0    0 -0.18260390267E+02 -0.53829172982E+02 -0.25611423197E+02  0.62353562166E+02  0.10000000000E+01 0.  0.
    9000005    1    3    3    0    0  0.18260390267E+02  0.53829172982E+02 -0.98908328325E+02  0.11408277315E+03  0.10000000000E+01 0.  0.
<mgrwt>
<rscale>  0 0.12499845E+03</rscale>
<asrwt>0</asrwt>
<pdfrwt beam="2">  1        4 0.23150468E-01 0.12499845E+03</pdfrwt>
<pdfrwt beam="1">  1       -4 0.39935835E-02 0.12499845E+03</pdfrwt>
<totfact> 0.94265718E+03</totfact>
</mgrwt>
</event>
<event>
 5    1  0.3199195E-002  0.1249907E+03  0.7818608E-02  0.1235084E+00
         -4   -1    0    0    0  501 -0.00000000000E+00  0.00000000000E+00  0.67892489116E+02  0.67904366416E+02  0.12700000000E+01 0.  1.
          4   -1    0    0  501    0  0.00000000000E+00 -0.00000000000E+00 -0.57503310078E+02  0.57517332778E+02  0.12700000000E+01 0.  1.
         25    2    1    2    0    0  0.00000000000E+00  0.00000000000E+00  0.10389179038E+02  0.12542169919E+03  0.12499067000E+03 0.  0.
    9000005    1    3    3    0    0  0.23421760084E+02  0.52149565158E+02 -0.20121580787E+02  0.60613810348E+02  0.10000000000E+01 0.  0.
    9000005    1    3    3    0    0 -0.23421760084E+02 -0.52149565158E+02  0.30510759825E+02  0.64807888846E+02  0.10000000000E+01 0.  0.
<mgrwt>
<rscale>  0 0.12499067E+03</rscale>
<asrwt>0</asrwt>
<pdfrwt beam="2">  1        4 0.88486554E-02 0.12499067E+03</pdfrwt>
<pdfrwt beam="1">  1       -4 0.10446991E-01 0.12499067E+03</pdfrwt>
<totfact> 0.10445884E+04</totfact>
</mgrwt>
</event>
<event>
 5    1  0.3199195E-002  0.1249972E+03  0.7818608E-02  0.1235074E+00
          4   -1    0    0  501    0  0.00000000000E+00  0.00000000000E+00  0.73013078649E+01  0.74109376288E+01  0.12700000000E+01 0. -1.
         -4   -1    0    0    0  501 -0.00000000000E+00 -0.00000000000E+00 -0.53088591138E+03  0.53088743044E+03  0.12700000000E+01 0. -1.
         25    2    1    2    0    0  0.00000000000E+00  0.00000000000E+00 -0.52358460352E+03  0.53829836807E+03  0.12499718409E+03 0.  0.
    9000005    1    3    3    0    0 -0.57205551905E+02  0.25043036200E+02 -0.25174316354E+03  0.25937472741E+03  0.10000000000E+01 0.  0.
    9000005    1    3    3    0    0  0.57205551905E+02 -0.25043036200E+02 -0.27184143998E+03  0.27892364066E+03  0.10000000000E+01 0.  0.
<mgrwt>
<rscale>  0 0.12499718E+03</rscale>
<asrwt>0</asrwt>
<pdfrwt beam="1">  1        4 0.11318285E-02 0.12499718E+03</pdfrwt>
<pdfrwt beam="2">  1       -4 0.81683275E-01 0.12499718E+03</pdfrwt>
<totfact> 0.53013981E+03</totfact>
</mgrwt>
</event>
<event>
 5    1  0.3199195E-002  0.1249958E+03  0.7818608E-02  0.1235076E+00
         -4   -1    0    0    0  501 -0.00000000000E+00  0.00000000000E+00  0.18448281599E+02  0.18491944029E+02  0.12700000000E+01 0.  1.
          4   -1    0    0  501    0  0.00000000000E+00 -0.00000000000E+00 -0.21143053062E+03  0.21143434484E+03  0.12700000000E+01 0.  1.
         25    2    1    2    0    0  0.00000000000E+00  0.00000000000E+00 -0.19298224902E+03  0.22992628887E+03  0.12499579943E+03 0.  0.
    9000005    1    3    3    0    0 -0.11486785624E+02  0.35788695439E+02 -0.46609156296E+01  0.37888007333E+02  0.10000000000E+01 0.  0.
    9000005    1    3    3    0    0  0.11486785624E+02 -0.35788695439E+02 -0.18832133339E+03  0.19203828154E+03  0.10000000000E+01 0.  0.
<mgrwt>
<rscale>  0 0.12499580E+03</rscale>
<asrwt>0</asrwt>
<pdfrwt beam="2">  1        4 0.32531424E-01 0.12499580E+03</pdfrwt>
<pdfrwt beam="1">  1       -4 0.28418494E-02 0.12499580E+03</pdfrwt>
<totfact> 0.85328914E+03</totfact>
</mgrwt>
</event>
<event>
 5    1  0.3199195E-002  0.1249983E+03  0.7818608E-02  0.1235072E+00
          4   -1    0    0  501    0  0.00000000000E+00  0.00000000000E+00  0.39783283884E+02  0.39803549799E+02  0.12700000000E+01 0.  1.
         -4   -1    0    0    0  501 -0.00000000000E+00 -0.00000000000E+00 -0.98136240868E+02  0.98144458181E+02  0.12700000000E+01 0.  1.
         25    2    1    2    0    0  0.00000000000E+00  0.00000000000E+00 -0.58352956984E+02  0.13794800798E+03  0.12499834126E+03 0.  0.
    9000005    1    3    3    0    0 -0.15495138672E+02 -0.10506773991E+02 -0.94974054409E+02  0.96806831541E+02  0.10000000000E+01 0.  0.
    9000005    1    3    3    0    0  0.15495138672E+02  0.10506773991E+02  0.36621097425E+02  0.41141176439E+02  0.10000000000E+01 0.  0.
<mgrwt>
<rscale>  0 0.12499834E+03</rscale>
<asrwt>0</asrwt>
<pdfrwt beam="1">  1        4 0.61226963E-02 0.12499834E+03</pdfrwt>
<pdfrwt beam="2">  1       -4 0.15100074E-01 0.12499834E+03</pdfrwt>
<totfact> 0.10176673E+04</totfact>
</mgrwt>
</event>
<event>
 5    1  0.3199195E-002  0.1249994E+03  0.7818608E-02  0.1235070E+00
          4   -1    0    0  501    0  0.00000000000E+00  0.00000000000E+00  0.29818895136E+01  0.32410746784E+01  0.12700000000E+01 0. -1.
         -4   -1    0    0    0  501 -0.00000000000E+00 -0.00000000000E+00 -0.12551596333E+04  0.12551602758E+04  0.12700000000E+01 0. -1.
         25    2    1    2    0    0  0.00000000000E+00  0.00000000000E+00 -0.12521777437E+04  0.12584013504E+04  0.12499942748E+03 0.  0.
    9000005    1    3    3    0    0  0.49641543859E+02 -0.35475157127E+02 -0.49010837606E+03  0.49389269071E+03  0.10000000000E+01 0.  0.
    9000005    1    3    3    0    0 -0.49641543859E+02  0.35475157127E+02 -0.76206936767E+03  0.76450865973E+03  0.10000000000E+01 0.  0.
<mgrwt>
<rscale>  0 0.12499943E+03</rscale>
<asrwt>0</asrwt>
<pdfrwt beam="1">  1        4 0.47873998E-03 0.12499943E+03</pdfrwt>
<pdfrwt beam="2">  1       -4 0.19312107E+00 0.12499943E+03</pdfrwt>
<totfact> 0.23232451E+03</totfact>
</mgrwt>
</event>
<event>
 5    1  0.3199195E-002  0.1250158E+03  0.7818608E-02  0.1235045E+00
         -4   -1    0    0    0  501 -0.00000000000E+00  0.00000000000E+00  0.10150646957E+03  0.10151441408E+03  0.12700000000E+01 0.  1.
          4   -1    0    0  501    0  0.00000000000E+00 -0.00000000000E+00 -0.38472556740E+02  0.38493512728E+02  0.12700000000E+01 0.  1.
         25    2    1    2    0    0  0.00000000000E+00  0.00000000000E+00  0.63033912834E+02  0.14000792680E+03  0.12501578061E+03 0.  0.
    9000005    1    3    3    0    0 -0.42097842998E+02  0.33458040412E+02 -0.41551093671E+01  0.53943802120E+02  0.10000000000E+01 0.  0.
    9000005    1    3    3    0    0  0.42097842998E+02 -0.33458040412E+02  0.67189022201E+02  0.86064124684E+02  0.10000000000E+01 0.  0.
<mgrwt>
<rscale>  0 0.12501578E+03</rscale>
<asrwt>0</asrwt>
<pdfrwt beam="2">  1        4 0.59210780E-02 0.12501578E+03</pdfrwt>
<pdfrwt beam="1">  1       -4 0.15618603E-01 0.12501578E+03</pdfrwt>
<totfact> 0.10129820E+04</totfact>
</mgrwt>
</event>
<event>
 5    1  0.3199195E-002  0.1250069E+03  0.7818608E-02  0.1235059E+00
         -4   -1    0    0    0  501 -0.00000000000E+00  0.00000000000E+00  0.44006821076E+03  0.44007004332E+03  0.12700000000E+01 0. -1.
          4   -1    0    0  501    0  0.00000000000E+00 -0.00000000000E+00 -0.88301598020E+01  0.89210213613E+01  0.12700000000E+01 0. -1.
         25    2    1    2    0    0  0.00000000000E+00  0.00000000000E+00  0.43123805096E+03  0.44899106468E+03  0.12500687806E+03 0.  0.
    9000005    1    3    3    0    0 -0.32185770884E+02 -0.31564310753E+02  0.37108125106E+03  0.37381081372E+03  0.10000000000E+01 0.  0.
    9000005    1    3    3    0    0  0.32185770884E+02  0.31564310753E+02  0.60156799901E+02  0.75180250964E+02  0.10000000000E+01 0.  0.
<mgrwt>
<rscale>  0 0.12500688E+03</rscale>
<asrwt>0</asrwt>
<pdfrwt beam="2">  1        4 0.13656163E-02 0.12500688E+03</pdfrwt>
<pdfrwt beam="1">  1       -4 0.67709938E-01 0.12500688E+03</pdfrwt>
<totfact> 0.60042195E+03</totfact>
</mgrwt>
</event>
<event>
 5    1  0.3199195E-002  0.1250005E+03  0.7818608E-02  0.1235069E+00
         -4   -1    0    0    0  501 -0.00000000000E+00  0.00000000000E+00  0.13606966031E+03  0.13607558693E+03  0.12700000000E+01 0.  1.
          4   -1    0    0  501    0  0.00000000000E+00 -0.00000000000E+00 -0.28687334396E+02  0.28715432345E+02  0.12700000000E+01 0.  1.
         25    2    1    2    0    0  0.00000000000E+00  0.00000000000E+00  0.10738232592E+03  0.16479101927E+03  0.12500046445E+03 0.  0.
    9000005    1    3    3    0    0  0.33744132254E+02  0.52107663797E+02  0.44239241168E+02  0.76236379420E+02  0.10000000000E+01 0.  0.
    9000005    1    3    3    0    0 -0.33744132254E+02 -0.52107663797E+02  0.63143084750E+02  0.88554639854E+02  0.10000000000E+01 0.  0.
<mgrwt>
<rscale>  0 0.12500046E+03</rscale>
<asrwt>0</asrwt>
<pdfrwt beam="2">  1        4 0.44160534E-02 0.12500046E+03</pdfrwt>
<pdfrwt beam="1">  1       -4 0.20936411E-01 0.12500046E+03</pdfrwt>
<totfact> 0.96425978E+03</totfact>
</mgrwt>
</event>
<event>
 5    1  0.3199195E-002  0.1249989E+03  0.7818608E-02  0.1235071E+00
         -4   -1    0    0    0  501 -0.00000000000E+00  0.00000000000E+00  0.61358675136E+02  0.61371816940E+02  0.12700000000E+01 0. -1.
          4   -1    0    0  501    0  0.00000000000E+00 -0.00000000000E+00 -0.63635143359E+02  0.63647815126E+02  0.12700000000E+01 0. -1.
         25    2    1    2    0    0  0.00000000000E+00  0.00000000000E+00 -0.22764682229E+01  0.12501963207E+03  0.12499890437E+03 0.  0.
    9000005    1    3    3    0    0 -0.54728568360E+02  0.20834639482E+02 -0.22956597119E+02  0.62907104117E+02  0.10000000000E+01 0.  0.
    9000005    1    3    3    0    0  0.54728568360E+02 -0.20834639482E+02  0.20680128896E+02  0.62112527949E+02  0.10000000000E+01 0.  0.
<mgrwt>
<rscale>  0 0.12499890E+03</rscale>
<asrwt>0</asrwt>
<pdfrwt beam="2">  1        4 0.97920078E-02 0.12499890E+03</pdfrwt>
<pdfrwt beam="1">  1       -4 0.94417818E-02 0.12499890E+03</pdfrwt>
<totfact> 0.10452695E+04</totfact>
</mgrwt>
</event>
<event>
 5    1  0.3199195E-002  0.1249992E+03  0.7818608E-02  0.1235071E+00
         -4   -1    0    0    0  501 -0.00000000000E+00  0.00000000000E+00  0.30908814919E+02  0.30934895179E+02  0.12700000000E+01 0.  1.
          4   -1    0    0  501    0  0.00000000000E+00 -0.00000000000E+00 -0.12629552216E+03  0.12630190742E+03  0.12700000000E+01 0.  1.
         25    2    1    2    0    0  0.00000000000E+00  0.00000000000E+00 -0.95386707237E+02  0.15723680259E+03  0.12499915269E+03 0.  0.
    9000005    1    3    3    0    0  0.65587268251E+01 -0.30056706487E+02 -0.11611650477E+03  0.12012687120E+03  0.10000000000E+01 0.  0.
    9000005    1    3    3    0    0 -0.65587268251E+01  0.30056706487E+02  0.20729797537E+02  0.37109931398E+02  0.10000000000E+01 0.  0.
<mgrwt>
<rscale>  0 0.12499915E+03</rscale>
<asrwt>0</asrwt>
<pdfrwt beam="2">  1        4 0.19432577E-01 0.12499915E+03</pdfrwt>
<pdfrwt beam="1">  1       -4 0.47576997E-02 0.12499915E+03</pdfrwt>
<totfact> 0.97880033E+03</totfact>
</mgrwt>
</event>
<event>
 5    1  0.3199195E-002  0.1249929E+03  0.7818608E-02  0.1235080E+00
         -4   -1    0    0    0  501 -0.00000000000E+00  0.00000000000E+00  0.36798408318E+01  0.38928304031E+01  0.12700000000E+01 0.  1.
          4   -1    0    0  501    0  0.00000000000E+00 -0.00000000000E+00 -0.10313404151E+04  0.10313411971E+04  0.12700000000E+01 0.  1.
         25    2    1    2    0    0  0.00000000000E+00  0.00000000000E+00 -0.10276605743E+04  0.10352340275E+04  0.12499294251E+03 0.  0.
    9000005    1    3    3    0    0 -0.55581107658E+02  0.15556161416E+02 -0.31547642104E+03  0.32071424340E+03  0.10000000000E+01 0.  0.
    9000005    1    3    3    0    0  0.55581107658E+02 -0.15556161416E+02 -0.71218415327E+03  0.71451978409E+03  0.10000000000E+01 0.  0.
<mgrwt>
<rscale>  0 0.12499294E+03</rscale>
<asrwt>0</asrwt>
<pdfrwt beam="2">  1        4 0.15868398E+00 0.12499294E+03</pdfrwt>
<pdfrwt beam="1">  1       -4 0.58257414E-03 0.12499294E+03</pdfrwt>
<totfact> 0.29464915E+03</totfact>
</mgrwt>
</event>
<event>
 5    1  0.3199195E-002  0.1250077E+03  0.7818608E-02  0.1235057E+00
          4   -1    0    0  501    0  0.00000000000E+00  0.00000000000E+00  0.54087666163E+03  0.54087815263E+03  0.12700000000E+01 0.  1.
         -4   -1    0    0    0  501 -0.00000000000E+00 -0.00000000000E+00 -0.71656273985E+01  0.72773014239E+01  0.12700000000E+01 0.  1.
         25    2    1    2    0    0  0.00000000000E+00  0.00000000000E+00  0.53371103423E+03  0.54815545406E+03  0.12500773477E+03 0.  0.
    9000005    1    3    3    0    0 -0.49279533814E+02 -0.21112281879E+02  0.40768977840E+03  0.41120087100E+03  0.10000000000E+01 0.  0.
    9000005    1    3    3    0    0  0.49279533814E+02  0.21112281879E+02  0.12602125583E+03  0.13695458306E+03  0.10000000000E+01 0.  0.
<mgrwt>
<rscale>  0 0.12500773E+03</rscale>
<asrwt>0</asrwt>
<pdfrwt beam="1">  1        4 0.83220519E-01 0.12500773E+03</pdfrwt>
<pdfrwt beam="2">  1       -4 0.11111089E-02 0.12500773E+03</pdfrwt>
<totfact> 0.52303844E+03</totfact>
</mgrwt>
</event>
<event>
 5    1  0.3199195E-002  0.1250143E+03  0.7818608E-02  0.1235047E+00
          4   -1    0    0  501    0  0.00000000000E+00  0.00000000000E+00  0.41953642526E+02  0.41972860532E+02  0.12700000000E+01 0.  1.
         -4   -1    0    0    0  501 -0.00000000000E+00 -0.00000000000E+00 -0.93085114467E+02  0.93093777640E+02  0.12700000000E+01 0.  1.
         25    2    1    2    0    0  0.00000000000E+00  0.00000000000E+00 -0.51131471940E+02  0.13506663817E+03  0.12501427648E+03 0.  0.
    9000005    1    3    3    0    0 -0.21963917634E+02 -0.41068768721E+02 -0.70595430389E+02  0.84579975372E+02  0.10000000000E+01 0.  0.
    9000005    1    3    3    0    0  0.21963917634E+02  0.41068768721E+02  0.19463958449E+02  0.50486662799E+02  0.10000000000E+01 0.  0.
<mgrwt>
<rscale>  0 0.12501428E+03</rscale>
<asrwt>0</asrwt>
<pdfrwt beam="1">  1        4 0.64565513E-02 0.12501428E+03</pdfrwt>
<pdfrwt beam="2">  1       -4 0.14322931E-01 0.12501428E+03</pdfrwt>
<totfact> 0.10233371E+04</totfact>
</mgrwt>
</event>
<event>
 5    1  0.3199195E-002  0.1249861E+03  0.7818608E-02  0.1235091E+00
          4   -1    0    0  501    0  0.00000000000E+00  0.00000000000E+00  0.58173897747E+02  0.58187758842E+02  0.12700000000E+01 0. -1.
         -4   -1    0    0    0  501 -0.00000000000E+00 -0.00000000000E+00 -0.67104997262E+02  0.67117013920E+02  0.12700000000E+01 0. -1.
         25    2    1    2    0    0  0.00000000000E+00  0.00000000000E+00 -0.89310995158E+01  0.12530477276E+03  0.12498608538E+03 0.  0.
    9000005    1    3    3    0    0  0.45803018328E+02  0.39795039872E+02 -0.19430723511E+02  0.63719029360E+02  0.10000000000E+01 0.  0.
    9000005    1    3    3    0    0 -0.45803018328E+02 -0.39795039872E+02  0.10499623995E+02  0.61585743402E+02  0.10000000000E+01 0.  0.
<mgrwt>
<rscale>  0 0.12498609E+03</rscale>
<asrwt>0</asrwt>
<pdfrwt beam="1">  1        4 0.89518210E-02 0.12498609E+03</pdfrwt>
<pdfrwt beam="2">  1       -4 0.10325836E-01 0.12498609E+03</pdfrwt>
<totfact> 0.10449532E+04</totfact>
</mgrwt>
</event>
<event>
 5    1  0.3199195E-002  0.1249970E+03  0.7818608E-02  0.1235074E+00
          4   -1    0    0  501    0  0.00000000000E+00  0.00000000000E+00  0.14655063045E+03  0.14655613322E+03  0.12700000000E+01 0.  1.
         -4   -1    0    0    0  501 -0.00000000000E+00 -0.00000000000E+00 -0.26632187929E+02  0.26662451761E+02  0.12700000000E+01 0.  1.
         25    2    1    2    0    0  0.00000000000E+00  0.00000000000E+00  0.11991844252E+03  0.17321858498E+03  0.12499698127E+03 0.  0.
    9000005    1    3    3    0    0 -0.18815495160E+02 -0.62200874118E+01 -0.22169260070E+02  0.29752116522E+02  0.10000000000E+01 0.  0.
    9000005    1    3    3    0    0  0.18815495160E+02  0.62200874118E+01  0.14208770259E+03  0.14346646846E+03  0.10000000000E+01 0.  0.
<mgrwt>
<rscale>  0 0.12499698E+03</rscale>
<asrwt>0</asrwt>
<pdfrwt beam="1">  1        4 0.22549001E-01 0.12499698E+03</pdfrwt>
<pdfrwt beam="2">  1       -4 0.41000111E-02 0.12499698E+03</pdfrwt>
<totfact> 0.94858544E+03</totfact>
</mgrwt>
</event>
<event>
 5    1  0.3199195E-002  0.1250009E+03  0.7818608E-02  0.1235068E+00
         -4   -1    0    0    0  501 -0.00000000000E+00  0.00000000000E+00  0.10157008834E+03  0.10157802787E+03  0.12700000000E+01 0.  1.
          4   -1    0    0  501    0  0.00000000000E+00 -0.00000000000E+00 -0.38439304001E+02  0.38460278108E+02  0.12700000000E+01 0.  1.
         25    2    1    2    0    0  0.00000000000E+00  0.00000000000E+00  0.63130784340E+02  0.14003830598E+03  0.12500092483E+03 0.  0.
    9000005    1    3    3    0    0 -0.24329821158E+02 -0.23241426964E+02  0.90561655583E+02  0.96615307207E+02  0.10000000000E+01 0.  0.
    9000005    1    3    3    0    0  0.24329821158E+02  0.23241426964E+02 -0.27430871243E+02  0.43422998769E+02  0.10000000000E+01 0.  0.
<mgrwt>
<rscale>  0 0.12500092E+03</rscale>
<asrwt>0</asrwt>
<pdfrwt beam="2">  1        4 0.59159633E-02 0.12500092E+03</pdfrwt>
<pdfrwt beam="1">  1       -4 0.15628391E-01 0.12500092E+03</pdfrwt>
<totfact> 0.10132581E+04</totfact>
</mgrwt>
</event>
<event>
 5    1  0.3199195E-002  0.1250067E+03  0.7818608E-02  0.1235059E+00
          4   -1    0    0  501    0  0.00000000000E+00  0.00000000000E+00  0.27083289827E+03  0.27083587592E+03  0.12700000000E+01 0. -1.
         -4   -1    0    0    0  501 -0.00000000000E+00 -0.00000000000E+00 -0.14393639545E+02  0.14449559141E+02  0.12700000000E+01 0. -1.
         25    2    1    2    0    0  0.00000000000E+00  0.00000000000E+00  0.25643925872E+03  0.28528543506E+03  0.12500674399E+03 0.  0.
    9000005    1    3    3    0    0  0.40135474356E+02 -0.39633445917E+02  0.18962650358E+03  0.19784053477E+03  0.10000000000E+01 0.  0.
    9000005    1    3    3    0    0 -0.40135474356E+02  0.39633445917E+02  0.66812755138E+02  0.87444900287E+02  0.10000000000E+01 0.  0.
<mgrwt>
<rscale>  0 0.12500674E+03</rscale>
<asrwt>0</asrwt>
<pdfrwt beam="1">  1        4 0.41671132E-01 0.12500674E+03</pdfrwt>
<pdfrwt beam="2">  1       -4 0.22189365E-02 0.12500674E+03</pdfrwt>
<totfact> 0.77470861E+03</totfact>
</mgrwt>
</event>
<event>
 5    1  0.3199195E-002  0.1250073E+03  0.7818608E-02  0.1235058E+00
         -4   -1    0    0    0  501 -0.00000000000E+00  0.00000000000E+00  0.15696384309E+02  0.15747678571E+02  0.12700000000E+01 0.  1.
          4   -1    0    0  501    0  0.00000000000E+00 -0.00000000000E+00 -0.24843317354E+03  0.24843641966E+03  0.12700000000E+01 0.  1.
         25    2    1    2    0    0  0.00000000000E+00  0.00000000000E+00 -0.23273678923E+03  0.26418409823E+03  0.12500729858E+03 0.  0.
    9000005    1    3    3    0    0  0.40674608333E+02  0.13159669975E+02 -0.21270805223E+03  0.21696385911E+03  0.10000000000E+01 0.  0.
    9000005    1    3    3    0    0 -0.40674608333E+02 -0.13159669975E+02 -0.20028736998E+02  0.47220239121E+02  0.10000000000E+01 0.  0.
<mgrwt>
<rscale>  0 0.12500730E+03</rscale>
<asrwt>0</asrwt>
<pdfrwt beam="2">  1        4 0.38224681E-01 0.12500730E+03</pdfrwt>
<pdfrwt beam="1">  1       -4 0.24190239E-02 0.12500730E+03</pdfrwt>
<totfact> 0.80309401E+03</totfact>
</mgrwt>
</event>
<event>
 5    1  0.3199195E-002  0.1249611E+03  0.7818608E-02  0.1235130E+00
          4   -1    0    0  501    0  0.00000000000E+00  0.00000000000E+00  0.39131847471E+02  0.39152450581E+02  0.12700000000E+01 0.  1.
         -4   -1    0    0    0  501 -0.00000000000E+00 -0.00000000000E+00 -0.99709806957E+02  0.99717894600E+02  0.12700000000E+01 0.  1.
         25    2    1    2    0    0  0.00000000000E+00  0.00000000000E+00 -0.60577959486E+02  0.13887034518E+03  0.12496112834E+03 0.  0.
    9000005    1    3    3    0    0 -0.41146358424E+02  0.33472547047E+02  0.63907061287E+01  0.53434776524E+02  0.10000000000E+01 0.  0.
    9000005    1    3    3    0    0  0.41146358424E+02 -0.33472547047E+02 -0.66968665615E+02  0.85435568656E+02  0.10000000000E+01 0.  0.
<mgrwt>
<rscale>  0 0.12496113E+03</rscale>
<asrwt>0</asrwt>
<pdfrwt beam="1">  1        4 0.60224912E-02 0.12496113E+03</pdfrwt>
<pdfrwt beam="2">  1       -4 0.15342177E-01 0.12496113E+03</pdfrwt>
<totfact> 0.10165953E+04</totfact>
</mgrwt>
</event>
<event>
 5    1  0.3199195E-002  0.1249994E+03  0.7818608E-02  0.1235070E+00
          4   -1    0    0  501    0  0.00000000000E+00  0.00000000000E+00  0.22203620119E+02  0.22239911115E+02  0.12700000000E+01 0. -1.
         -4   -1    0    0    0  501 -0.00000000000E+00 -0.00000000000E+00 -0.17574445808E+03  0.17574904679E+03  0.12700000000E+01 0. -1.
         25    2    1    2    0    0  0.00000000000E+00  0.00000000000E+00 -0.15354083796E+03  0.19798895790E+03  0.12499935411E+03 0.  0.
    9000005    1    3    3    0    0  0.57407905771E+02  0.15792843777E+02 -0.10682853035E+03  0.12230460521E+03  0.10000000000E+01 0.  0.
    9000005    1    3    3    0    0 -0.57407905771E+02 -0.15792843777E+02 -0.46712307612E+02  0.75684352689E+02  0.10000000000E+01 0.  0.
<mgrwt>
<rscale>  0 0.12499935E+03</rscale>
<asrwt>0</asrwt>
<pdfrwt beam="1">  1        4 0.34190863E-02 0.12499935E+03</pdfrwt>
<pdfrwt beam="2">  1       -4 0.27040753E-01 0.12499935E+03</pdfrwt>
<totfact> 0.90476851E+03</totfact>
</mgrwt>
</event>
<event>
 5    1  0.3199195E-002  0.1250078E+03  0.7818608E-02  0.1235057E+00
         -4   -1    0    0    0  501 -0.00000000000E+00  0.00000000000E+00  0.22942006198E+03  0.22942357712E+03  0.12700000000E+01 0.  1.
          4   -1    0    0  501    0  0.00000000000E+00 -0.00000000000E+00 -0.17001412991E+02  0.17048781296E+02  0.12700000000E+01 0.  1.
         25    2    1    2    0    0  0.00000000000E+00  0.00000000000E+00  0.21241864899E+03  0.24647235842E+03  0.12500776386E+03 0.  0.
    9000005    1    3    3    0    0  0.33338648348E+02 -0.16999097209E+02  0.75220523402E+01  0.38183976365E+02  0.10000000000E+01 0.  0.
    9000005    1    3    3    0    0 -0.33338648348E+02  0.16999097209E+02  0.20489659665E+03  0.20828838205E+03  0.10000000000E+01 0.  0.
<mgrwt>
<rscale>  0 0.12500776E+03</rscale>
<asrwt>0</asrwt>
<pdfrwt beam="2">  1        4 0.26195160E-02 0.12500776E+03</pdfrwt>
<pdfrwt beam="1">  1       -4 0.35299309E-01 0.12500776E+03</pdfrwt>
<totfact> 0.82828438E+03</totfact>
</mgrwt>
</event>
<event>
 5    1  0.3199195E-002  0.1249992E+03  0.7818608E-02  0.1235071E+00
         -4   -1    0    0    0  501 -0.00000000000E+00  0.00000000000E+00  0.21639576209E+04  0.21639579936E+04  0.12700000000E+01 0.  1.
          4   -1    0    0  501    0  0.00000000000E+00 -0.00000000000E+00 -0.15813203722E+01  0.20281701407E+01  0.12700000000E+01 0.  1.
         25    2    1    2    0    0  0.00000000000E+00  0.00000000000E+00  0.21623763006E+04  0.21659861638E+04  0.12499918527E+03 0.  0.
    9000005    1    3    3    0    0 -0.40284313516E+02  0.43434734371E+02  0.14259226535E+04  0.14271530457E+04  0.10000000000E+01 0.  0.
    9000005    1    3    3    0    0  0.40284313516E+02 -0.43434734371E+02  0.73645364710E+03  0.73883311810E+03  0.10000000000E+01 0.  0.
<mgrwt>
<rscale>  0 0.12499919E+03</rscale>
<asrwt>0</asrwt>
<pdfrwt beam="2">  1        4 0.27768043E-03 0.12499919E+03</pdfrwt>
<pdfrwt beam="1">  1       -4 0.33295258E+00 0.12499919E+03</pdfrwt>
<totfact> 0.78473558E+02</totfact>
</mgrwt>
</event>
<event>
 5    1  0.3199195E-002  0.1250012E+03  0.7818608E-02  0.1235067E+00
          4   -1    0    0  501    0  0.00000000000E+00  0.00000000000E+00  0.61305162315E+03  0.61305293862E+03  0.12700000000E+01 0. -1.
         -4   -1    0    0    0  501 -0.00000000000E+00 -0.00000000000E+00 -0.63073204617E+01  0.64339094963E+01  0.12700000000E+01 0. -1.
         25    2    1    2    0    0  0.00000000000E+00  0.00000000000E+00  0.60674430269E+03  0.61948684811E+03  0.12500122456E+03 0.  0.
    9000005    1    3    3    0    0  0.10817221128E+02  0.61545287406E+02  0.29989647990E+03  0.30633924549E+03  0.10000000000E+01 0.  0.
    9000005    1    3    3    0    0 -0.10817221128E+02 -0.61545287406E+02  0.30684782279E+03  0.31314760262E+03  0.10000000000E+01 0.  0.
<mgrwt>
<rscale>  0 0.12500122E+03</rscale>
<asrwt>0</asrwt>
<pdfrwt beam="1">  1        4 0.94325479E-01 0.12500122E+03</pdfrwt>
<pdfrwt beam="2">  1       -4 0.98019574E-03 0.12500122E+03</pdfrwt>
<totfact> 0.47658921E+03</totfact>
</mgrwt>
</event>
<event>
 5    1  0.3199195E-002  0.1250029E+03  0.7818608E-02  0.1235065E+00
          4   -1    0    0  501    0  0.00000000000E+00  0.00000000000E+00  0.14705349467E+02  0.14760088175E+02  0.12700000000E+01 0. -1.
         -4   -1    0    0    0  501 -0.00000000000E+00 -0.00000000000E+00 -0.26509720337E+03  0.26510024544E+03  0.12700000000E+01 0. -1.
         25    2    1    2    0    0  0.00000000000E+00  0.00000000000E+00 -0.25039185390E+03  0.27986033362E+03  0.12500290330E+03 0.  0.
    9000005    1    3    3    0    0  0.57945177830E+02  0.23054832574E+02 -0.13422441779E+03  0.14800798380E+03  0.10000000000E+01 0.  0.
    9000005    1    3    3    0    0 -0.57945177830E+02 -0.23054832574E+02 -0.11616743611E+03  0.13185234982E+03  0.10000000000E+01 0.  0.
<mgrwt>
<rscale>  0 0.12500290E+03</rscale>
<asrwt>0</asrwt>
<pdfrwt beam="1">  1        4 0.22668063E-02 0.12500290E+03</pdfrwt>
<pdfrwt beam="2">  1       -4 0.40788626E-01 0.12500290E+03</pdfrwt>
<totfact> 0.78191583E+03</totfact>
</mgrwt>
</event>
<event>
 5    1  0.3199195E-002  0.1249985E+03  0.7818608E-02  0.1235072E+00
          4   -1    0    0  501    0  0.00000000000E+00  0.00000000000E+00  0.15975459544E+03  0.15975964341E+03  0.12700000000E+01 0. -1.
         -4   -1    0    0    0  501 -0.00000000000E+00 -0.00000000000E+00 -0.24429051627E+02  0.24462041276E+02  0.12700000000E+01 0. -1.
         25    2    1    2    0    0  0.00000000000E+00  0.00000000000E+00  0.13532554381E+03  0.18422168469E+03  0.12499850520E+03 0.  0.
    9000005    1    3    3    0    0  0.61130988304E+02 -0.15133491683E+01  0.86643726236E+02  0.10605386958E+03  0.10000000000E+01 0.  0.
    9000005    1    3    3    0    0 -0.61130988304E+02  0.15133491683E+01  0.48681817574E+02  0.78167815109E+02  0.10000000000E+01 0.  0.
<mgrwt>
<rscale>  0 0.12499851E+03</rscale>
<asrwt>0</asrwt>
<pdfrwt beam="1">  1        4 0.24580557E-01 0.12499851E+03</pdfrwt>
<pdfrwt beam="2">  1       -4 0.37612414E-02 0.12499851E+03</pdfrwt>
<totfact> 0.92865668E+03</totfact>
</mgrwt>
</event>
<event>
 5    1  0.3199195E-002  0.1249960E+03  0.7818608E-02  0.1235076E+00
          4   -1    0    0  501    0  0.00000000000E+00  0.00000000000E+00  0.42140751019E+02  0.42159883734E+02  0.12700000000E+01 0.  1.
         -4   -1    0    0    0  501 -0.00000000000E+00 -0.00000000000E+00 -0.92644861748E+02  0.92653566085E+02  0.12700000000E+01 0.  1.
         25    2    1    2    0    0  0.00000000000E+00  0.00000000000E+00 -0.50504110729E+02  0.13481344982E+03  0.12499600414E+03 0.  0.
    9000005    1    3    3    0    0 -0.11532468040E+02  0.48187778230E+02  0.15816760295E+02  0.52021434967E+02  0.10000000000E+01 0.  0.
    9000005    1    3    3    0    0  0.11532468040E+02 -0.48187778230E+02 -0.66320871024E+02  0.82792014852E+02  0.10000000000E+01 0.  0.
<mgrwt>
<rscale>  0 0.12499600E+03</rscale>
<asrwt>0</asrwt>
<pdfrwt beam="1">  1        4 0.64853338E-02 0.12499600E+03</pdfrwt>
<pdfrwt beam="2">  1       -4 0.14255197E-01 0.12499600E+03</pdfrwt>
<totfact> 0.10242927E+04</totfact>
</mgrwt>
</event>
<event>
 5    1  0.3199195E-002  0.1249998E+03  0.7818608E-02  0.1235070E+00
          4   -1    0    0  501    0  0.00000000000E+00  0.00000000000E+00  0.36006036244E+02  0.36028426916E+02  0.12700000000E+01 0. -1.
         -4   -1    0    0    0  501 -0.00000000000E+00 -0.00000000000E+00 -0.10842856742E+03  0.10843600478E+03  0.12700000000E+01 0. -1.
         25    2    1    2    0    0  0.00000000000E+00  0.00000000000E+00 -0.72422531177E+02  0.14446443170E+03  0.12499979601E+03 0.  0.
    9000005    1    3    3    0    0 -0.19128554241E+02  0.11977020087E+02  0.31137280122E+02  0.38469219005E+02  0.10000000000E+01 0.  0.
    9000005    1    3    3    0    0  0.19128554241E+02 -0.11977020087E+02 -0.10355981130E+03  0.10599521269E+03  0.10000000000E+01 0.  0.
<mgrwt>
<rscale>  0 0.12499980E+03</rscale>
<asrwt>0</asrwt>
<pdfrwt beam="1">  1        4 0.55416847E-02 0.12499980E+03</pdfrwt>
<pdfrwt beam="2">  1       -4 0.16683612E-01 0.12499980E+03</pdfrwt>
<totfact> 0.10041927E+04</totfact>
</mgrwt>
</event>
<event>
 5    1  0.3199195E-002  0.1249987E+03  0.7818608E-02  0.1235071E+00
          4   -1    0    0  501    0  0.00000000000E+00  0.00000000000E+00  0.18041960988E+03  0.18042407969E+03  0.12700000000E+01 0. -1.
         -4   -1    0    0    0  501 -0.00000000000E+00 -0.00000000000E+00 -0.21627097727E+02  0.21664354505E+02  0.12700000000E+01 0. -1.
         25    2    1    2    0    0  0.00000000000E+00  0.00000000000E+00  0.15879251216E+03  0.20208843419E+03  0.12499869326E+03 0.  0.
    9000005    1    3    3    0    0  0.27167961116E+02  0.37945847890E+02  0.12206178269E+02  0.48249106430E+02  0.10000000000E+01 0.  0.
    9000005    1    3    3    0    0 -0.27167961116E+02 -0.37945847890E+02  0.14658633389E+03  0.15383932776E+03  0.10000000000E+01 0.  0.
<mgrwt>
<rscale>  0 0.12499869E+03</rscale>
<asrwt>0</asrwt>
<pdfrwt beam="1">  1        4 0.27760072E-01 0.12499869E+03</pdfrwt>
<pdfrwt beam="2">  1       -4 0.33304556E-02 0.12499869E+03</pdfrwt>
<totfact> 0.89787092E+03</totfact>
</mgrwt>
</event>
<event>
 5    1  0.3199195E-002  0.1250018E+03  0.7818608E-02  0.1235066E+00
          4   -1    0    0  501    0  0.00000000000E+00  0.00000000000E+00  0.19238499155E+02  0.19280372137E+02  0.12700000000E+01 0. -1.
         -4   -1    0    0    0  501 -0.00000000000E+00 -0.00000000000E+00 -0.20278473343E+03  0.20278871027E+03  0.12700000000E+01 0. -1.
         25    2    1    2    0    0  0.00000000000E+00  0.00000000000E+00 -0.18354623428E+03  0.22206908241E+03  0.12500182896E+03 0.  0.
    9000005    1    3    3    0    0 -0.43304356574E+02 -0.22841745907E+02 -0.22777257037E+02  0.54007555884E+02  0.10000000000E+01 0.  0.
    9000005    1    3    3    0    0  0.43304356574E+02  0.22841745907E+02 -0.16076897724E+03  0.16806152652E+03  0.10000000000E+01 0.  0.
<mgrwt>
<rscale>  0 0.12500183E+03</rscale>
<asrwt>0</asrwt>
<pdfrwt beam="1">  1        4 0.29632961E-02 0.12500183E+03</pdfrwt>
<pdfrwt beam="2">  1       -4 0.31201177E-01 0.12500183E+03</pdfrwt>
<totfact> 0.86538465E+03</totfact>
</mgrwt>
</event>
<event>
 5    1  0.3199195E-002  0.1249991E+03  0.7818608E-02  0.1235071E+00
          4   -1    0    0  501    0  0.00000000000E+00  0.00000000000E+00  0.33086509202E+02  0.33110874214E+02  0.12700000000E+01 0.  1.
         -4   -1    0    0    0  501 -0.00000000000E+00 -0.00000000000E+00 -0.11798875199E+03  0.11799558677E+03  0.12700000000E+01 0.  1.
         25    2    1    2    0    0  0.00000000000E+00  0.00000000000E+00 -0.84902242791E+02  0.15110646098E+03  0.12499908688E+03 0.  0.
    9000005    1    3    3    0    0 -0.40296181424E+02  0.44671050138E+02 -0.22010724405E+02  0.64068377119E+02  0.10000000000E+01 0.  0.
    9000005    1    3    3    0    0  0.40296181424E+02 -0.44671050138E+02 -0.62891518386E+02  0.87038083863E+02  0.10000000000E+01 0.  0.
<mgrwt>
<rscale>  0 0.12499909E+03</rscale>
<asrwt>0</asrwt>
<pdfrwt beam="1">  1        4 0.50926322E-02 0.12499909E+03</pdfrwt>
<pdfrwt beam="2">  1       -4 0.18154515E-01 0.12499909E+03</pdfrwt>
<totfact> 0.99085634E+03</totfact>
</mgrwt>
</event>
<event>
 5    1  0.3199195E-002  0.1249992E+03  0.7818608E-02  0.1235071E+00
          4   -1    0    0  501    0  0.00000000000E+00  0.00000000000E+00  0.32424051421E+02  0.32448913857E+02  0.12700000000E+01 0. -1.
         -4   -1    0    0    0  501 -0.00000000000E+00 -0.00000000000E+00 -0.12039791212E+03  0.12040461014E+03  0.12700000000E+01 0. -1.
         25    2    1    2    0    0  0.00000000000E+00  0.00000000000E+00 -0.87973860695E+02  0.15285352399E+03  0.12499919852E+03 0.  0.
    9000005    1    3    3    0    0  0.32752133400E+02 -0.46098626263E+00  0.21091446963E+02  0.38971321322E+02  0.10000000000E+01 0.  0.
    9000005    1    3    3    0    0 -0.32752133400E+02  0.46098626263E+00 -0.10906530766E+03  0.11388220267E+03  0.10000000000E+01 0.  0.
<mgrwt>
<rscale>  0 0.12499920E+03</rscale>
<asrwt>0</asrwt>
<pdfrwt beam="1">  1        4 0.49907434E-02 0.12499920E+03</pdfrwt>
<pdfrwt beam="2">  1       -4 0.18525183E-01 0.12499920E+03</pdfrwt>
<totfact> 0.98739683E+03</totfact>
</mgrwt>
</event>
<event>
 5    1  0.3199195E-002  0.1249965E+03  0.7818608E-02  0.1235075E+00
         -4   -1    0    0    0  501 -0.00000000000E+00  0.00000000000E+00  0.17791580546E+03  0.17792033817E+03  0.12700000000E+01 0.  1.
          4   -1    0    0  501    0  0.00000000000E+00 -0.00000000000E+00 -0.21931203248E+02  0.21967944281E+02  0.12700000000E+01 0.  1.
         25    2    1    2    0    0  0.00000000000E+00  0.00000000000E+00  0.15598460222E+03  0.19988828245E+03  0.12499651728E+03 0.  0.
    9000005    1    3    3    0    0 -0.22546153658E+02 -0.20519721713E+02 -0.92405228897E+01  0.31871229772E+02  0.10000000000E+01 0.  0.
    9000005    1    3    3    0    0  0.22546153658E+02  0.20519721713E+02  0.16522512511E+03  0.16801705268E+03  0.10000000000E+01 0.  0.
<mgrwt>
<rscale>  0 0.12499652E+03</rscale>
<asrwt>0</asrwt>
<pdfrwt beam="2">  1        4 0.33772063E-02 0.12499652E+03</pdfrwt>
<pdfrwt beam="1">  1       -4 0.27374836E-01 0.12499652E+03</pdfrwt>
<totfact> 0.90161379E+03</totfact>
</mgrwt>
</event>
<event>
 5    1  0.3199195E-002  0.1249990E+03  0.7818608E-02  0.1235071E+00
          4   -1    0    0  501    0  0.00000000000E+00  0.00000000000E+00  0.11304495232E+03  0.11305208598E+03  0.12700000000E+01 0. -1.
         -4   -1    0    0    0  501 -0.00000000000E+00 -0.00000000000E+00 -0.34534399622E+02  0.34557743810E+02  0.12700000000E+01 0. -1.
         25    2    1    2    0    0  0.00000000000E+00  0.00000000000E+00  0.78510552698E+02  0.14760982979E+03  0.12499901986E+03 0.  0.
    9000005    1    3    3    0    0 -0.54092155631E+01  0.51887607300E+02 -0.13714781022E+01  0.52196401758E+02  0.10000000000E+01 0.  0.
    9000005    1    3    3    0    0  0.54092155631E+01 -0.51887607300E+02  0.79882030800E+02  0.95413428033E+02  0.10000000000E+01 0.  0.
<mgrwt>
<rscale>  0 0.12499902E+03</rscale>
<asrwt>0</asrwt>
<pdfrwt beam="1">  1        4 0.17393876E-01 0.12499902E+03</pdfrwt>
<pdfrwt beam="2">  1       -4 0.53153289E-02 0.12499902E+03</pdfrwt>
<totfact> 0.99784495E+03</totfact>
</mgrwt>
</event>
<event>
 5    1  0.3199195E-002  0.1249964E+03  0.7818608E-02  0.1235075E+00
          4   -1    0    0  501    0  0.00000000000E+00  0.00000000000E+00  0.13162156826E+03  0.13162769515E+03  0.12700000000E+01 0. -1.
         -4   -1    0    0    0  501 -0.00000000000E+00 -0.00000000000E+00 -0.29655760039E+02  0.29682941288E+02  0.12700000000E+01 0. -1.
         25    2    1    2    0    0  0.00000000000E+00  0.00000000000E+00  0.10196580822E+03  0.16131063644E+03  0.12499638148E+03 0.  0.
    9000005    1    3    3    0    0  0.56737689239E+02  0.18581671822E+02  0.74799248125E+02  0.95709829317E+02  0.10000000000E+01 0.  0.
    9000005    1    3    3    0    0 -0.56737689239E+02 -0.18581671822E+02  0.27166560096E+02  0.65600807124E+02  0.10000000000E+01 0.  0.
<mgrwt>
<rscale>  0 0.12499638E+03</rscale>
<asrwt>0</asrwt>
<pdfrwt beam="1">  1        4 0.20252034E-01 0.12499638E+03</pdfrwt>
<pdfrwt beam="2">  1       -4 0.45649868E-02 0.12499638E+03</pdfrwt>
<totfact> 0.97098594E+03</totfact>
</mgrwt>
</event>
<event>
 5    1  0.3199195E-002  0.1249979E+03  0.7818608E-02  0.1235073E+00
          4   -1    0    0  501    0  0.00000000000E+00  0.00000000000E+00  0.11895767121E+02  0.11963368063E+02  0.12700000000E+01 0. -1.
         -4   -1    0    0    0  501 -0.00000000000E+00 -0.00000000000E+00 -0.32736297621E+03  0.32736543968E+03  0.12700000000E+01 0. -1.
         25    2    1    2    0    0  0.00000000000E+00  0.00000000000E+00 -0.31546720909E+03  0.33932880774E+03  0.12499791898E+03 0.  0.
    9000005    1    3    3    0    0  0.56863722426E+01 -0.21781817969E+02  0.51912274008E+00  0.22540006915E+02  0.10000000000E+01 0.  0.
    9000005    1    3    3    0    0 -0.56863722426E+01  0.21781817969E+02 -0.31598633183E+03  0.31678880082E+03  0.10000000000E+01 0.  0.
<mgrwt>
<rscale>  0 0.12499792E+03</rscale>
<asrwt>0</asrwt>
<pdfrwt beam="1">  1        4 0.18355078E-02 0.12499792E+03</pdfrwt>
<pdfrwt beam="2">  1       -4 0.50368918E-01 0.12499792E+03</pdfrwt>
<totfact> 0.70917965E+03</totfact>
</mgrwt>
</event>
<event>
 5    1  0.3199195E-002  0.1249992E+03  0.7818608E-02  0.1235070E+00
          4   -1    0    0  501    0  0.00000000000E+00  0.00000000000E+00  0.12001614170E+04  0.12001620889E+04  0.12700000000E+01 0. -1.
         -4   -1    0    0    0  501 -0.00000000000E+00 -0.00000000000E+00 -0.31301430316E+01  0.33779720837E+01  0.12700000000E+01 0. -1.
         25    2    1    2    0    0  0.00000000000E+00  0.00000000000E+00  0.11970312739E+04  0.12035400610E+04  0.12499923062E+03 0.  0.
    9000005    1    3    3    0    0 -0.29880123821E+02  0.47151309905E+01  0.11250170342E+04  0.11254240896E+04  0.10000000000E+01 0.  0.
    9000005    1    3    3    0    0  0.29880123821E+02 -0.47151309905E+01  0.72014239716E+02  0.78115971361E+02  0.10000000000E+01 0.  0.
<mgrwt>
<rscale>  0 0.12499923E+03</rscale>
<asrwt>0</asrwt>
<pdfrwt beam="1">  1        4 0.18465940E+00 0.12499923E+03</pdfrwt>
<pdfrwt beam="2">  1       -4 0.50067574E-03 0.12499923E+03</pdfrwt>
<totfact> 0.24620676E+03</totfact>
</mgrwt>
</event>
<event>
 5    1  0.3199195E-002  0.1250575E+03  0.7818608E-02  0.1234979E+00
         -4   -1    0    0    0  501 -0.00000000000E+00  0.00000000000E+00  0.11519548571E+03  0.11520248620E+03  0.12700000000E+01 0. -1.
          4   -1    0    0  501    0  0.00000000000E+00 -0.00000000000E+00 -0.33921022141E+02  0.33944788158E+02  0.12700000000E+01 0. -1.
         25    2    1    2    0    0  0.00000000000E+00  0.00000000000E+00  0.81274463569E+02  0.14914727436E+03  0.12505747087E+03 0.  0.
    9000005    1    3    3    0    0 -0.47989608606E+02  0.33136721648E+02  0.13762067369E+02  0.59928618823E+02  0.10000000000E+01 0.  0.
    9000005    1    3    3    0    0  0.47989608606E+02 -0.33136721648E+02  0.67512396200E+02  0.89218655540E+02  0.10000000000E+01 0.  0.
<mgrwt>
<rscale>  0 0.12505747E+03</rscale>
<asrwt>0</asrwt>
<pdfrwt beam="2">  1        4 0.52209855E-02 0.12505747E+03</pdfrwt>
<pdfrwt beam="1">  1       -4 0.17724749E-01 0.12505747E+03</pdfrwt>
<totfact> 0.99345384E+03</totfact>
</mgrwt>
</event>
<event>
 5    1  0.3199195E-002  0.1250021E+03  0.7818608E-02  0.1235066E+00
          4   -1    0    0  501    0  0.00000000000E+00  0.00000000000E+00  0.24491654893E+03  0.24491984166E+03  0.12700000000E+01 0. -1.
         -4   -1    0    0    0  501 -0.00000000000E+00 -0.00000000000E+00 -0.15921158256E+02  0.15971730658E+02  0.12700000000E+01 0. -1.
         25    2    1    2    0    0  0.00000000000E+00  0.00000000000E+00  0.22899539067E+03  0.26089157232E+03  0.12500209421E+03 0.  0.
    9000005    1    3    3    0    0  0.10771193632E+02  0.58242178368E+02  0.72901523885E+02  0.93935095349E+02  0.10000000000E+01 0.  0.
    9000005    1    3    3    0    0 -0.10771193632E+02 -0.58242178368E+02  0.15609386679E+03  0.16695647697E+03  0.10000000000E+01 0.  0.
<mgrwt>
<rscale>  0 0.12500209E+03</rscale>
<asrwt>0</asrwt>
<pdfrwt beam="1">  1        4 0.37683611E-01 0.12500209E+03</pdfrwt>
<pdfrwt beam="2">  1       -4 0.24535525E-02 0.12500209E+03</pdfrwt>
<totfact> 0.80777339E+03</totfact>
</mgrwt>
</event>
<event>
 5    1  0.3199195E-002  0.1249960E+03  0.7818608E-02  0.1235076E+00
          4   -1    0    0  501    0  0.00000000000E+00  0.00000000000E+00  0.45077183354E+03  0.45077362258E+03  0.12700000000E+01 0.  1.
         -4   -1    0    0    0  501 -0.00000000000E+00 -0.00000000000E+00 -0.86167903482E+01  0.87098780648E+01  0.12700000000E+01 0.  1.
         25    2    1    2    0    0  0.00000000000E+00  0.00000000000E+00  0.44215504319E+03  0.45948350064E+03  0.12499602051E+03 0.  0.
    9000005    1    3    3    0    0 -0.22524252202E+02 -0.54779576780E+02  0.14784720187E+03  0.15927315867E+03  0.10000000000E+01 0.  0.
    9000005    1    3    3    0    0  0.22524252202E+02  0.54779576780E+02  0.29430784132E+03  0.30021034198E+03  0.10000000000E+01 0.  0.
<mgrwt>
<rscale>  0 0.12499602E+03</rscale>
<asrwt>0</asrwt>
<pdfrwt beam="1">  1        4 0.69356806E-01 0.12499602E+03</pdfrwt>
<pdfrwt beam="2">  1       -4 0.13329584E-02 0.12499602E+03</pdfrwt>
<totfact> 0.59156140E+03</totfact>
</mgrwt>
</event>
<event>
 5    1  0.3199195E-002  0.1250079E+03  0.7818608E-02  0.1235057E+00
          4   -1    0    0  501    0  0.00000000000E+00  0.00000000000E+00  0.92031367852E+03  0.92031455480E+03  0.12700000000E+01 0. -1.
         -4   -1    0    0    0  501 -0.00000000000E+00 -0.00000000000E+00 -0.41491258084E+01  0.43391410411E+01  0.12700000000E+01 0. -1.
         25    2    1    2    0    0  0.00000000000E+00  0.00000000000E+00  0.91616455271E+03  0.92465369584E+03  0.12500787808E+03 0.  0.
    9000005    1    3    3    0    0  0.37919195059E+02 -0.42539075001E+02  0.64786427653E+03  0.65036648058E+03  0.10000000000E+01 0.  0.
    9000005    1    3    3    0    0 -0.37919195059E+02  0.42539075001E+02  0.26830027618E+03  0.27428721526E+03  0.10000000000E+01 0.  0.
<mgrwt>
<rscale>  0 0.12500788E+03</rscale>
<asrwt>0</asrwt>
<pdfrwt beam="1">  1        4 0.14160149E+00 0.12500788E+03</pdfrwt>
<pdfrwt beam="2">  1       -4 0.65301060E-03 0.12500788E+03</pdfrwt>
<totfact> 0.33227557E+03</totfact>
</mgrwt>
</event>
<event>
 5    1  0.3199195E-002  0.1249990E+03  0.7818608E-02  0.1235071E+00
         -4   -1    0    0    0  501 -0.00000000000E+00  0.00000000000E+00  0.32739259332E+03  0.32739505656E+03  0.12700000000E+01 0.  1.
          4   -1    0    0  501    0  0.00000000000E+00 -0.00000000000E+00 -0.11894892397E+02  0.11962498281E+02  0.12700000000E+01 0.  1.
         25    2    1    2    0    0  0.00000000000E+00  0.00000000000E+00  0.31549770092E+03  0.33935755484E+03  0.12499900296E+03 0.  0.
    9000005    1    3    3    0    0 -0.60397556823E+02  0.91512781983E+01  0.19351704055E+03  0.20293214567E+03  0.10000000000E+01 0.  0.
    9000005    1    3    3    0    0  0.60397556823E+02 -0.91512781983E+01  0.12198066038E+03  0.13642540918E+03  0.10000000000E+01 0.  0.
<mgrwt>
<rscale>  0 0.12499900E+03</rscale>
<asrwt>0</asrwt>
<pdfrwt beam="2">  1        4 0.18353737E-02 0.12499900E+03</pdfrwt>
<pdfrwt beam="1">  1       -4 0.50373473E-01 0.12499900E+03</pdfrwt>
<totfact> 0.70913014E+03</totfact>
</mgrwt>
</event>
<event>
 5    1  0.3199195E-002  0.1250017E+03  0.7818608E-02  0.1235067E+00
          4   -1    0    0  501    0  0.00000000000E+00  0.00000000000E+00  0.73756280627E+02  0.73767213801E+02  0.12700000000E+01 0. -1.
         -4   -1    0    0    0  501 -0.00000000000E+00 -0.00000000000E+00 -0.52940560054E+02  0.52955790985E+02  0.12700000000E+01 0. -1.
         25    2    1    2    0    0  0.00000000000E+00  0.00000000000E+00  0.20815720573E+02  0.12672300479E+03  0.12500170286E+03 0.  0.
    9000005    1    3    3    0    0  0.33752221018E+02 -0.47812683777E+02 -0.11804844257E+02  0.59712808521E+02  0.10000000000E+01 0.  0.
    9000005    1    3    3    0    0 -0.33752221018E+02  0.47812683777E+02  0.32620564830E+02  0.67010196264E+02  0.10000000000E+01 0.  0.
<mgrwt>
<rscale>  0 0.12500170E+03</rscale>
<asrwt>0</asrwt>
<pdfrwt beam="1">  1        4 0.11349133E-01 0.12500170E+03</pdfrwt>
<pdfrwt beam="2">  1       -4 0.81467142E-02 0.12500170E+03</pdfrwt>
<totfact> 0.10414769E+04</totfact>
</mgrwt>
</event>
<event>
 5    1  0.3199195E-002  0.1250189E+03  0.7818608E-02  0.1235040E+00
          4   -1    0    0  501    0  0.00000000000E+00  0.00000000000E+00  0.37636954177E+03  0.37637168447E+03  0.12700000000E+01 0. -1.
         -4   -1    0    0    0  501 -0.00000000000E+00 -0.00000000000E+00 -0.10340884375E+02  0.10418579062E+02  0.12700000000E+01 0. -1.
         25    2    1    2    0    0  0.00000000000E+00  0.00000000000E+00  0.36602865740E+03  0.38679026353E+03  0.12501891829E+03 0.  0.
    9000005    1    3    3    0    0 -0.35886158127E+02  0.19704718304E+02  0.32912614985E+03  0.33166415963E+03  0.10000000000E+01 0.  0.
    9000005    1    3    3    0    0  0.35886158127E+02 -0.19704718304E+02  0.36902507548E+02  0.55126103906E+02  0.10000000000E+01 0.  0.
<mgrwt>
<rscale>  0 0.12501892E+03</rscale>
<asrwt>0</asrwt>
<pdfrwt beam="1">  1        4 0.57909152E-01 0.12501892E+03</pdfrwt>
<pdfrwt beam="2">  1       -4 0.15970465E-02 0.12501892E+03</pdfrwt>
<totfact> 0.65830635E+03</totfact>
</mgrwt>
</event>
<event>
 5    1  0.3199195E-002  0.1250003E+03  0.7818608E-02  0.1235069E+00
          4   -1    0    0  501    0  0.00000000000E+00  0.00000000000E+00  0.54702813240E+03  0.54702960663E+03  0.12700000000E+01 0.  1.
         -4   -1    0    0    0  501 -0.00000000000E+00 -0.00000000000E+00 -0.70829245474E+01  0.71958821658E+01  0.12700000000E+01 0.  1.
         25    2    1    2    0    0  0.00000000000E+00  0.00000000000E+00  0.53994520785E+03  0.55422548880E+03  0.12500025982E+03 0.  0.
    9000005    1    3    3    0    0  0.28159430351E+02  0.45017323539E+02  0.41606955709E+03  0.41944533526E+03  0.10000000000E+01 0.  0.
    9000005    1    3    3    0    0 -0.28159430351E+02 -0.45017323539E+02  0.12387565076E+03  0.13478015353E+03  0.10000000000E+01 0.  0.
<mgrwt>
<rscale>  0 0.12500026E+03</rscale>
<asrwt>0</asrwt>
<pdfrwt beam="1">  1        4 0.84167009E-01 0.12500026E+03</pdfrwt>
<pdfrwt beam="2">  1       -4 0.10984827E-02 0.12500026E+03</pdfrwt>
<totfact> 0.51890363E+03</totfact>
</mgrwt>
</event>
<event>
 5    1  0.3199195E-002  0.1250001E+03  0.7818608E-02  0.1235069E+00
          4   -1    0    0  501    0  0.00000000000E+00  0.00000000000E+00  0.33899978554E+02  0.33923759313E+02  0.12700000000E+01 0. -1.
         -4   -1    0    0    0  501 -0.00000000000E+00 -0.00000000000E+00 -0.11516117495E+03  0.11516817753E+03  0.12700000000E+01 0. -1.
         25    2    1    2    0    0  0.00000000000E+00  0.00000000000E+00 -0.81261196399E+02  0.14909193685E+03  0.12500009437E+03 0.  0.
    9000005    1    3    3    0    0 -0.12606896425E+02  0.58742213896E+02 -0.61139889514E+02  0.85724370051E+02  0.10000000000E+01 0.  0.
    9000005    1    3    3    0    0  0.12606896425E+02 -0.58742213896E+02 -0.20121306885E+02  0.63367566796E+02  0.10000000000E+01 0.  0.
<mgrwt>
<rscale>  0 0.12500009E+03</rscale>
<asrwt>0</asrwt>
<pdfrwt beam="1">  1        4 0.52177493E-02 0.12500009E+03</pdfrwt>
<pdfrwt beam="2">  1       -4 0.17719472E-01 0.12500009E+03</pdfrwt>
<totfact> 0.99484804E+03</totfact>
</mgrwt>
</event>
<event>
 5    1  0.3199195E-002  0.1249979E+03  0.7818608E-02  0.1235073E+00
          4   -1    0    0  501    0  0.00000000000E+00  0.00000000000E+00  0.19642290512E+03  0.19642701076E+03  0.12700000000E+01 0. -1.
         -4   -1    0    0    0  501 -0.00000000000E+00 -0.00000000000E+00 -0.19861680088E+02  0.19902241982E+02  0.12700000000E+01 0. -1.
         25    2    1    2    0    0  0.00000000000E+00  0.00000000000E+00  0.17656122504E+03  0.21632925275E+03  0.12499791761E+03 0.  0.
    9000005    1    3    3    0    0 -0.60385829909E+02 -0.91859125254E+01  0.11112866653E+03  0.12681249925E+03  0.10000000000E+01 0.  0.
    9000005    1    3    3    0    0  0.60385829909E+02  0.91859125254E+01  0.65432558509E+02  0.89516753492E+02  0.10000000000E+01 0.  0.
<mgrwt>
<rscale>  0 0.12499792E+03</rscale>
<asrwt>0</asrwt>
<pdfrwt beam="1">  1        4 0.30222344E-01 0.12499792E+03</pdfrwt>
<pdfrwt beam="2">  1       -4 0.30590791E-02 0.12499792E+03</pdfrwt>
<totfact> 0.87456619E+03</totfact>
</mgrwt>
</event>
<event>
 4    1  0.3199195E-002  0.1234696E+03  0.7818608E-02  0.1237481E+00
         -4   -1    0    0    0  501 -0.00000000000E+00  0.00000000000E+00  0.82182609727E+01  0.83158110498E+01  0.12700000000E+01 0.  1.
          4   -1    0    0  501    0  0.00000000000E+00 -0.00000000000E+00 -0.46091140915E+03  0.46091315883E+03  0.12700000000E+01 0.  1.
    9000005    1    1    2    0    0  0.60682514100E+02  0.89913686464E+01 -0.20030017803E+03  0.20948597458E+03  0.10000000000E+01 0.  0.
    9000005    1    1    2    0    0 -0.60682514100E+02 -0.89913686464E+01 -0.25239297014E+03  0.25974299530E+03  0.10000000000E+01 0.  0.
<mgrwt>
<rscale>  0 0.12346959E+03</rscale>
<asrwt>0</asrwt>
<pdfrwt beam="2">  1        4 0.70917066E-01 0.12346959E+03</pdfrwt>
<pdfrwt beam="1">  1       -4 0.12719866E-02 0.12346959E+03</pdfrwt>
<totfact> 0.60343092E+03</totfact>
</mgrwt>
</event>
<event>
 5    1  0.3199195E-002  0.1249993E+03  0.7818608E-02  0.1235070E+00
         -4   -1    0    0    0  501 -0.00000000000E+00  0.00000000000E+00  0.27421700961E+03  0.27421995051E+03  0.12700000000E+01 0.  1.
          4   -1    0    0  501    0  0.00000000000E+00 -0.00000000000E+00 -0.14213619238E+02  0.14270244281E+02  0.12700000000E+01 0.  1.
         25    2    1    2    0    0  0.00000000000E+00  0.00000000000E+00  0.26000339037E+03  0.28849019479E+03  0.12499931795E+03 0.  0.
    9000005    1    3    3    0    0 -0.75874351363E+01  0.58481467845E+02  0.17772384244E+03  0.18725494767E+03  0.10000000000E+01 0.  0.
    9000005    1    3    3    0    0  0.75874351363E+01 -0.58481467845E+02  0.82279547927E+02  0.10123524712E+03  0.10000000000E+01 0.  0.
<mgrwt>
<rscale>  0 0.12499932E+03</rscale>
<asrwt>0</asrwt>
<pdfrwt beam="2">  1        4 0.21912926E-02 0.12499932E+03</pdfrwt>
<pdfrwt beam="1">  1       -4 0.42191814E-01 0.12499932E+03</pdfrwt>
<totfact> 0.77066835E+03</totfact>
</mgrwt>
</event>
<event>
 4    1  0.3199195E-002  0.1250807E+03  0.7818608E-02  0.1234943E+00
         -4   -1    0    0    0  501 -0.00000000000E+00  0.00000000000E+00  0.27472008708E+03  0.27472302260E+03  0.12700000000E+01 0.  1.
          4   -1    0    0  501    0  0.00000000000E+00 -0.00000000000E+00 -0.14206034536E+02  0.14262689691E+02  0.12700000000E+01 0.  1.
    9000005    1    1    2    0    0 -0.58151014963E+01 -0.28417629757E+02  0.22662454308E+01  0.29112075755E+02  0.10000000000E+01 0.  0.
    9000005    1    1    2    0    0  0.58151014963E+01  0.28417629757E+02  0.25824780712E+03  0.25987363654E+03  0.10000000000E+01 0.  0.
<mgrwt>
<rscale>  0 0.12508066E+03</rscale>
<asrwt>0</asrwt>
<pdfrwt beam="2">  1        4 0.21901278E-02 0.12508066E+03</pdfrwt>
<pdfrwt beam="1">  1       -4 0.42269211E-01 0.12508066E+03</pdfrwt>
<totfact> 0.76863748E+03</totfact>
</mgrwt>
</event>
<event>
 5    1  0.3199195E-002  0.1249702E+03  0.7818608E-02  0.1235116E+00
          4   -1    0    0  501    0  0.00000000000E+00  0.00000000000E+00  0.26112489158E+02  0.26143354606E+02  0.12700000000E+01 0.  1.
         -4   -1    0    0    0  501 -0.00000000000E+00 -0.00000000000E+00 -0.14939991484E+03  0.14940531267E+03  0.12700000000E+01 0.  1.
         25    2    1    2    0    0  0.00000000000E+00  0.00000000000E+00 -0.12328742568E+03  0.17554866727E+03  0.12497017745E+03 0.  0.
    9000005    1    3    3    0    0  0.13624045563E+02 -0.34062592687E+02  0.93957952824E+01  0.37883450306E+02  0.10000000000E+01 0.  0.
    9000005    1    3    3    0    0 -0.13624045563E+02  0.34062592687E+02 -0.13268322096E+03  0.13766521697E+03  0.10000000000E+01 0.  0.
<mgrwt>
<rscale>  0 0.12497018E+03</rscale>
<asrwt>0</asrwt>
<pdfrwt beam="1">  1        4 0.40200956E-02 0.12497018E+03</pdfrwt>
<pdfrwt beam="2">  1       -4 0.22987391E-01 0.12497018E+03</pdfrwt>
<totfact> 0.94487646E+03</totfact>
</mgrwt>
</event>
<event>
 5    1  0.3199195E-002  0.1250006E+03  0.7818608E-02  0.1235068E+00
          4   -1    0    0  501    0  0.00000000000E+00  0.00000000000E+00  0.20296957408E+03  0.20297354730E+03  0.12700000000E+01 0.  1.
         -4   -1    0    0    0  501 -0.00000000000E+00 -0.00000000000E+00 -0.19220548974E+02  0.19262460976E+02  0.12700000000E+01 0.  1.
         25    2    1    2    0    0  0.00000000000E+00  0.00000000000E+00  0.18374902511E+03  0.22223600827E+03  0.12500055658E+03 0.  0.
    9000005    1    3    3    0    0  0.11948106190E+02  0.40382488560E+02  0.97876053450E+01  0.43246963387E+02  0.10000000000E+01 0.  0.
    9000005    1    3    3    0    0 -0.11948106190E+02 -0.40382488560E+02  0.17396141976E+03  0.17898904489E+03  0.10000000000E+01 0.  0.
<mgrwt>
<rscale>  0 0.12500056E+03</rscale>
<asrwt>0</asrwt>
<pdfrwt beam="1">  1        4 0.31229617E-01 0.12500056E+03</pdfrwt>
<pdfrwt beam="2">  1       -4 0.29605372E-02 0.12500056E+03</pdfrwt>
<totfact> 0.86514687E+03</totfact>
</mgrwt>
</event>
<event>
 5    1  0.3199195E-002  0.1249995E+03  0.7818608E-02  0.1235070E+00
          4   -1    0    0  501    0  0.00000000000E+00  0.00000000000E+00  0.11547362834E+03  0.11548061198E+03  0.12700000000E+01 0.  1.
         -4   -1    0    0    0  501 -0.00000000000E+00 -0.00000000000E+00 -0.33807854812E+02  0.33831700327E+02  0.12700000000E+01 0.  1.
         25    2    1    2    0    0  0.00000000000E+00  0.00000000000E+00  0.81665773531E+02  0.14931231230E+03  0.12499947216E+03 0.  0.
    9000005    1    3    3    0    0 -0.48386807959E+02 -0.30969884521E+02  0.11456839293E+02  0.58589044183E+02  0.10000000000E+01 0.  0.
    9000005    1    3    3    0    0  0.48386807959E+02  0.30969884521E+02  0.70208934237E+02  0.90723268120E+02  0.10000000000E+01 0.  0.
<mgrwt>
<rscale>  0 0.12499947E+03</rscale>
<asrwt>0</asrwt>
<pdfrwt beam="1">  1        4 0.17767545E-01 0.12499947E+03</pdfrwt>
<pdfrwt beam="2">  1       -4 0.52035798E-02 0.12499947E+03</pdfrwt>
<totfact> 0.99442136E+03</totfact>
</mgrwt>
</event>
<event>
 5    1  0.3199195E-002  0.1250096E+03  0.7818608E-02  0.1235054E+00
         -4   -1    0    0    0  501 -0.00000000000E+00  0.00000000000E+00  0.71865696028E+02  0.71876916779E+02  0.12700000000E+01 0.  1.
          4   -1    0    0  501    0  0.00000000000E+00 -0.00000000000E+00 -0.54340287866E+02  0.54355126578E+02  0.12700000000E+01 0.  1.
         25    2    1    2    0    0  0.00000000000E+00  0.00000000000E+00  0.17525408163E+02  0.12623204336E+03  0.12500955499E+03 0.  0.
    9000005    1    3    3    0    0 -0.22207416994E+02 -0.41522566335E+02 -0.32731164005E+02  0.57355226281E+02  0.10000000000E+01 0.  0.
    9000005    1    3    3    0    0  0.22207416994E+02  0.41522566335E+02  0.50256572167E+02  0.68876817076E+02  0.10000000000E+01 0.  0.
<mgrwt>
<rscale>  0 0.12500955E+03</rscale>
<asrwt>0</asrwt>
<pdfrwt beam="2">  1        4 0.83620489E-02 0.12500955E+03</pdfrwt>
<pdfrwt beam="1">  1       -4 0.11058266E-01 0.12500955E+03</pdfrwt>
<totfact> 0.10423630E+04</totfact>
</mgrwt>
</event>
<event>
 5    1  0.3199195E-002  0.1249980E+03  0.7818608E-02  0.1235072E+00
          4   -1    0    0  501    0  0.00000000000E+00  0.00000000000E+00  0.94431831411E+02  0.94440371047E+02  0.12700000000E+01 0.  1.
         -4   -1    0    0    0  501 -0.00000000000E+00 -0.00000000000E+00 -0.41344336981E+02  0.41363838076E+02  0.12700000000E+01 0.  1.
         25    2    1    2    0    0  0.00000000000E+00  0.00000000000E+00  0.53087494430E+02  0.13580420912E+03  0.12499800459E+03 0.  0.
    9000005    1    3    3    0    0 -0.14316794584E+01 -0.48931498405E+02  0.68744839513E+02  0.84399017778E+02  0.10000000000E+01 0.  0.
    9000005    1    3    3    0    0  0.14316794584E+01  0.48931498405E+02 -0.15657345083E+02  0.51405191345E+02  0.10000000000E+01 0.  0.
<mgrwt>
<rscale>  0 0.12499800E+03</rscale>
<asrwt>0</asrwt>
<pdfrwt beam="1">  1        4 0.14530131E-01 0.12499800E+03</pdfrwt>
<pdfrwt beam="2">  1       -4 0.63628243E-02 0.12499800E+03</pdfrwt>
<totfact> 0.10221608E+04</totfact>
</mgrwt>
</event>
<event>
 5    1  0.3199195E-002  0.1249968E+03  0.7818608E-02  0.1235074E+00
          4   -1    0    0  501    0  0.00000000000E+00  0.00000000000E+00  0.15501842830E+04  0.15501848032E+04  0.12700000000E+01 0. -1.
         -4   -1    0    0    0  501 -0.00000000000E+00 -0.00000000000E+00 -0.23591502876E+01  0.26792704379E+01  0.12700000000E+01 0. -1.
         25    2    1    2    0    0  0.00000000000E+00  0.00000000000E+00  0.15478251327E+04  0.15528640736E+04  0.12499675926E+03 0.  0.
    9000005    1    3    3    0    0  0.35052612279E+02 -0.37680832598E+02  0.12142836752E+04  0.12153741706E+04  0.10000000000E+01 0.  0.
    9000005    1    3    3    0    0 -0.35052612279E+02  0.37680832598E+02  0.33354145746E+03  0.33748990299E+03  0.10000000000E+01 0.  0.
<mgrwt>
<rscale>  0 0.12499676E+03</rscale>
<asrwt>0</asrwt>
<pdfrwt beam="1">  1        4 0.23851403E+00 0.12499676E+03</pdfrwt>
<pdfrwt beam="2">  1       -4 0.38761170E-03 0.12499676E+03</pdfrwt>
<totfact> 0.16915617E+03</totfact>
</mgrwt>
</event>
<event>
 5    1  0.3199195E-002  0.1249959E+03  0.7818608E-02  0.1235076E+00
         -4   -1    0    0    0  501 -0.00000000000E+00  0.00000000000E+00  0.51195783800E+02  0.51211533651E+02  0.12700000000E+01 0. -1.
          4   -1    0    0  501    0  0.00000000000E+00 -0.00000000000E+00 -0.76262445218E+02  0.76273019152E+02  0.12700000000E+01 0. -1.
         25    2    1    2    0    0  0.00000000000E+00  0.00000000000E+00 -0.25066661418E+02  0.12748455280E+03  0.12499589469E+03 0.  0.
    9000005    1    3    3    0    0  0.48630639536E+02 -0.26187751457E+02  0.17276247623E+02  0.57880965438E+02  0.10000000000E+01 0.  0.
    9000005    1    3    3    0    0 -0.48630639536E+02  0.26187751457E+02 -0.42342909041E+02  0.69603587365E+02  0.10000000000E+01 0.  0.
<mgrwt>
<rscale>  0 0.12499589E+03</rscale>
<asrwt>0</asrwt>
<pdfrwt beam="2">  1        4 0.11734709E-01 0.12499589E+03</pdfrwt>
<pdfrwt beam="1">  1       -4 0.78782994E-02 0.12499589E+03</pdfrwt>
<totfact> 0.10399599E+04</totfact>
</mgrwt>
</event>
<event>
 5    1  0.3199195E-002  0.1250029E+03  0.7818608E-02  0.1235065E+00
          4   -1    0    0  501    0  0.00000000000E+00  0.00000000000E+00  0.32655357371E+02  0.32680043834E+02  0.12700000000E+01 0. -1.
         -4   -1    0    0    0  501 -0.00000000000E+00 -0.00000000000E+00 -0.11955274309E+03  0.11955948846E+03  0.12700000000E+01 0. -1.
         25    2    1    2    0    0  0.00000000000E+00  0.00000000000E+00 -0.86897385721E+02  0.15223953229E+03  0.12500287816E+03 0.  0.
    9000005    1    3    3    0    0  0.38411257190E+02 -0.16370919283E+02 -0.10007719748E+03  0.10844296719E+03  0.10000000000E+01 0.  0.
    9000005    1    3    3    0    0 -0.38411257190E+02  0.16370919283E+02  0.13179811759E+02  0.43796565106E+02  0.10000000000E+01 0.  0.
<mgrwt>
<rscale>  0 0.12500288E+03</rscale>
<asrwt>0</asrwt>
<pdfrwt beam="1">  1        4 0.50263190E-02 0.12500288E+03</pdfrwt>
<pdfrwt beam="2">  1       -4 0.18395147E-01 0.12500288E+03</pdfrwt>
<totfact> 0.98852738E+03</totfact>
</mgrwt>
</event>
<event>
 5    1  0.3199195E-002  0.1250078E+03  0.7818608E-02  0.1235057E+00
         -4   -1    0    0    0  501 -0.00000000000E+00  0.00000000000E+00  0.23578953629E+02  0.23613130971E+02  0.12700000000E+01 0.  1.
          4   -1    0    0  501    0  0.00000000000E+00 -0.00000000000E+00 -0.16553074890E+03  0.16553562073E+03  0.12700000000E+01 0.  1.
         25    2    1    2    0    0  0.00000000000E+00  0.00000000000E+00 -0.14195179527E+03  0.18914875170E+03  0.12500775212E+03 0.  0.
    9000005    1    3    3    0    0  0.58920540460E+02 -0.42097854975E+00 -0.39456712839E+02  0.70919951347E+02  0.10000000000E+01 0.  0.
    9000005    1    3    3    0    0 -0.58920540460E+02  0.42097854975E+00 -0.10249508243E+03  0.11822880035E+03  0.10000000000E+01 0.  0.
<mgrwt>
<rscale>  0 0.12500775E+03</rscale>
<asrwt>0</asrwt>
<pdfrwt beam="2">  1        4 0.25469272E-01 0.12500775E+03</pdfrwt>
<pdfrwt beam="1">  1       -4 0.36305352E-02 0.12500775E+03</pdfrwt>
<totfact> 0.91979666E+03</totfact>
</mgrwt>
</event>
<event>
 5    1  0.3199195E-002  0.1249983E+03  0.7818608E-02  0.1235072E+00
         -4   -1    0    0    0  501 -0.00000000000E+00  0.00000000000E+00  0.29268713845E+02  0.29296254200E+02  0.12700000000E+01 0.  1.
          4   -1    0    0  501    0  0.00000000000E+00 -0.00000000000E+00 -0.13336471165E+03  0.13337075847E+03  0.12700000000E+01 0.  1.
         25    2    1    2    0    0  0.00000000000E+00  0.00000000000E+00 -0.10409599781E+03  0.16266701267E+03  0.12499832099E+03 0.  0.
    9000005    1    3    3    0    0  0.29064730255E+02  0.47003547227E+02 -0.90012144634E+02  0.10562801796E+03  0.10000000000E+01 0.  0.
    9000005    1    3    3    0    0 -0.29064730255E+02 -0.47003547227E+02 -0.14083853172E+02  0.57038994705E+02  0.10000000000E+01 0.  0.
<mgrwt>
<rscale>  0 0.12499832E+03</rscale>
<asrwt>0</asrwt>
<pdfrwt beam="2">  1        4 0.20520231E-01 0.12499832E+03</pdfrwt>
<pdfrwt beam="1">  1       -4 0.45054628E-02 0.12499832E+03</pdfrwt>
<totfact> 0.96834710E+03</totfact>
</mgrwt>
</event>
<event>
 5    1  0.3199195E-002  0.1250021E+03  0.7818608E-02  0.1235066E+00
          4   -1    0    0  501    0  0.00000000000E+00  0.00000000000E+00  0.33343100044E+03  0.33343341907E+03  0.12700000000E+01 0. -1.
         -4   -1    0    0    0  501 -0.00000000000E+00 -0.00000000000E+00 -0.11678818931E+02  0.11747668348E+02  0.12700000000E+01 0. -1.
         25    2    1    2    0    0  0.00000000000E+00  0.00000000000E+00  0.32175218150E+03  0.34518108742E+03  0.12500206721E+03 0.  0.
    9000005    1    3    3    0    0  0.30077262353E+02 -0.28623081174E+02  0.28985036639E+03  0.29281078768E+03  0.10000000000E+01 0.  0.
    9000005    1    3    3    0    0 -0.30077262353E+02  0.28623081174E+02  0.31901815114E+02  0.52370299732E+02  0.10000000000E+01 0.  0.
<mgrwt>
<rscale>  0 0.12500207E+03</rscale>
<asrwt>0</asrwt>
<pdfrwt beam="1">  1        4 0.51302572E-01 0.12500207E+03</pdfrwt>
<pdfrwt beam="2">  1       -4 0.18022231E-02 0.12500207E+03</pdfrwt>
<totfact> 0.70254743E+03</totfact>
</mgrwt>
</event>
<event>
 5    1  0.3199195E-002  0.1250002E+03  0.7818608E-02  0.1235069E+00
         -4   -1    0    0    0  501 -0.00000000000E+00  0.00000000000E+00  0.31559400844E+01  0.34018903298E+01  0.12700000000E+01 0. -1.
          4   -1    0    0  501    0  0.00000000000E+00 -0.00000000000E+00 -0.11910807726E+04  0.11910814497E+04  0.12700000000E+01 0. -1.
         25    2    1    2    0    0  0.00000000000E+00  0.00000000000E+00 -0.11879248325E+04  0.11944833400E+04  0.12500016736E+03 0.  0.
    9000005    1    3    3    0    0  0.17466683133E+02 -0.59126595064E+02 -0.49640786641E+03  0.50022275948E+03  0.10000000000E+01 0.  0.
    9000005    1    3    3    0    0 -0.17466683133E+02  0.59126595064E+02 -0.69151696610E+03  0.69426058053E+03  0.10000000000E+01 0.  0.
<mgrwt>
<rscale>  0 0.12500017E+03</rscale>
<asrwt>0</asrwt>
<pdfrwt beam="2">  1        4 0.18326182E+00 0.12500017E+03</pdfrwt>
<pdfrwt beam="1">  1       -4 0.50450153E-03 0.12500017E+03</pdfrwt>
<totfact> 0.24857571E+03</totfact>
</mgrwt>
</event>
<event>
 5    1  0.3199195E-002  0.1250055E+03  0.7818608E-02  0.1235061E+00
          4   -1    0    0  501    0  0.00000000000E+00  0.00000000000E+00  0.31228022469E+03  0.31228280714E+03  0.12700000000E+01 0. -1.
         -4   -1    0    0    0  501 -0.00000000000E+00 -0.00000000000E+00 -0.12475018450E+02  0.12539497013E+02  0.12700000000E+01 0. -1.
         25    2    1    2    0    0  0.00000000000E+00  0.00000000000E+00  0.29980520624E+03  0.32482230415E+03  0.12500547022E+03 0.  0.
    9000005    1    3    3    0    0  0.34589503976E+02  0.28477352205E+02  0.26311334597E+03  0.26690265305E+03  0.10000000000E+01 0.  0.
    9000005    1    3    3    0    0 -0.34589503976E+02 -0.28477352205E+02  0.36691860265E+02  0.57919651101E+02  0.10000000000E+01 0.  0.
<mgrwt>
<rscale>  0 0.12500547E+03</rscale>
<asrwt>0</asrwt>
<pdfrwt beam="1">  1        4 0.48048272E-01 0.12500547E+03</pdfrwt>
<pdfrwt beam="2">  1       -4 0.19243921E-02 0.12500547E+03</pdfrwt>
<totfact> 0.72577422E+03</totfact>
</mgrwt>
</event>
<event>
 5    1  0.3199195E-002  0.1249968E+03  0.7818608E-02  0.1235074E+00
         -4   -1    0    0    0  501 -0.00000000000E+00  0.00000000000E+00  0.63142953864E+03  0.63143081582E+03  0.12700000000E+01 0.  1.
          4   -1    0    0  501    0  0.00000000000E+00 -0.00000000000E+00 -0.61195660845E+01  0.62499591249E+01  0.12700000000E+01 0.  1.
         25    2    1    2    0    0  0.00000000000E+00  0.00000000000E+00  0.62530997256E+03  0.63768077495E+03  0.12499683579E+03 0.  0.
    9000005    1    3    3    0    0  0.34996207036E+02 -0.50285261366E+02  0.37549144857E+03  0.38045784256E+03  0.10000000000E+01 0.  0.
    9000005    1    3    3    0    0 -0.34996207036E+02  0.50285261366E+02  0.24981852399E+03  0.25722293239E+03  0.10000000000E+01 0.  0.
<mgrwt>
<rscale>  0 0.12499684E+03</rscale>
<asrwt>0</asrwt>
<pdfrwt beam="2">  1        4 0.95160099E-03 0.12499684E+03</pdfrwt>
<pdfrwt beam="1">  1       -4 0.97153052E-01 0.12499684E+03</pdfrwt>
<totfact> 0.46575553E+03</totfact>
</mgrwt>
</event>
<event>
 4    1  0.3199195E-002  0.1247098E+03  0.7818608E-02  0.1235523E+00
         -4   -1    0    0    0  501 -0.00000000000E+00  0.00000000000E+00  0.87943505595E+01  0.88855783022E+01  0.12700000000E+01 0. -1.
          4   -1    0    0  501    0  0.00000000000E+00 -0.00000000000E+00 -0.43974387536E+03  0.43974570927E+03  0.12700000000E+01 0. -1.
    9000005    1    1    2    0    0 -0.51430488608E+02  0.13566749520E+02 -0.98463344473E+02  0.11191595979E+03  0.10000000000E+01 0.  0.
    9000005    1    1    2    0    0  0.51430488608E+02 -0.13566749520E+02 -0.33248618033E+03  0.33671532778E+03  0.10000000000E+01 0.  0.
<mgrwt>
<rscale>  0 0.12470982E+03</rscale>
<asrwt>0</asrwt>
<pdfrwt beam="2">  1        4 0.67660046E-01 0.12470982E+03</pdfrwt>
<pdfrwt beam="1">  1       -4 0.13601359E-02 0.12470982E+03</pdfrwt>
<totfact> 0.60468242E+03</totfact>
</mgrwt>
</event>
<event>
 5    1  0.3199195E-002  0.1249998E+03  0.7818608E-02  0.1235070E+00
          4   -1    0    0  501    0  0.00000000000E+00  0.00000000000E+00  0.38563414698E+02  0.38584321338E+02  0.12700000000E+01 0.  1.
         -4   -1    0    0    0  501 -0.00000000000E+00 -0.00000000000E+00 -0.10124157758E+03  0.10124954287E+03  0.12700000000E+01 0.  1.
         25    2    1    2    0    0  0.00000000000E+00  0.00000000000E+00 -0.62678162885E+02  0.13983386421E+03  0.12499982991E+03 0.  0.
    9000005    1    3    3    0    0 -0.36464304343E+02 -0.48957811590E+02 -0.46294462671E+02  0.76620428614E+02  0.10000000000E+01 0.  0.
    9000005    1    3    3    0    0  0.36464304343E+02  0.48957811590E+02 -0.16383700214E+02  0.63213435594E+02  0.10000000000E+01 0.  0.
<mgrwt>
<rscale>  0 0.12499983E+03</rscale>
<asrwt>0</asrwt>
<pdfrwt beam="1">  1        4 0.59350540E-02 0.12499983E+03</pdfrwt>
<pdfrwt beam="2">  1       -4 0.15577848E-01 0.12499983E+03</pdfrwt>
<totfact> 0.10137069E+04</totfact>
</mgrwt>
</event>
<event>
 5    1  0.3199195E-002  0.1250016E+03  0.7818608E-02  0.1235067E+00
          4   -1    0    0  501    0  0.00000000000E+00  0.00000000000E+00  0.42825581476E+02  0.42844408372E+02  0.12700000000E+01 0. -1.
         -4   -1    0    0    0  501 -0.00000000000E+00 -0.00000000000E+00 -0.91171979279E+02  0.91180824221E+02  0.12700000000E+01 0. -1.
         25    2    1    2    0    0  0.00000000000E+00  0.00000000000E+00 -0.48346397803E+02  0.13402523259E+03  0.12500155515E+03 0.  0.
    9000005    1    3    3    0    0  0.58264319891E+02 -0.13865189767E+02 -0.50421364364E+01  0.60111542981E+02  0.10000000000E+01 0.  0.
    9000005    1    3    3    0    0 -0.58264319891E+02  0.13865189767E+02 -0.43304261367E+02  0.73913689613E+02  0.10000000000E+01 0.  0.
<mgrwt>
<rscale>  0 0.12500156E+03</rscale>
<asrwt>0</asrwt>
<pdfrwt beam="1">  1        4 0.65906796E-02 0.12500156E+03</pdfrwt>
<pdfrwt beam="2">  1       -4 0.14028587E-01 0.12500156E+03</pdfrwt>
<totfact> 0.10258298E+04</totfact>
</mgrwt>
</event>
<event>
 5    1  0.3199195E-002  0.1249983E+03  0.7818608E-02  0.1235072E+00
         -4   -1    0    0    0  501 -0.00000000000E+00  0.00000000000E+00  0.22713182404E+02  0.22748660508E+02  0.12700000000E+01 0.  1.
          4   -1    0    0  501    0  0.00000000000E+00 -0.00000000000E+00 -0.17180478284E+03  0.17180947677E+03  0.12700000000E+01 0.  1.
         25    2    1    2    0    0  0.00000000000E+00  0.00000000000E+00 -0.14909160044E+03  0.19455813727E+03  0.12499825382E+03 0.  0.
    9000005    1    3    3    0    0 -0.14563153183E+02  0.74871230283E+01  0.19322079867E+02  0.25347292011E+02  0.10000000000E+01 0.  0.
    9000005    1    3    3    0    0  0.14563153183E+02 -0.74871230283E+01 -0.16841368030E+03  0.16921084526E+03  0.10000000000E+01 0.  0.
<mgrwt>
<rscale>  0 0.12499825E+03</rscale>
<asrwt>0</asrwt>
<pdfrwt beam="2">  1        4 0.26434594E-01 0.12499825E+03</pdfrwt>
<pdfrwt beam="1">  1       -4 0.34974260E-02 0.12499825E+03</pdfrwt>
<totfact> 0.91063768E+03</totfact>
</mgrwt>
</event>
<event>
 5    1  0.3199195E-002  0.1250011E+03  0.7818608E-02  0.1235068E+00
          4   -1    0    0  501    0  0.00000000000E+00  0.00000000000E+00  0.54849753845E+02  0.54864454767E+02  0.12700000000E+01 0. -1.
         -4   -1    0    0    0  501 -0.00000000000E+00 -0.00000000000E+00 -0.71188590673E+02  0.71199918132E+02  0.12700000000E+01 0. -1.
         25    2    1    2    0    0  0.00000000000E+00  0.00000000000E+00 -0.16338836828E+02  0.12606437290E+03  0.12500107410E+03 0.  0.
    9000005    1    3    3    0    0 -0.31489979390E+02  0.50352458357E+02 -0.27785534293E+02  0.65574574193E+02  0.10000000000E+01 0.  0.
    9000005    1    3    3    0    0  0.31489979390E+02 -0.50352458357E+02  0.11446697465E+02  0.60489798706E+02  0.10000000000E+01 0.  0.
<mgrwt>
<rscale>  0 0.12500107E+03</rscale>
<asrwt>0</asrwt>
<pdfrwt beam="1">  1        4 0.84404258E-02 0.12500107E+03</pdfrwt>
<pdfrwt beam="2">  1       -4 0.10954093E-01 0.12500107E+03</pdfrwt>
<totfact> 0.10429294E+04</totfact>
</mgrwt>
</event>
<event>
 5    1  0.3199195E-002  0.1249976E+03  0.7818608E-02  0.1235073E+00
          4   -1    0    0  501    0  0.00000000000E+00  0.00000000000E+00  0.14216417652E+03  0.14216984907E+03  0.12700000000E+01 0.  1.
         -4   -1    0    0    0  501 -0.00000000000E+00 -0.00000000000E+00 -0.27455092954E+02  0.27484450679E+02  0.12700000000E+01 0.  1.
         25    2    1    2    0    0  0.00000000000E+00  0.00000000000E+00  0.11470908356E+03  0.16965429975E+03  0.12499763026E+03 0.  0.
    9000005    1    3    3    0    0  0.24909834135E+01  0.22126382644E+02 -0.21895040156E+02  0.31243792835E+02  0.10000000000E+01 0.  0.
    9000005    1    3    3    0    0 -0.24909834135E+01 -0.22126382644E+02  0.13660412372E+03  0.13841050691E+03  0.10000000000E+01 0.  0.
<mgrwt>
<rscale>  0 0.12499763E+03</rscale>
<asrwt>0</asrwt>
<pdfrwt beam="1">  1        4 0.21874106E-01 0.12499763E+03</pdfrwt>
<pdfrwt beam="2">  1       -4 0.42265551E-02 0.12499763E+03</pdfrwt>
<totfact> 0.95518190E+03</totfact>
</mgrwt>
</event>
<event>
 5    1  0.3199195E-002  0.1249991E+03  0.7818608E-02  0.1235071E+00
         -4   -1    0    0    0  501 -0.00000000000E+00  0.00000000000E+00  0.38359404209E+02  0.38380421978E+02  0.12700000000E+01 0. -1.
          4   -1    0    0  501    0  0.00000000000E+00 -0.00000000000E+00 -0.10177853422E+03  0.10178645749E+03  0.12700000000E+01 0. -1.
         25    2    1    2    0    0  0.00000000000E+00  0.00000000000E+00 -0.63419130012E+02  0.14016687947E+03  0.12499907219E+03 0.  0.
    9000005    1    3    3    0    0  0.89879391627E+01 -0.27600519651E+02  0.30346636987E+02  0.42005834259E+02  0.10000000000E+01 0.  0.
    9000005    1    3    3    0    0 -0.89879391627E+01  0.27600519651E+02 -0.93765766999E+02  0.98161045208E+02  0.10000000000E+01 0.  0.
<mgrwt>
<rscale>  0 0.12499907E+03</rscale>
<asrwt>0</asrwt>
<pdfrwt beam="2">  1        4 0.15660462E-01 0.12499907E+03</pdfrwt>
<pdfrwt beam="1">  1       -4 0.59036731E-02 0.12499907E+03</pdfrwt>
<totfact> 0.10130340E+04</totfact>
</mgrwt>
</event>
<event>
 5    1  0.3199195E-002  0.1250010E+03  0.7818608E-02  0.1235068E+00
          4   -1    0    0  501    0  0.00000000000E+00  0.00000000000E+00  0.74576486933E+01  0.75650131548E+01  0.12700000000E+01 0.  1.
         -4   -1    0    0    0  501 -0.00000000000E+00 -0.00000000000E+00 -0.51994781459E+03  0.51994936561E+03  0.12700000000E+01 0.  1.
         25    2    1    2    0    0  0.00000000000E+00  0.00000000000E+00 -0.51249016589E+03  0.52751437876E+03  0.12500099864E+03 0.  0.
    9000005    1    3    3    0    0 -0.31594008995E+02  0.14688807571E+02 -0.37313953129E+02  0.51061468549E+02  0.10000000000E+01 0.  0.
    9000005    1    3    3    0    0  0.31594008995E+02 -0.14688807571E+02 -0.47517621276E+03  0.47645291021E+03  0.10000000000E+01 0.  0.
<mgrwt>
<rscale>  0 0.12500100E+03</rscale>
<asrwt>0</asrwt>
<pdfrwt beam="1">  1        4 0.11557091E-02 0.12500100E+03</pdfrwt>
<pdfrwt beam="2">  1       -4 0.80000321E-01 0.12500100E+03</pdfrwt>
<totfact> 0.53789878E+03</totfact>
</mgrwt>
</event>
<event>
 5    1  0.3199195E-002  0.1250064E+03  0.7818608E-02  0.1235059E+00
         -4   -1    0    0    0  501 -0.00000000000E+00  0.00000000000E+00  0.38221839814E+03  0.38222050806E+03  0.12700000000E+01 0.  1.
          4   -1    0    0  501    0  0.00000000000E+00 -0.00000000000E+00 -0.10179386032E+02  0.10258303953E+02  0.12700000000E+01 0.  1.
         25    2    1    2    0    0  0.00000000000E+00  0.00000000000E+00  0.37203901211E+03  0.39247881201E+03  0.12500636521E+03 0.  0.
    9000005    1    3    3    0    0 -0.62170217118E+02 -0.27347580900E+01  0.20406456668E+03  0.21334470271E+03  0.10000000000E+01 0.  0.
    9000005    1    3    3    0    0  0.62170217118E+02  0.27347580900E+01  0.16797444543E+03  0.17913410930E+03  0.10000000000E+01 0.  0.
<mgrwt>
<rscale>  0 0.12500637E+03</rscale>
<asrwt>0</asrwt>
<pdfrwt beam="2">  1        4 0.15722921E-02 0.12500637E+03</pdfrwt>
<pdfrwt beam="1">  1       -4 0.58809072E-01 0.12500637E+03</pdfrwt>
<totfact> 0.65281739E+03</totfact>
</mgrwt>
</event>
<event>
 5    1  0.3199195E-002  0.1249934E+03  0.7818608E-02  0.1235080E+00
          4   -1    0    0  501    0  0.00000000000E+00  0.00000000000E+00  0.21542348686E+01  0.25007254686E+01  0.12700000000E+01 0. -1.
         -4   -1    0    0    0  501 -0.00000000000E+00 -0.00000000000E+00 -0.16777944323E+04  0.16777949130E+04  0.12700000000E+01 0. -1.
         25    2    1    2    0    0  0.00000000000E+00  0.00000000000E+00 -0.16756401974E+04  0.16802956384E+04  0.12499344493E+03 0.  0.
    9000005    1    3    3    0    0  0.11752630979E+02 -0.34496968190E+02 -0.15543694213E+03  0.15965527904E+03  0.10000000000E+01 0.  0.
    9000005    1    3    3    0    0 -0.11752630979E+02  0.34496968190E+02 -0.15202032553E+04  0.15206403594E+04  0.10000000000E+01 0.  0.
<mgrwt>
<rscale>  0 0.12499344E+03</rscale>
<asrwt>0</asrwt>
<pdfrwt beam="1">  1        4 0.35811219E-03 0.12499344E+03</pdfrwt>
<pdfrwt beam="2">  1       -4 0.25814794E+00 0.12499344E+03</pdfrwt>
<totfact> 0.14641532E+03</totfact>
</mgrwt>
</event>
<event>
 5    1  0.3199195E-002  0.1249974E+03  0.7818608E-02  0.1235073E+00
         -4   -1    0    0    0  501 -0.00000000000E+00  0.00000000000E+00  0.36764117474E+03  0.36764336831E+03  0.12700000000E+01 0. -1.
          4   -1    0    0  501    0  0.00000000000E+00 -0.00000000000E+00 -0.10584544009E+02  0.10660463023E+02  0.12700000000E+01 0. -1.
         25    2    1    2    0    0  0.00000000000E+00  0.00000000000E+00  0.35705663073E+03  0.37830383133E+03  0.12499740499E+03 0.  0.
    9000005    1    3    3    0    0  0.49640421703E+02  0.28852496506E+02  0.25318214929E+03  0.25961286320E+03  0.10000000000E+01 0.  0.
    9000005    1    3    3    0    0 -0.49640421703E+02 -0.28852496506E+02  0.10387448144E+03  0.11869096813E+03  0.10000000000E+01 0.  0.
<mgrwt>
<rscale>  0 0.12499740E+03</rscale>
<asrwt>0</asrwt>
<pdfrwt beam="2">  1        4 0.16344001E-02 0.12499740E+03</pdfrwt>
<pdfrwt beam="1">  1       -4 0.56566187E-01 0.12499740E+03</pdfrwt>
<totfact> 0.66722883E+03</totfact>
</mgrwt>
</event>
<event>
 5    1  0.3199195E-002  0.1249999E+03  0.7818608E-02  0.1235069E+00
         -4   -1    0    0    0  501 -0.00000000000E+00  0.00000000000E+00  0.19401141021E+02  0.19442663730E+02  0.12700000000E+01 0. -1.
          4   -1    0    0  501    0  0.00000000000E+00 -0.00000000000E+00 -0.20108205929E+03  0.20108606980E+03  0.12700000000E+01 0. -1.
         25    2    1    2    0    0  0.00000000000E+00  0.00000000000E+00 -0.18168091827E+03  0.22052873353E+03  0.12499986500E+03 0.  0.
    9000005    1    3    3    0    0  0.17157145465E+02 -0.74698722518E+01  0.14350888454E+02  0.23603275861E+02  0.10000000000E+01 0.  0.
    9000005    1    3    3    0    0 -0.17157145465E+02  0.74698722518E+01 -0.19603180672E+03  0.19692545767E+03  0.10000000000E+01 0.  0.
<mgrwt>
<rscale>  0 0.12499987E+03</rscale>
<asrwt>0</asrwt>
<pdfrwt beam="2">  1        4 0.30939203E-01 0.12499987E+03</pdfrwt>
<pdfrwt beam="1">  1       -4 0.29882936E-02 0.12499987E+03</pdfrwt>
<totfact> 0.86785016E+03</totfact>
</mgrwt>
</event>
<event>
 5    1  0.3199195E-002  0.1250014E+03  0.7818608E-02  0.1235067E+00
         -4   -1    0    0    0  501 -0.00000000000E+00  0.00000000000E+00  0.10574991049E+02  0.10650978157E+02  0.12700000000E+01 0. -1.
          4   -1    0    0  501    0  0.00000000000E+00 -0.00000000000E+00 -0.36799419111E+03  0.36799638258E+03  0.12700000000E+01 0. -1.
         25    2    1    2    0    0  0.00000000000E+00  0.00000000000E+00 -0.35741920006E+03  0.37864736074E+03  0.12500135687E+03 0.  0.
    9000005    1    3    3    0    0  0.20765008157E+02  0.50822376071E+02 -0.88278793476E+02  0.10396270894E+03  0.10000000000E+01 0.  0.
    9000005    1    3    3    0    0 -0.20765008157E+02 -0.50822376071E+02 -0.26914040659E+03  0.27468465180E+03  0.10000000000E+01 0.  0.
<mgrwt>
<rscale>  0 0.12500136E+03</rscale>
<asrwt>0</asrwt>
<pdfrwt beam="2">  1        4 0.56620495E-01 0.12500136E+03</pdfrwt>
<pdfrwt beam="1">  1       -4 0.16329357E-02 0.12500136E+03</pdfrwt>
<totfact> 0.66681866E+03</totfact>
</mgrwt>
</event>
<event>
 5    1  0.3199195E-002  0.1249998E+03  0.7818608E-02  0.1235070E+00
         -4   -1    0    0    0  501 -0.00000000000E+00  0.00000000000E+00  0.48657555639E+01  0.50287649784E+01  0.12700000000E+01 0.  1.
          4   -1    0    0  501    0  0.00000000000E+00 -0.00000000000E+00 -0.78941225109E+03  0.78941327267E+03  0.12700000000E+01 0.  1.
         25    2    1    2    0    0  0.00000000000E+00  0.00000000000E+00 -0.78454649552E+03  0.79444203765E+03  0.12499979018E+03 0.  0.
    9000005    1    3    3    0    0 -0.15366437429E+02  0.25296998773E+02 -0.42477237044E+02  0.51782054933E+02  0.10000000000E+01 0.  0.
    9000005    1    3    3    0    0  0.15366437429E+02 -0.25296998773E+02 -0.74206925848E+03  0.74265998271E+03  0.10000000000E+01 0.  0.
<mgrwt>
<rscale>  0 0.12499979E+03</rscale>
<asrwt>0</asrwt>
<pdfrwt beam="2">  1        4 0.12146056E+00 0.12499979E+03</pdfrwt>
<pdfrwt beam="1">  1       -4 0.76119617E-03 0.12499979E+03</pdfrwt>
<totfact> 0.38514260E+03</totfact>
</mgrwt>
</event>
<event>
 5    1  0.3199195E-002  0.1250038E+03  0.7818608E-02  0.1235063E+00
         -4   -1    0    0    0  501 -0.00000000000E+00  0.00000000000E+00  0.84316272103E+02  0.84325836144E+02  0.12700000000E+01 0. -1.
          4   -1    0    0  501    0  0.00000000000E+00 -0.00000000000E+00 -0.46310437778E+02  0.46327848506E+02  0.12700000000E+01 0. -1.
         25    2    1    2    0    0  0.00000000000E+00  0.00000000000E+00  0.38005834325E+02  0.13065368465E+03  0.12500376742E+03 0.  0.
    9000005    1    3    3    0    0 -0.33167881198E+02 -0.20409283955E+01  0.74321561486E+02  0.81418475996E+02  0.10000000000E+01 0.  0.
    9000005    1    3    3    0    0  0.33167881198E+02  0.20409283955E+01 -0.36315727161E+02  0.49235208653E+02  0.10000000000E+01 0.  0.
<mgrwt>
<rscale>  0 0.12500377E+03</rscale>
<asrwt>0</asrwt>
<pdfrwt beam="2">  1        4 0.71267578E-02 0.12500377E+03</pdfrwt>
<pdfrwt beam="1">  1       -4 0.12973809E-01 0.12500377E+03</pdfrwt>
<totfact> 0.10329641E+04</totfact>
</mgrwt>
</event>
<event>
 5    1  0.3199195E-002  0.1250015E+03  0.7818608E-02  0.1235067E+00
         -4   -1    0    0    0  501 -0.00000000000E+00  0.00000000000E+00  0.38459395075E+02  0.38480358231E+02  0.12700000000E+01 0. -1.
          4   -1    0    0  501    0  0.00000000000E+00 -0.00000000000E+00 -0.10151796766E+03  0.10152591127E+03  0.12700000000E+01 0. -1.
         25    2    1    2    0    0  0.00000000000E+00  0.00000000000E+00 -0.63058572587E+02  0.14000626950E+03  0.12500148768E+03 0.  0.
    9000005    1    3    3    0    0  0.48766376188E+02 -0.39059407801E+02 -0.30136563799E+02  0.69375855035E+02  0.10000000000E+01 0.  0.
    9000005    1    3    3    0    0 -0.48766376188E+02  0.39059407801E+02 -0.32922008788E+02  0.70630414461E+02  0.10000000000E+01 0.  0.
<mgrwt>
<rscale>  0 0.12500149E+03</rscale>
<asrwt>0</asrwt>
<pdfrwt beam="2">  1        4 0.15620372E-01 0.12500149E+03</pdfrwt>
<pdfrwt beam="1">  1       -4 0.59190537E-02 0.12500149E+03</pdfrwt>
<totfact> 0.10133116E+04</totfact>
</mgrwt>
</event>
<event>
 5    1  0.3199195E-002  0.1249993E+03  0.7818608E-02  0.1235070E+00
          4   -1    0    0  501    0  0.00000000000E+00  0.00000000000E+00  0.48532263914E+02  0.48548877852E+02  0.12700000000E+01 0. -1.
         -4   -1    0    0    0  501 -0.00000000000E+00 -0.00000000000E+00 -0.80451392235E+02  0.80461415676E+02  0.12700000000E+01 0. -1.
         25    2    1    2    0    0  0.00000000000E+00  0.00000000000E+00 -0.31919128321E+02  0.12901029353E+03  0.12499930033E+03 0.  0.
    9000005    1    3    3    0    0  0.32456302847E+02 -0.97218686703E+01 -0.70154313548E+02  0.77913760237E+02  0.10000000000E+01 0.  0.
    9000005    1    3    3    0    0 -0.32456302847E+02  0.97218686703E+01  0.38235185227E+02  0.51096533290E+02  0.10000000000E+01 0.  0.
<mgrwt>
<rscale>  0 0.12499930E+03</rscale>
<asrwt>0</asrwt>
<pdfrwt beam="1">  1        4 0.74685512E-02 0.12499930E+03</pdfrwt>
<pdfrwt beam="2">  1       -4 0.12379186E-01 0.12499930E+03</pdfrwt>
<totfact> 0.10365889E+04</totfact>
</mgrwt>
</event>
<event>
 5    1  0.3199195E-002  0.1249990E+03  0.7818608E-02  0.1235071E+00
          4   -1    0    0  501    0  0.00000000000E+00  0.00000000000E+00  0.14199155504E+03  0.14199723449E+03  0.12700000000E+01 0. -1.
         -4   -1    0    0    0  501 -0.00000000000E+00 -0.00000000000E+00 -0.27489091939E+02  0.27518413393E+02  0.12700000000E+01 0. -1.
         25    2    1    2    0    0  0.00000000000E+00  0.00000000000E+00  0.11450246310E+03  0.16951564788E+03  0.12499896328E+03 0.  0.
    9000005    1    3    3    0    0 -0.60296551189E+02 -0.11940268889E+01  0.79455679498E+02  0.99756226823E+02  0.10000000000E+01 0.  0.
    9000005    1    3    3    0    0  0.60296551189E+02  0.11940268889E+01  0.35046783602E+02  0.69759421058E+02  0.10000000000E+01 0.  0.
<mgrwt>
<rscale>  0 0.12499896E+03</rscale>
<asrwt>0</asrwt>
<pdfrwt beam="1">  1        4 0.21847547E-01 0.12499896E+03</pdfrwt>
<pdfrwt beam="2">  1       -4 0.42317834E-02 0.12499896E+03</pdfrwt>
<totfact> 0.95541192E+03</totfact>
</mgrwt>
</event>
<event>
 5    1  0.3199195E-002  0.1250099E+03  0.7818608E-02  0.1235054E+00
          4   -1    0    0  501    0  0.00000000000E+00  0.00000000000E+00  0.15949735558E+02  0.16000217635E+02  0.12700000000E+01 0.  1.
         -4   -1    0    0    0  501 -0.00000000000E+00 -0.00000000000E+00 -0.24450975264E+03  0.24451305085E+03  0.12700000000E+01 0.  1.
         25    2    1    2    0    0  0.00000000000E+00  0.00000000000E+00 -0.22856001709E+03  0.26051326849E+03  0.12500992620E+03 0.  0.
    9000005    1    3    3    0    0  0.23019937220E+02 -0.57864994003E+02 -0.10333279798E+03  0.12065215365E+03  0.10000000000E+01 0.  0.
    9000005    1    3    3    0    0 -0.23019937220E+02  0.57864994003E+02 -0.12522721910E+03  0.13986111484E+03  0.10000000000E+01 0.  0.
<mgrwt>
<rscale>  0 0.12500993E+03</rscale>
<asrwt>0</asrwt>
<pdfrwt beam="1">  1        4 0.24579426E-02 0.12500993E+03</pdfrwt>
<pdfrwt beam="2">  1       -4 0.37621019E-01 0.12500993E+03</pdfrwt>
<totfact> 0.80816228E+03</totfact>
</mgrwt>
</event>
<event>
 5    1  0.3199195E-002  0.1249993E+03  0.7818608E-02  0.1235070E+00
         -4   -1    0    0    0  501 -0.00000000000E+00  0.00000000000E+00  0.46422826564E+01  0.48128669483E+01  0.12700000000E+01 0. -1.
          4   -1    0    0  501    0  0.00000000000E+00 -0.00000000000E+00 -0.82608877185E+03  0.82608974808E+03  0.12700000000E+01 0. -1.
         25    2    1    2    0    0  0.00000000000E+00  0.00000000000E+00 -0.82144648919E+03  0.83090261502E+03  0.12499928418E+03 0.  0.
    9000005    1    3    3    0    0 -0.90969390525E+00 -0.52531692362E+02 -0.18581404317E+03  0.19310169571E+03  0.10000000000E+01 0.  0.
    9000005    1    3    3    0    0  0.90969390525E+00  0.52531692362E+02 -0.63563244602E+03  0.63780091932E+03  0.10000000000E+01 0.  0.
<mgrwt>
<rscale>  0 0.12499928E+03</rscale>
<asrwt>0</asrwt>
<pdfrwt beam="2">  1        4 0.12710366E+00 0.12499928E+03</pdfrwt>
<pdfrwt beam="1">  1       -4 0.72739495E-03 0.12499928E+03</pdfrwt>
<totfact> 0.36922405E+03</totfact>
</mgrwt>
</event>
<event>
 5    1  0.3199195E-002  0.1250031E+03  0.7818608E-02  0.1235064E+00
         -4   -1    0    0    0  501 -0.00000000000E+00  0.00000000000E+00  0.69838670169E+02  0.69850216542E+02  0.12700000000E+01 0. -1.
          4   -1    0    0  501    0  0.00000000000E+00 -0.00000000000E+00 -0.55911909064E+02  0.55926330786E+02  0.12700000000E+01 0. -1.
         25    2    1    2    0    0  0.00000000000E+00  0.00000000000E+00  0.13926761105E+02  0.12577654733E+03  0.12500314069E+03 0.  0.
    9000005    1    3    3    0    0  0.46733422068E+02 -0.39804174937E+02  0.18743129452E+02  0.64192600681E+02  0.10000000000E+01 0.  0.
    9000005    1    3    3    0    0 -0.46733422068E+02  0.39804174937E+02 -0.48163683475E+01  0.61583946647E+02  0.10000000000E+01 0.  0.
<mgrwt>
<rscale>  0 0.12500314E+03</rscale>
<asrwt>0</asrwt>
<pdfrwt beam="2">  1        4 0.86038298E-02 0.12500314E+03</pdfrwt>
<pdfrwt beam="1">  1       -4 0.10746408E-01 0.12500314E+03</pdfrwt>
<totfact> 0.10435121E+04</totfact>
</mgrwt>
</event>
<event>
 5    1  0.3199195E-002  0.1250004E+03  0.7818608E-02  0.1235069E+00
         -4   -1    0    0    0  501 -0.00000000000E+00  0.00000000000E+00  0.28716026690E+03  0.28716307525E+03  0.12700000000E+01 0. -1.
          4   -1    0    0  501    0  0.00000000000E+00 -0.00000000000E+00 -0.13570594042E+02  0.13629890779E+02  0.12700000000E+01 0. -1.
         25    2    1    2    0    0  0.00000000000E+00  0.00000000000E+00  0.27358967286E+03  0.30079296603E+03  0.12500039727E+03 0.  0.
    9000005    1    3    3    0    0  0.57987174934E+02  0.83772254756E+01  0.18910619556E+03  0.19797687634E+03  0.10000000000E+01 0.  0.
    9000005    1    3    3    0    0 -0.57987174934E+02 -0.83772254756E+01  0.84483477297E+02  0.10281608969E+03  0.10000000000E+01 0.  0.
<mgrwt>
<rscale>  0 0.12500040E+03</rscale>
<asrwt>0</asrwt>
<pdfrwt beam="2">  1        4 0.20925612E-02 0.12500040E+03</pdfrwt>
<pdfrwt beam="1">  1       -4 0.44183276E-01 0.12500040E+03</pdfrwt>
<totfact> 0.75498813E+03</totfact>
</mgrwt>
</event>
<event>
 5    1  0.3199195E-002  0.1249892E+03  0.7818608E-02  0.1235086E+00
         -4   -1    0    0    0  501 -0.00000000000E+00  0.00000000000E+00  0.23415198176E+02  0.23449614189E+02  0.12700000000E+01 0.  1.
          4   -1    0    0  501    0  0.00000000000E+00 -0.00000000000E+00 -0.16663714012E+03  0.16664197960E+03  0.12700000000E+01 0.  1.
         25    2    1    2    0    0  0.00000000000E+00  0.00000000000E+00 -0.14322194194E+03  0.19009159379E+03  0.12498915704E+03 0.  0.
    9000005    1    3    3    0    0  0.56902939245E+02 -0.16924905262E+02 -0.10126492410E+03  0.11738816706E+03  0.10000000000E+01 0.  0.
    9000005    1    3    3    0    0 -0.56902939245E+02  0.16924905262E+02 -0.41957017845E+02  0.72703426737E+02  0.10000000000E+01 0.  0.
<mgrwt>
<rscale>  0 0.12498916E+03</rscale>
<asrwt>0</asrwt>
<pdfrwt beam="2">  1        4 0.25639502E-01 0.12498916E+03</pdfrwt>
<pdfrwt beam="1">  1       -4 0.36053579E-02 0.12498916E+03</pdfrwt>
<totfact> 0.91853688E+03</totfact>
</mgrwt>
</event>
<event>
 5    1  0.3199195E-002  0.1249988E+03  0.7818608E-02  0.1235071E+00
         -4   -1    0    0    0  501 -0.00000000000E+00  0.00000000000E+00  0.56417922933E+03  0.56418065875E+03  0.12700000000E+01 0. -1.
          4   -1    0    0  501    0  0.00000000000E+00 -0.00000000000E+00 -0.68639569874E+01  0.69804588335E+01  0.12700000000E+01 0. -1.
         25    2    1    2    0    0  0.00000000000E+00  0.00000000000E+00  0.55731527234E+03  0.57116111758E+03  0.12499883781E+03 0.  0.
    9000005    1    3    3    0    0  0.32915827145E+02  0.13383874114E+02  0.51354961020E+03  0.51477838134E+03  0.10000000000E+01 0.  0.
    9000005    1    3    3    0    0 -0.32915827145E+02 -0.13383874114E+02  0.43765662142E+02  0.56382736238E+02  0.10000000000E+01 0.  0.
<mgrwt>
<rscale>  0 0.12499884E+03</rscale>
<asrwt>0</asrwt>
<pdfrwt beam="2">  1        4 0.10650652E-02 0.12499884E+03</pdfrwt>
<pdfrwt beam="1">  1       -4 0.86805863E-01 0.12499884E+03</pdfrwt>
<totfact> 0.50741416E+03</totfact>
</mgrwt>
</event>
<event>
 5    1  0.3199195E-002  0.1249980E+03  0.7818608E-02  0.1235072E+00
         -4   -1    0    0    0  501 -0.00000000000E+00  0.00000000000E+00  0.20467204618E+03  0.20467598634E+03  0.12700000000E+01 0.  1.
          4   -1    0    0  501    0  0.00000000000E+00 -0.00000000000E+00 -0.19059529637E+02  0.19101794941E+02  0.12700000000E+01 0.  1.
         25    2    1    2    0    0  0.00000000000E+00  0.00000000000E+00  0.18561251654E+03  0.22377778129E+03  0.12499795639E+03 0.  0.
    9000005    1    3    3    0    0  0.38067428040E+02  0.28383895248E+02  0.16553428016E+03  0.17221316005E+03  0.10000000000E+01 0.  0.
    9000005    1    3    3    0    0 -0.38067428040E+02 -0.28383895248E+02  0.20078236384E+02  0.51564621237E+02  0.10000000000E+01 0.  0.
<mgrwt>
<rscale>  0 0.12499796E+03</rscale>
<asrwt>0</asrwt>
<pdfrwt beam="2">  1        4 0.29357897E-02 0.12499796E+03</pdfrwt>
<pdfrwt beam="1">  1       -4 0.31491560E-01 0.12499796E+03</pdfrwt>
<totfact> 0.86278010E+03</totfact>
</mgrwt>
</event>
<event>
 5    1  0.3199195E-002  0.1250026E+03  0.7818608E-02  0.1235065E+00
          4   -1    0    0  501    0  0.00000000000E+00  0.00000000000E+00  0.22351248689E+02  0.22387300372E+02  0.12700000000E+01 0.  1.
         -4   -1    0    0    0  501 -0.00000000000E+00 -0.00000000000E+00 -0.17459455058E+03  0.17459916950E+03  0.12700000000E+01 0.  1.
         25    2    1    2    0    0  0.00000000000E+00  0.00000000000E+00 -0.15224330189E+03  0.19698646987E+03  0.12500258535E+03 0.  0.
    9000005    1    3    3    0    0  0.57090930811E+02 -0.25358263774E+02 -0.73394156183E+02  0.96385258646E+02  0.10000000000E+01 0.  0.
    9000005    1    3    3    0    0 -0.57090930811E+02  0.25358263774E+02 -0.78849145703E+02  0.10060121123E+03  0.10000000000E+01 0.  0.
<mgrwt>
<rscale>  0 0.12500259E+03</rscale>
<asrwt>0</asrwt>
<pdfrwt beam="1">  1        4 0.34417823E-02 0.12500259E+03</pdfrwt>
<pdfrwt beam="2">  1       -4 0.26863828E-01 0.12500259E+03</pdfrwt>
<totfact> 0.90640456E+03</totfact>
</mgrwt>
</event>
<event>
 5    1  0.3199195E-002  0.1249995E+03  0.7818608E-02  0.1235070E+00
          4   -1    0    0  501    0  0.00000000000E+00  0.00000000000E+00  0.10112066894E+03  0.10112864376E+03  0.12700000000E+01 0. -1.
         -4   -1    0    0    0  501 -0.00000000000E+00 -0.00000000000E+00 -0.38609351913E+02  0.38630233693E+02  0.12700000000E+01 0. -1.
         25    2    1    2    0    0  0.00000000000E+00  0.00000000000E+00  0.62511317031E+02  0.13975887745E+03  0.12499951627E+03 0.  0.
    9000005    1    3    3    0    0 -0.14931255577E+02  0.11132507071E+02 -0.35439617939E+02  0.40047991541E+02  0.10000000000E+01 0.  0.
    9000005    1    3    3    0    0  0.14931255577E+02 -0.11132507071E+02  0.97950934970E+02  0.99710885907E+02  0.10000000000E+01 0.  0.
<mgrwt>
<rscale>  0 0.12499952E+03</rscale>
<asrwt>0</asrwt>
<pdfrwt beam="1">  1        4 0.15559246E-01 0.12499952E+03</pdfrwt>
<pdfrwt beam="2">  1       -4 0.59421199E-02 0.12499952E+03</pdfrwt>
<totfact> 0.10138696E+04</totfact>
</mgrwt>
</event>
<event>
 5    1  0.3199195E-002  0.1249936E+03  0.7818608E-02  0.1235079E+00
         -4   -1    0    0    0  501 -0.00000000000E+00  0.00000000000E+00  0.21311296366E+03  0.21311674777E+03  0.12700000000E+01 0.  1.
          4   -1    0    0  501    0  0.00000000000E+00 -0.00000000000E+00 -0.18301656151E+02  0.18345667550E+02  0.12700000000E+01 0.  1.
         25    2    1    2    0    0  0.00000000000E+00  0.00000000000E+00  0.19481130751E+03  0.23146241532E+03  0.12499361653E+03 0.  0.
    9000005    1    3    3    0    0  0.22494932601E+02 -0.27671001200E+02  0.23823746662E+01  0.35754468381E+02  0.10000000000E+01 0.  0.
    9000005    1    3    3    0    0 -0.22494932601E+02  0.27671001200E+02  0.19242893285E+03  0.19570794694E+03  0.10000000000E+01 0.  0.
<mgrwt>
<rscale>  0 0.12499362E+03</rscale>
<asrwt>0</asrwt>
<pdfrwt beam="2">  1        4 0.28193161E-02 0.12499362E+03</pdfrwt>
<pdfrwt beam="1">  1       -4 0.32790285E-01 0.12499362E+03</pdfrwt>
<totfact> 0.85097665E+03</totfact>
</mgrwt>
</event>
<event>
 5    1  0.3199195E-002  0.1250002E+03  0.7818608E-02  0.1235069E+00
         -4   -1    0    0    0  501 -0.00000000000E+00  0.00000000000E+00  0.32594093402E+02  0.32618826231E+02  0.12700000000E+01 0. -1.
          4   -1    0    0  501    0  0.00000000000E+00 -0.00000000000E+00 -0.11977209141E+03  0.11977882442E+03  0.12700000000E+01 0. -1.
         25    2    1    2    0    0  0.00000000000E+00  0.00000000000E+00 -0.87177998006E+02  0.15239765065E+03  0.12500016235E+03 0.  0.
    9000005    1    3    3    0    0  0.31103782269E+02  0.13397256250E+02 -0.10762005739E+03  0.11282733933E+03  0.10000000000E+01 0.  0.
    9000005    1    3    3    0    0 -0.31103782269E+02 -0.13397256250E+02  0.20442059387E+02  0.39570311326E+02  0.10000000000E+01 0.  0.
<mgrwt>
<rscale>  0 0.12500016E+03</rscale>
<asrwt>0</asrwt>
<pdfrwt beam="2">  1        4 0.18428896E-01 0.12500016E+03</pdfrwt>
<pdfrwt beam="1">  1       -4 0.50168964E-02 0.12500016E+03</pdfrwt>
<totfact> 0.98827531E+03</totfact>
</mgrwt>
</event>
<event>
 5    1  0.3199195E-002  0.1250011E+03  0.7818608E-02  0.1235068E+00
          4   -1    0    0  501    0  0.00000000000E+00  0.00000000000E+00  0.12694978397E+03  0.12695613632E+03  0.12700000000E+01 0.  1.
         -4   -1    0    0    0  501 -0.00000000000E+00 -0.00000000000E+00 -0.30750329372E+02  0.30776543934E+02  0.12700000000E+01 0.  1.
         25    2    1    2    0    0  0.00000000000E+00  0.00000000000E+00  0.96199454593E+02  0.15773268025E+03  0.12500105342E+03 0.  0.
    9000005    1    3    3    0    0 -0.47301488215E+02  0.19229234466E+02  0.93563523600E+02  0.10659421745E+03  0.10000000000E+01 0.  0.
    9000005    1    3    3    0    0  0.47301488215E+02 -0.19229234466E+02  0.26359309931E+01  0.51138462801E+02  0.10000000000E+01 0.  0.
<mgrwt>
<rscale>  0 0.12500105E+03</rscale>
<asrwt>0</asrwt>
<pdfrwt beam="1">  1        4 0.19533241E-01 0.12500105E+03</pdfrwt>
<pdfrwt beam="2">  1       -4 0.47333250E-02 0.12500105E+03</pdfrwt>
<totfact> 0.97779379E+03</totfact>
</mgrwt>
</event>
<event>
 5    1  0.3199195E-002  0.1250123E+03  0.7818608E-02  0.1235050E+00
          4   -1    0    0  501    0  0.00000000000E+00  0.00000000000E+00  0.12405961569E+02  0.12470797186E+02  0.12700000000E+01 0.  1.
         -4   -1    0    0    0  501 -0.00000000000E+00 -0.00000000000E+00 -0.31404401363E+03  0.31404658158E+03  0.12700000000E+01 0.  1.
         25    2    1    2    0    0  0.00000000000E+00  0.00000000000E+00 -0.30163805207E+03  0.32651737876E+03  0.12501233611E+03 0.  0.
    9000005    1    3    3    0    0 -0.18829188023E+02  0.14260666923E+02  0.31201894430E+00  0.23643229443E+02  0.10000000000E+01 0.  0.
    9000005    1    3    3    0    0  0.18829188023E+02 -0.14260666923E+02 -0.30195007101E+03  0.30287414932E+03  0.10000000000E+01 0.  0.
<mgrwt>
<rscale>  0 0.12501234E+03</rscale>
<asrwt>0</asrwt>
<pdfrwt beam="1">  1        4 0.19137946E-02 0.12501234E+03</pdfrwt>
<pdfrwt beam="2">  1       -4 0.48319642E-01 0.12501234E+03</pdfrwt>
<totfact> 0.72367835E+03</totfact>
</mgrwt>
</event>
<event>
 4    1  0.3199195E-002  0.1251667E+03  0.7818608E-02  0.1234809E+00
         -4   -1    0    0    0  501 -0.00000000000E+00  0.00000000000E+00  0.23237545154E+02  0.23272223890E+02  0.12700000000E+01 0. -1.
          4   -1    0    0  501    0  0.00000000000E+00 -0.00000000000E+00 -0.16838676147E+03  0.16839155067E+03  0.12700000000E+01 0. -1.
    9000005    1    1    2    0    0  0.56209040820E+02  0.23998567114E+02 -0.52013986634E+02  0.80261088324E+02  0.10000000000E+01 0.  0.
    9000005    1    1    2    0    0 -0.56209040820E+02 -0.23998567114E+02 -0.93135229678E+02  0.11140268624E+03  0.10000000000E+01 0.  0.
<mgrwt>
<rscale>  0 0.12516672E+03</rscale>
<asrwt>0</asrwt>
<pdfrwt beam="2">  1        4 0.25908691E-01 0.12516672E+03</pdfrwt>
<pdfrwt beam="1">  1       -4 0.35780430E-02 0.12516672E+03</pdfrwt>
<totfact> 0.91217597E+03</totfact>
</mgrwt>
</event>
<event>
 5    1  0.3199195E-002  0.1249927E+03  0.7818608E-02  0.1235081E+00
          4   -1    0    0  501    0  0.00000000000E+00  0.00000000000E+00  0.89028347083E+02  0.89037404973E+02  0.12700000000E+01 0.  1.
         -4   -1    0    0    0  501 -0.00000000000E+00 -0.00000000000E+00 -0.43850834161E+02  0.43869221062E+02  0.12700000000E+01 0.  1.
         25    2    1    2    0    0  0.00000000000E+00  0.00000000000E+00  0.45177512922E+02  0.13290662603E+03  0.12499265406E+03 0.  0.
    9000005    1    3    3    0    0 -0.73363505136E+01  0.37094027408E+02  0.75488055710E+02  0.84434800071E+02  0.10000000000E+01 0.  0.
    9000005    1    3    3    0    0  0.73363505136E+01 -0.37094027408E+02 -0.30310542788E+02  0.48471825964E+02  0.10000000000E+01 0.  0.
<mgrwt>
<rscale>  0 0.12499265E+03</rscale>
<asrwt>0</asrwt>
<pdfrwt beam="1">  1        4 0.13698780E-01 0.12499265E+03</pdfrwt>
<pdfrwt beam="2">  1       -4 0.67483934E-02 0.12499265E+03</pdfrwt>
<totfact> 0.10284089E+04</totfact>
</mgrwt>
</event>
<event>
 5    1  0.3199195E-002  0.1250010E+03  0.7818608E-02  0.1235068E+00
          4   -1    0    0  501    0  0.00000000000E+00  0.00000000000E+00  0.67583015176E+02  0.67594946855E+02  0.12700000000E+01 0. -1.
         -4   -1    0    0    0  501 -0.00000000000E+00 -0.00000000000E+00 -0.57776155300E+02  0.57790111794E+02  0.12700000000E+01 0. -1.
         25    2    1    2    0    0  0.00000000000E+00  0.00000000000E+00  0.98068598764E+01  0.12538505865E+03  0.12500095372E+03 0.  0.
    9000005    1    3    3    0    0 -0.31176458662E+02 -0.54169770476E+01 -0.49150882504E+02  0.58464728392E+02  0.10000000000E+01 0.  0.
    9000005    1    3    3    0    0  0.31176458662E+02  0.54169770476E+01  0.58957742381E+02  0.66920330257E+02  0.10000000000E+01 0.  0.
<mgrwt>
<rscale>  0 0.12500095E+03</rscale>
<asrwt>0</asrwt>
<pdfrwt beam="1">  1        4 0.10399378E-01 0.12500095E+03</pdfrwt>
<pdfrwt beam="2">  1       -4 0.88906307E-02 0.12500095E+03</pdfrwt>
<totfact> 0.10444273E+04</totfact>
</mgrwt>
</event>
<event>
 5    1  0.3199195E-002  0.1250118E+03  0.7818608E-02  0.1235051E+00
         -4   -1    0    0    0  501 -0.00000000000E+00  0.00000000000E+00  0.40861848168E+03  0.40862045527E+03  0.12700000000E+01 0. -1.
          4   -1    0    0  501    0  0.00000000000E+00 -0.00000000000E+00 -0.95172843856E+01  0.96016458004E+01  0.12700000000E+01 0. -1.
         25    2    1    2    0    0  0.00000000000E+00  0.00000000000E+00  0.39910119729E+03  0.41822210107E+03  0.12501184003E+03 0.  0.
    9000005    1    3    3    0    0  0.62181406393E+02  0.22817556347E+01  0.21913120922E+03  0.22779644546E+03  0.10000000000E+01 0.  0.
    9000005    1    3    3    0    0 -0.62181406393E+02 -0.22817556347E+01  0.17996998807E+03  0.19042565561E+03  0.10000000000E+01 0.  0.
<mgrwt>
<rscale>  0 0.12501184E+03</rscale>
<asrwt>0</asrwt>
<pdfrwt beam="2">  1        4 0.14708390E-02 0.12501184E+03</pdfrwt>
<pdfrwt beam="1">  1       -4 0.62871013E-01 0.12501184E+03</pdfrwt>
<totfact> 0.62801892E+03</totfact>
</mgrwt>
</event>
<event>
 5    1  0.3199195E-002  0.1250032E+03  0.7818608E-02  0.1235064E+00
         -4   -1    0    0    0  501 -0.00000000000E+00  0.00000000000E+00  0.90677357336E+01  0.91562400216E+01  0.12700000000E+01 0.  1.
          4   -1    0    0  501    0  0.00000000000E+00 -0.00000000000E+00 -0.42862582902E+03  0.42862771050E+03  0.12700000000E+01 0.  1.
         25    2    1    2    0    0  0.00000000000E+00  0.00000000000E+00 -0.41955809329E+03  0.43778395052E+03  0.12500317471E+03 0.  0.
    9000005    1    3    3    0    0 -0.42565842876E+02 -0.42754414357E+02 -0.26686113187E+03  0.27359761444E+03  0.10000000000E+01 0.  0.
    9000005    1    3    3    0    0  0.42565842876E+02  0.42754414357E+02 -0.15269696142E+03  0.16418633608E+03  0.10000000000E+01 0.  0.
<mgrwt>
<rscale>  0 0.12500317E+03</rscale>
<asrwt>0</asrwt>
<pdfrwt beam="2">  1        4 0.65949372E-01 0.12500317E+03</pdfrwt>
<pdfrwt beam="1">  1       -4 0.14019893E-02 0.12500317E+03</pdfrwt>
<totfact> 0.61032442E+03</totfact>
</mgrwt>
</event>
<event>
 5    1  0.3199195E-002  0.1249987E+03  0.7818608E-02  0.1235071E+00
         -4   -1    0    0    0  501 -0.00000000000E+00  0.00000000000E+00  0.11686368330E+03  0.11687058387E+03  0.12700000000E+01 0. -1.
          4   -1    0    0  501    0  0.00000000000E+00 -0.00000000000E+00 -0.33405034627E+02  0.33429167481E+02  0.12700000000E+01 0. -1.
         25    2    1    2    0    0  0.00000000000E+00  0.00000000000E+00  0.83458648670E+02  0.15029975135E+03  0.12499867686E+03 0.  0.
    9000005    1    3    3    0    0  0.17669948912E+02  0.35605559558E+02  0.99709768861E+02  0.10734533512E+03  0.10000000000E+01 0.  0.
    9000005    1    3    3    0    0 -0.17669948912E+02 -0.35605559558E+02 -0.16251120192E+02  0.42954416228E+02  0.10000000000E+01 0.  0.
<mgrwt>
<rscale>  0 0.12499868E+03</rscale>
<asrwt>0</asrwt>
<pdfrwt beam="2">  1        4 0.51416234E-02 0.12499868E+03</pdfrwt>
<pdfrwt beam="1">  1       -4 0.17981415E-01 0.12499868E+03</pdfrwt>
<totfact> 0.99246936E+03</totfact>
</mgrwt>
</event>
<event>
 5    1  0.3199195E-002  0.1250078E+03  0.7818608E-02  0.1235057E+00
          4   -1    0    0  501    0  0.00000000000E+00  0.00000000000E+00  0.20113230161E+01  0.23787224040E+01  0.12700000000E+01 0.  1.
         -4   -1    0    0    0  501 -0.00000000000E+00 -0.00000000000E+00 -0.17794493511E+04  0.17794498043E+04  0.12700000000E+01 0.  1.
         25    2    1    2    0    0  0.00000000000E+00  0.00000000000E+00 -0.17774380281E+04  0.17818285267E+04  0.12500781937E+03 0.  0.
    9000005    1    3    3    0    0 -0.51394630894E+02 -0.14406867879E+02 -0.42535794592E+03  0.42869493592E+03  0.10000000000E+01 0.  0.
    9000005    1    3    3    0    0  0.51394630894E+02  0.14406867879E+02 -0.13520800822E+04  0.13531335908E+04  0.10000000000E+01 0.  0.
<mgrwt>
<rscale>  0 0.12500782E+03</rscale>
<asrwt>0</asrwt>
<pdfrwt beam="1">  1        4 0.33773209E-03 0.12500782E+03</pdfrwt>
<pdfrwt beam="2">  1       -4 0.27378858E+00 0.12500782E+03</pdfrwt>
<totfact> 0.12983426E+03</totfact>
</mgrwt>
</event>
<event>
 5    1  0.3199195E-002  0.1249982E+03  0.7818608E-02  0.1235072E+00
          4   -1    0    0  501    0  0.00000000000E+00  0.00000000000E+00  0.25410828432E+03  0.25411145794E+03  0.12700000000E+01 0.  1.
         -4   -1    0    0    0  501 -0.00000000000E+00 -0.00000000000E+00 -0.15342432867E+02  0.15394906505E+02  0.12700000000E+01 0.  1.
         25    2    1    2    0    0  0.00000000000E+00  0.00000000000E+00  0.23876585145E+03  0.26950636445E+03  0.12499819463E+03 0.  0.
    9000005    1    3    3    0    0 -0.27752503634E+02 -0.55193930615E+02  0.99092173892E+02  0.11677684000E+03  0.10000000000E+01 0.  0.
    9000005    1    3    3    0    0  0.27752503634E+02  0.55193930615E+02  0.13967367756E+03  0.15272952445E+03  0.10000000000E+01 0.  0.
<mgrwt>
<rscale>  0 0.12499819E+03</rscale>
<asrwt>0</asrwt>
<pdfrwt beam="1">  1        4 0.39097863E-01 0.12499819E+03</pdfrwt>
<pdfrwt beam="2">  1       -4 0.23646548E-02 0.12499819E+03</pdfrwt>
<totfact> 0.79593409E+03</totfact>
</mgrwt>
</event>
<event>
 5    1  0.3199195E-002  0.1250004E+03  0.7818608E-02  0.1235069E+00
         -4   -1    0    0    0  501 -0.00000000000E+00  0.00000000000E+00  0.17216144406E+03  0.17216612826E+03  0.12700000000E+01 0.  1.
          4   -1    0    0  501    0  0.00000000000E+00 -0.00000000000E+00 -0.22666837607E+02  0.22702388136E+02  0.12700000000E+01 0.  1.
         25    2    1    2    0    0  0.00000000000E+00  0.00000000000E+00  0.14949460645E+03  0.19486851640E+03  0.12500040530E+03 0.  0.
    9000005    1    3    3    0    0 -0.60613571451E+01 -0.61139453861E+02  0.56938300079E+02  0.83771969564E+02  0.10000000000E+01 0.  0.
    9000005    1    3    3    0    0  0.60613571451E+01  0.61139453861E+02  0.92556306376E+02  0.11109654684E+03  0.10000000000E+01 0.  0.
<mgrwt>
<rscale>  0 0.12500041E+03</rscale>
<asrwt>0</asrwt>
<pdfrwt beam="2">  1        4 0.34903008E-02 0.12500041E+03</pdfrwt>
<pdfrwt beam="1">  1       -4 0.26489471E-01 0.12500041E+03</pdfrwt>
<totfact> 0.91006215E+03</totfact>
</mgrwt>
</event>
<event>
 4    1  0.3199195E-002  0.1246013E+03  0.7818608E-02  0.1235694E+00
         -4   -1    0    0    0  501 -0.00000000000E+00  0.00000000000E+00  0.14782891957E+03  0.14783437476E+03  0.12700000000E+01 0.  1.
          4   -1    0    0  501    0  0.00000000000E+00 -0.00000000000E+00 -0.26234540024E+02  0.26265262044E+02  0.12700000000E+01 0.  1.
    9000005    1    1    2    0    0  0.28806731024E+02 -0.38058901216E+02  0.48709973762E+01  0.47989939878E+02  0.10000000000E+01 0.  0.
    9000005    1    1    2    0    0 -0.28806731024E+02  0.38058901216E+02  0.11672338217E+03  0.12610969693E+03  0.10000000000E+01 0.  0.
<mgrwt>
<rscale>  0 0.12460133E+03</rscale>
<asrwt>0</asrwt>
<pdfrwt beam="2">  1        4 0.40388659E-02 0.12460133E+03</pdfrwt>
<pdfrwt beam="1">  1       -4 0.22745694E-01 0.12460133E+03</pdfrwt>
<totfact> 0.95541949E+03</totfact>
</mgrwt>
</event>
<event>
 5    1  0.3199195E-002  0.1250001E+03  0.7818608E-02  0.1235069E+00
         -4   -1    0    0    0  501 -0.00000000000E+00  0.00000000000E+00  0.62342387776E+02  0.62355322256E+02  0.12700000000E+01 0. -1.
          4   -1    0    0  501    0  0.00000000000E+00 -0.00000000000E+00 -0.62632200203E+02  0.62645074844E+02  0.12700000000E+01 0. -1.
         25    2    1    2    0    0  0.00000000000E+00  0.00000000000E+00 -0.28981242626E+00  0.12500039710E+03  0.12500006114E+03 0.  0.
    9000005    1    3    3    0    0 -0.46397013866E+02 -0.35297894139E+02 -0.22653400567E+02  0.62552384315E+02  0.10000000000E+01 0.  0.
    9000005    1    3    3    0    0  0.46397013866E+02  0.35297894139E+02  0.22363588141E+02  0.62448012785E+02  0.10000000000E+01 0.  0.
<mgrwt>
<rscale>  0 0.12500006E+03</rscale>
<asrwt>0</asrwt>
<pdfrwt beam="2">  1        4 0.96377084E-02 0.12500006E+03</pdfrwt>
<pdfrwt beam="1">  1       -4 0.95931219E-02 0.12500006E+03</pdfrwt>
<totfact> 0.10452839E+04</totfact>
</mgrwt>
</event>
<event>
 5    1  0.3199195E-002  0.1249990E+03  0.7818608E-02  0.1235071E+00
          4   -1    0    0  501    0  0.00000000000E+00  0.00000000000E+00  0.11888367855E+03  0.11889046188E+03  0.12700000000E+01 0. -1.
         -4   -1    0    0    0  501 -0.00000000000E+00 -0.00000000000E+00 -0.32837205870E+02  0.32861755726E+02  0.12700000000E+01 0. -1.
         25    2    1    2    0    0  0.00000000000E+00  0.00000000000E+00  0.86046472680E+02  0.15175221760E+03  0.12499896034E+03 0.  0.
    9000005    1    3    3    0    0 -0.31847222255E+02  0.35842138517E+02 -0.56330935677E+01  0.48287018980E+02  0.10000000000E+01 0.  0.
    9000005    1    3    3    0    0  0.31847222255E+02 -0.35842138517E+02  0.91679566248E+02  0.10346519862E+03  0.10000000000E+01 0.  0.
<mgrwt>
<rscale>  0 0.12499896E+03</rscale>
<asrwt>0</asrwt>
<pdfrwt beam="1">  1        4 0.18292207E-01 0.12499896E+03</pdfrwt>
<pdfrwt beam="2">  1       -4 0.50542881E-02 0.12499896E+03</pdfrwt>
<totfact> 0.98957875E+03</totfact>
</mgrwt>
</event>
<event>
 5    1  0.3199195E-002  0.1250434E+03  0.7818608E-02  0.1235001E+00
         -4   -1    0    0    0  501 -0.00000000000E+00  0.00000000000E+00  0.39225319299E+02  0.39245873339E+02  0.12700000000E+01 0. -1.
          4   -1    0    0  501    0  0.00000000000E+00 -0.00000000000E+00 -0.99603408880E+02  0.99611505161E+02  0.12700000000E+01 0. -1.
         25    2    1    2    0    0  0.00000000000E+00  0.00000000000E+00 -0.60378089581E+02  0.13885737850E+03  0.12504342391E+03 0.  0.
    9000005    1    3    3    0    0  0.19110017138E+02 -0.40584181009E+02 -0.78538596037E+02  0.90452084390E+02  0.10000000000E+01 0.  0.
    9000005    1    3    3    0    0 -0.19110017138E+02  0.40584181009E+02  0.18160506456E+02  0.48405294110E+02  0.10000000000E+01 0.  0.
<mgrwt>
<rscale>  0 0.12504342E+03</rscale>
<asrwt>0</asrwt>
<pdfrwt beam="2">  1        4 0.15325805E-01 0.12504342E+03</pdfrwt>
<pdfrwt beam="1">  1       -4 0.60368684E-02 0.12504342E+03</pdfrwt>
<totfact> 0.10147390E+04</totfact>
</mgrwt>
</event>
<event>
 5    1  0.3199195E-002  0.1250099E+03  0.7818608E-02  0.1235054E+00
          4   -1    0    0  501    0  0.00000000000E+00  0.00000000000E+00  0.83455136383E+01  0.84415933264E+01  0.12700000000E+01 0. -1.
         -4   -1    0    0    0  501 -0.00000000000E+00 -0.00000000000E+00 -0.46536339252E+03  0.46536512546E+03  0.12700000000E+01 0. -1.
         25    2    1    2    0    0  0.00000000000E+00  0.00000000000E+00 -0.45701787888E+03  0.47380671879E+03  0.12500986022E+03 0.  0.
    9000005    1    3    3    0    0  0.45980902195E+02 -0.22231858877E+02 -0.36502647231E+03  0.36858353789E+03  0.10000000000E+01 0.  0.
    9000005    1    3    3    0    0 -0.45980902195E+02  0.22231858877E+02 -0.91991406568E+02  0.10522318090E+03  0.10000000000E+01 0.  0.
<mgrwt>
<rscale>  0 0.12500986E+03</rscale>
<asrwt>0</asrwt>
<pdfrwt beam="1">  1        4 0.12914496E-02 0.12500986E+03</pdfrwt>
<pdfrwt beam="2">  1       -4 0.71601872E-01 0.12500986E+03</pdfrwt>
<totfact> 0.57942935E+03</totfact>
</mgrwt>
</event>
<event>
 5    1  0.3199195E-002  0.1250010E+03  0.7818608E-02  0.1235068E+00
         -4   -1    0    0    0  501 -0.00000000000E+00  0.00000000000E+00  0.84992145337E+01  0.85935759547E+01  0.12700000000E+01 0.  1.
          4   -1    0    0  501    0  0.00000000000E+00 -0.00000000000E+00 -0.45697597242E+03  0.45697773717E+03  0.12700000000E+01 0.  1.
         25    2    1    2    0    0  0.00000000000E+00  0.00000000000E+00 -0.44847675789E+03  0.46557131312E+03  0.12500098096E+03 0.  0.
    9000005    1    3    3    0    0  0.10740598738E+02  0.22163461485E+02 -0.43815587020E+03  0.43884865965E+03  0.10000000000E+01 0.  0.
    9000005    1    3    3    0    0 -0.10740598738E+02 -0.22163461485E+02 -0.10320887691E+02  0.26722653479E+02  0.10000000000E+01 0.  0.
<mgrwt>
<rscale>  0 0.12500098E+03</rscale>
<asrwt>0</asrwt>
<pdfrwt beam="2">  1        4 0.70311371E-01 0.12500098E+03</pdfrwt>
<pdfrwt beam="1">  1       -4 0.13149661E-02 0.12500098E+03</pdfrwt>
<totfact> 0.58636937E+03</totfact>
</mgrwt>
</event>
<event>
 5    1  0.3199195E-002  0.1249999E+03  0.7818608E-02  0.1235070E+00
         -4   -1    0    0    0  501 -0.00000000000E+00  0.00000000000E+00  0.72082199208E+02  0.72093386262E+02  0.12700000000E+01 0.  1.
          4   -1    0    0  501    0  0.00000000000E+00 -0.00000000000E+00 -0.54168638891E+02  0.54183524612E+02  0.12700000000E+01 0.  1.
         25    2    1    2    0    0  0.00000000000E+00  0.00000000000E+00  0.17913560317E+02  0.12627691087E+03  0.12499985031E+03 0.  0.
    9000005    1    3    3    0    0  0.34799376938E+02 -0.35021419069E+02 -0.29745775594E+02  0.57648136089E+02  0.10000000000E+01 0.  0.
    9000005    1    3    3    0    0 -0.34799376938E+02  0.35021419069E+02  0.47659335911E+02  0.68628774784E+02  0.10000000000E+01 0.  0.
<mgrwt>
<rscale>  0 0.12499985E+03</rscale>
<asrwt>0</asrwt>
<pdfrwt beam="2">  1        4 0.83356424E-02 0.12499985E+03</pdfrwt>
<pdfrwt beam="1">  1       -4 0.11091575E-01 0.12499985E+03</pdfrwt>
<totfact> 0.10424933E+04</totfact>
</mgrwt>
</event>
<event>
 5    1  0.3199195E-002  0.1249995E+03  0.7818608E-02  0.1235070E+00
          4   -1    0    0  501    0  0.00000000000E+00  0.00000000000E+00  0.27975487209E+03  0.27975775478E+03  0.12700000000E+01 0.  1.
         -4   -1    0    0    0  501 -0.00000000000E+00 -0.00000000000E+00 -0.13931157997E+02  0.13988926447E+02  0.12700000000E+01 0.  1.
         25    2    1    2    0    0  0.00000000000E+00  0.00000000000E+00  0.26582371410E+03  0.29374668123E+03  0.12499946302E+03 0.  0.
    9000005    1    3    3    0    0  0.69901315661E+00  0.29208956091E+02  0.26272722622E+03  0.26434872258E+03  0.10000000000E+01 0.  0.
    9000005    1    3    3    0    0 -0.69901315661E+00 -0.29208956091E+02  0.30964878797E+01  0.29397958645E+02  0.10000000000E+01 0.  0.
<mgrwt>
<rscale>  0 0.12499946E+03</rscale>
<asrwt>0</asrwt>
<pdfrwt beam="1">  1        4 0.43043872E-01 0.12499946E+03</pdfrwt>
<pdfrwt beam="2">  1       -4 0.21479208E-02 0.12499946E+03</pdfrwt>
<totfact> 0.76390912E+03</totfact>
</mgrwt>
</event>
<event>
 5    1  0.3199195E-002  0.1250064E+03  0.7818608E-02  0.1235059E+00
         -4   -1    0    0    0  501 -0.00000000000E+00  0.00000000000E+00  0.13498363751E+02  0.13557976396E+02  0.12700000000E+01 0.  1.
          4   -1    0    0  501    0  0.00000000000E+00 -0.00000000000E+00 -0.28871794018E+03  0.28872073338E+03  0.12700000000E+01 0.  1.
         25    2    1    2    0    0  0.00000000000E+00  0.00000000000E+00 -0.27521957643E+03  0.30227870978E+03  0.12500641236E+03 0.  0.
    9000005    1    3    3    0    0 -0.49794290684E+02 -0.26238975328E+02 -0.20328687140E+03  0.21093721173E+03  0.10000000000E+01 0.  0.
    9000005    1    3    3    0    0  0.49794290684E+02  0.26238975328E+02 -0.71932705033E+02  0.91341498041E+02  0.10000000000E+01 0.  0.
<mgrwt>
<rscale>  0 0.12500641E+03</rscale>
<asrwt>0</asrwt>
<pdfrwt beam="2">  1        4 0.44422941E-01 0.12500641E+03</pdfrwt>
<pdfrwt beam="1">  1       -4 0.20814720E-02 0.12500641E+03</pdfrwt>
<totfact> 0.75303171E+03</totfact>
</mgrwt>
</event>
<event>
 5    1  0.3199195E-002  0.1250013E+03  0.7818608E-02  0.1235067E+00
          4   -1    0    0  501    0  0.00000000000E+00  0.00000000000E+00  0.70776427892E+01  0.71906833786E+01  0.12700000000E+01 0. -1.
         -4   -1    0    0    0  501 -0.00000000000E+00 -0.00000000000E+00 -0.54743872559E+03  0.54744019872E+03  0.12700000000E+01 0. -1.
         25    2    1    2    0    0  0.00000000000E+00  0.00000000000E+00 -0.54036108280E+03  0.55463088210E+03  0.12500126228E+03 0.  0.
    9000005    1    3    3    0    0 -0.22677502136E+02 -0.47206639831E+02 -0.42146819624E+03  0.42471069728E+03  0.10000000000E+01 0.  0.
    9000005    1    3    3    0    0  0.22677502136E+02  0.47206639831E+02 -0.11889288656E+03  0.12992018482E+03  0.10000000000E+01 0.  0.
<mgrwt>
<rscale>  0 0.12500126E+03</rscale>
<asrwt>0</asrwt>
<pdfrwt beam="1">  1        4 0.10976773E-02 0.12500126E+03</pdfrwt>
<pdfrwt beam="2">  1       -4 0.84230118E-01 0.12500126E+03</pdfrwt>
<totfact> 0.51861249E+03</totfact>
</mgrwt>
</event>
<event>
 5    1  0.3199195E-002  0.1249998E+03  0.7818608E-02  0.1235070E+00
          4   -1    0    0  501    0  0.00000000000E+00  0.00000000000E+00  0.60536181421E+03  0.60536314639E+03  0.12700000000E+01 0.  1.
         -4   -1    0    0    0  501 -0.00000000000E+00 -0.00000000000E+00 -0.63888884842E+01  0.65138925431E+01  0.12700000000E+01 0.  1.
         25    2    1    2    0    0  0.00000000000E+00  0.00000000000E+00  0.59897292573E+03  0.61187703893E+03  0.12499978007E+03 0.  0.
    9000005    1    3    3    0    0  0.25858455151E+02  0.30785999530E+02  0.53367126890E+03  0.53518451091E+03  0.10000000000E+01 0.  0.
    9000005    1    3    3    0    0 -0.25858455151E+02 -0.30785999530E+02  0.65301656830E+02  0.76692528023E+02  0.10000000000E+01 0.  0.
<mgrwt>
<rscale>  0 0.12499978E+03</rscale>
<asrwt>0</asrwt>
<pdfrwt beam="1">  1        4 0.93142307E-01 0.12499978E+03</pdfrwt>
<pdfrwt beam="2">  1       -4 0.99262407E-03 0.12499978E+03</pdfrwt>
<totfact> 0.48126609E+03</totfact>
</mgrwt>
</event>
<event>
 5    1  0.3199195E-002  0.1250027E+03  0.7818608E-02  0.1235065E+00
          4   -1    0    0  501    0  0.00000000000E+00  0.00000000000E+00  0.17131926419E+03  0.17132397142E+03  0.12700000000E+01 0.  1.
         -4   -1    0    0    0  501 -0.00000000000E+00 -0.00000000000E+00 -0.22779275902E+02  0.22814651227E+02  0.12700000000E+01 0.  1.
         25    2    1    2    0    0  0.00000000000E+00  0.00000000000E+00  0.14853998829E+03  0.19413862265E+03  0.12500270670E+03 0.  0.
    9000005    1    3    3    0    0  0.11720333697E+02  0.13168299663E+02  0.16738523309E+03  0.16831395247E+03  0.10000000000E+01 0.  0.
    9000005    1    3    3    0    0 -0.11720333697E+02 -0.13168299663E+02 -0.18845244804E+02  0.25824670177E+02  0.10000000000E+01 0.  0.
<mgrwt>
<rscale>  0 0.12500271E+03</rscale>
<asrwt>0</asrwt>
<pdfrwt beam="1">  1        4 0.26359892E-01 0.12500271E+03</pdfrwt>
<pdfrwt beam="2">  1       -4 0.35075874E-02 0.12500271E+03</pdfrwt>
<totfact> 0.91126630E+03</totfact>
</mgrwt>
</event>
<event>
 5    1  0.3199195E-002  0.1249950E+03  0.7818608E-02  0.1235077E+00
          4   -1    0    0  501    0  0.00000000000E+00  0.00000000000E+00  0.34149348300E+02  0.34172955525E+02  0.12700000000E+01 0. -1.
         -4   -1    0    0    0  501 -0.00000000000E+00 -0.00000000000E+00 -0.11431145035E+03  0.11431850498E+03  0.12700000000E+01 0. -1.
         25    2    1    2    0    0  0.00000000000E+00  0.00000000000E+00 -0.80162102052E+02  0.14849146051E+03  0.12499500485E+03 0.  0.
    9000005    1    3    3    0    0 -0.38541674429E+02  0.28751972545E+02  0.73310946855E+01  0.48650606803E+02  0.10000000000E+01 0.  0.
    9000005    1    3    3    0    0  0.38541674429E+02 -0.28751972545E+02 -0.87493196738E+02  0.99840853704E+02  0.10000000000E+01 0.  0.
<mgrwt>
<rscale>  0 0.12499500E+03</rscale>
<asrwt>0</asrwt>
<pdfrwt beam="1">  1        4 0.52561046E-02 0.12499500E+03</pdfrwt>
<pdfrwt beam="2">  1       -4 0.17588735E-01 0.12499500E+03</pdfrwt>
<totfact> 0.99616457E+03</totfact>
</mgrwt>
</event>
<event>
 5    1  0.3199195E-002  0.1250039E+03  0.7818608E-02  0.1235063E+00
          4   -1    0    0  501    0  0.00000000000E+00  0.00000000000E+00  0.60903634715E+02  0.60916874686E+02  0.12700000000E+01 0. -1.
         -4   -1    0    0    0  501 -0.00000000000E+00 -0.00000000000E+00 -0.64115695727E+02  0.64128272537E+02  0.12700000000E+01 0. -1.
         25    2    1    2    0    0  0.00000000000E+00  0.00000000000E+00 -0.32120610123E+01  0.12504514722E+03  0.12500388597E+03 0.  0.
    9000005    1    3    3    0    0 -0.20570099400E+02 -0.25271513813E+02 -0.54950121952E+02  0.63892834515E+02  0.10000000000E+01 0.  0.
    9000005    1    3    3    0    0  0.20570099400E+02  0.25271513813E+02  0.51738060940E+02  0.61152312708E+02  0.10000000000E+01 0.  0.
<mgrwt>
<rscale>  0 0.12500389E+03</rscale>
<asrwt>0</asrwt>
<pdfrwt beam="1">  1        4 0.93717759E-02 0.12500389E+03</pdfrwt>
<pdfrwt beam="2">  1       -4 0.98659391E-02 0.12500389E+03</pdfrwt>
<totfact> 0.10450964E+04</totfact>
</mgrwt>
</event>
<event>
 5    1  0.3199195E-002  0.1249980E+03  0.7818608E-02  0.1235072E+00
          4   -1    0    0  501    0  0.00000000000E+00  0.00000000000E+00  0.43406720156E+02  0.43425295102E+02  0.12700000000E+01 0. -1.
         -4   -1    0    0    0  501 -0.00000000000E+00 -0.00000000000E+00 -0.89946613525E+02  0.89955578952E+02  0.12700000000E+01 0. -1.
         25    2    1    2    0    0  0.00000000000E+00  0.00000000000E+00 -0.46539893369E+02  0.13338087405E+03  0.12499798354E+03 0.  0.
    9000005    1    3    3    0    0  0.61330262467E+02 -0.11827025113E+02 -0.25362142275E+02  0.67420455932E+02  0.10000000000E+01 0.  0.
    9000005    1    3    3    0    0 -0.61330262467E+02  0.11827025113E+02 -0.21177751094E+02  0.65960418122E+02  0.10000000000E+01 0.  0.
<mgrwt>
<rscale>  0 0.12499798E+03</rscale>
<asrwt>0</asrwt>
<pdfrwt beam="1">  1        4 0.66800755E-02 0.12499798E+03</pdfrwt>
<pdfrwt beam="2">  1       -4 0.13840059E-01 0.12499798E+03</pdfrwt>
<totfact> 0.10272779E+04</totfact>
</mgrwt>
</event>
<event>
 5    1  0.3199195E-002  0.1249987E+03  0.7818608E-02  0.1235071E+00
         -4   -1    0    0    0  501 -0.00000000000E+00  0.00000000000E+00  0.65002546209E+02  0.65014951462E+02  0.12700000000E+01 0.  1.
          4   -1    0    0  501    0  0.00000000000E+00 -0.00000000000E+00 -0.60067693405E+02  0.60081117591E+02  0.12700000000E+01 0.  1.
         25    2    1    2    0    0  0.00000000000E+00  0.00000000000E+00  0.49348528038E+01  0.12509606905E+03  0.12499869488E+03 0.  0.
    9000005    1    3    3    0    0  0.35468551500E+02 -0.49170360638E+02  0.17626037979E+02  0.63146019079E+02  0.10000000000E+01 0.  0.
    9000005    1    3    3    0    0 -0.35468551500E+02  0.49170360638E+02 -0.12691185175E+02  0.61950049975E+02  0.10000000000E+01 0.  0.
<mgrwt>
<rscale>  0 0.12499869E+03</rscale>
<asrwt>0</asrwt>
<pdfrwt beam="2">  1        4 0.92431704E-02 0.12499869E+03</pdfrwt>
<pdfrwt beam="1">  1       -4 0.10002379E-01 0.12499869E+03</pdfrwt>
<totfact> 0.10451085E+04</totfact>
</mgrwt>
</event>
<event>
 5    1  0.3199195E-002  0.1250029E+03  0.7818608E-02  0.1235065E+00
         -4   -1    0    0    0  501 -0.00000000000E+00  0.00000000000E+00  0.12583475758E+02  0.12647401399E+02  0.12700000000E+01 0. -1.
          4   -1    0    0  501    0  0.00000000000E+00 -0.00000000000E+00 -0.30958963510E+03  0.30959223999E+03  0.12700000000E+01 0. -1.
         25    2    1    2    0    0  0.00000000000E+00  0.00000000000E+00 -0.29700615934E+03  0.32223964139E+03  0.12500291114E+03 0.  0.
    9000005    1    3    3    0    0 -0.10183923705E+02  0.29475119885E+02 -0.28811104644E+03  0.28979556600E+03  0.10000000000E+01 0.  0.
    9000005    1    3    3    0    0  0.10183923705E+02 -0.29475119885E+02 -0.88951129070E+01  0.32444075389E+02  0.10000000000E+01 0.  0.
<mgrwt>
<rscale>  0 0.12500291E+03</rscale>
<asrwt>0</asrwt>
<pdfrwt beam="2">  1        4 0.47634287E-01 0.12500291E+03</pdfrwt>
<pdfrwt beam="1">  1       -4 0.19410373E-02 0.12500291E+03</pdfrwt>
<totfact> 0.72885839E+03</totfact>
</mgrwt>
</event>
<event>
 5    1  0.3199195E-002  0.1250005E+03  0.7818608E-02  0.1235068E+00
          4   -1    0    0  501    0  0.00000000000E+00  0.00000000000E+00  0.48017429457E+02  0.48034221464E+02  0.12700000000E+01 0.  1.
         -4   -1    0    0    0  501 -0.00000000000E+00 -0.00000000000E+00 -0.81315391841E+02  0.81325308793E+02  0.12700000000E+01 0.  1.
         25    2    1    2    0    0  0.00000000000E+00  0.00000000000E+00 -0.33297962384E+02  0.12935953026E+03  0.12500053508E+03 0.  0.
    9000005    1    3    3    0    0  0.56709847671E+02 -0.13845473701E+02  0.64353761040E+01  0.58737705356E+02  0.10000000000E+01 0.  0.
    9000005    1    3    3    0    0 -0.56709847671E+02  0.13845473701E+02 -0.39733338488E+02  0.70621824901E+02  0.10000000000E+01 0.  0.
<mgrwt>
<rscale>  0 0.12500054E+03</rscale>
<asrwt>0</asrwt>
<pdfrwt beam="1">  1        4 0.73893514E-02 0.12500054E+03</pdfrwt>
<pdfrwt beam="2">  1       -4 0.12512115E-01 0.12500054E+03</pdfrwt>
<totfact> 0.10358102E+04</totfact>
</mgrwt>
</event>
<event>
 5    1  0.3199195E-002  0.1250016E+03  0.7818608E-02  0.1235067E+00
         -4   -1    0    0    0  501 -0.00000000000E+00  0.00000000000E+00  0.40343733243E+03  0.40343933137E+03  0.12700000000E+01 0.  1.
          4   -1    0    0  501    0  0.00000000000E+00 -0.00000000000E+00 -0.96389907692E+01  0.97222961819E+01  0.12700000000E+01 0.  1.
         25    2    1    2    0    0  0.00000000000E+00  0.00000000000E+00  0.39379834166E+03  0.41316162755E+03  0.12500158634E+03 0.  0.
    9000005    1    3    3    0    0 -0.26541558833E+02 -0.24151640241E+02  0.27794531837E+02  0.45401454510E+02  0.10000000000E+01 0.  0.
    9000005    1    3    3    0    0  0.26541558833E+02  0.24151640241E+02  0.36600380982E+03  0.36776017304E+03  0.10000000000E+01 0.  0.
<mgrwt>
<rscale>  0 0.12500159E+03</rscale>
<asrwt>0</asrwt>
<pdfrwt beam="2">  1        4 0.14894837E-02 0.12500159E+03</pdfrwt>
<pdfrwt beam="1">  1       -4 0.62073837E-01 0.12500159E+03</pdfrwt>
<totfact> 0.63290310E+03</totfact>
</mgrwt>
</event>
<event>
 5    1  0.3199195E-002  0.1249992E+03  0.7818608E-02  0.1235071E+00
          4   -1    0    0  501    0  0.00000000000E+00  0.00000000000E+00  0.29627120227E+02  0.29654327727E+02  0.12700000000E+01 0. -1.
         -4   -1    0    0    0  501 -0.00000000000E+00 -0.00000000000E+00 -0.13175459788E+03  0.13176071859E+03  0.12700000000E+01 0. -1.
         25    2    1    2    0    0  0.00000000000E+00  0.00000000000E+00 -0.10212747766E+03  0.16141504632E+03  0.12499918194E+03 0.  0.
    9000005    1    3    3    0    0 -0.61363333854E+02 -0.11366361507E+02 -0.55257269420E+02  0.83360774584E+02  0.10000000000E+01 0.  0.
    9000005    1    3    3    0    0  0.61363333854E+02  0.11366361507E+02 -0.46870208236E+02  0.78054271732E+02  0.10000000000E+01 0.  0.
<mgrwt>
<rscale>  0 0.12499918E+03</rscale>
<asrwt>0</asrwt>
<pdfrwt beam="1">  1        4 0.45605823E-02 0.12499918E+03</pdfrwt>
<pdfrwt beam="2">  1       -4 0.20272502E-01 0.12499918E+03</pdfrwt>
<totfact> 0.97072452E+03</totfact>
</mgrwt>
</event>
<event>
 5    1  0.3199195E-002  0.1249965E+03  0.7818608E-02  0.1235075E+00
          4   -1    0    0  501    0  0.00000000000E+00  0.00000000000E+00  0.10395527016E+03  0.10396302753E+03  0.12700000000E+01 0.  1.
         -4   -1    0    0    0  501 -0.00000000000E+00 -0.00000000000E+00 -0.37554229900E+02  0.37575698043E+02  0.12700000000E+01 0.  1.
         25    2    1    2    0    0  0.00000000000E+00  0.00000000000E+00  0.66401040258E+02  0.14153872557E+03  0.12499645071E+03 0.  0.
    9000005    1    3    3    0    0 -0.41671461283E+02  0.31964582607E+02 -0.51453160386E+01  0.52779915724E+02  0.10000000000E+01 0.  0.
    9000005    1    3    3    0    0  0.41671461283E+02 -0.31964582607E+02  0.71546356296E+02  0.88758809850E+02  0.10000000000E+01 0.  0.
<mgrwt>
<rscale>  0 0.12499645E+03</rscale>
<asrwt>0</asrwt>
<pdfrwt beam="1">  1        4 0.15995366E-01 0.12499645E+03</pdfrwt>
<pdfrwt beam="2">  1       -4 0.57798220E-02 0.12499645E+03</pdfrwt>
<totfact> 0.10102602E+04</totfact>
</mgrwt>
</event>
<event>
 5    1  0.3199195E-002  0.1250000E+03  0.7818608E-02  0.1235069E+00
         -4   -1    0    0    0  501 -0.00000000000E+00  0.00000000000E+00  0.44239955654E+03  0.44240137944E+03  0.12700000000E+01 0. -1.
          4   -1    0    0  501    0  0.00000000000E+00 -0.00000000000E+00 -0.87821669617E+01  0.88735199635E+01  0.12700000000E+01 0. -1.
         25    2    1    2    0    0  0.00000000000E+00  0.00000000000E+00  0.43361738958E+03  0.45127489940E+03  0.12499997713E+03 0.  0.
    9000005    1    3    3    0    0 -0.57772256420E+02  0.17937205623E+02  0.16019970040E+03  0.17124345525E+03  0.10000000000E+01 0.  0.
    9000005    1    3    3    0    0  0.57772256420E+02 -0.17937205623E+02  0.27341768918E+03  0.28003144415E+03  0.10000000000E+01 0.  0.
<mgrwt>
<rscale>  0 0.12499998E+03</rscale>
<asrwt>0</asrwt>
<pdfrwt beam="2">  1        4 0.13582703E-02 0.12499998E+03</pdfrwt>
<pdfrwt beam="1">  1       -4 0.68068623E-01 0.12499998E+03</pdfrwt>
<totfact> 0.59853545E+03</totfact>
</mgrwt>
</event>
<event>
 5    1  0.3199195E-002  0.1250011E+03  0.7818608E-02  0.1235068E+00
         -4   -1    0    0    0  501 -0.00000000000E+00  0.00000000000E+00  0.30709876727E+03  0.30710139328E+03  0.12700000000E+01 0.  1.
          4   -1    0    0  501    0  0.00000000000E+00 -0.00000000000E+00 -0.12685687104E+02  0.12749100254E+02  0.12700000000E+01 0.  1.
         25    2    1    2    0    0  0.00000000000E+00  0.00000000000E+00  0.29441308016E+03  0.31985049354E+03  0.12500110578E+03 0.  0.
    9000005    1    3    3    0    0 -0.60396523408E+01 -0.99576095467E+01 -0.98969589911E+01  0.15316043404E+02  0.10000000000E+01 0.  0.
    9000005    1    3    3    0    0  0.60396523408E+01  0.99576095467E+01  0.30431003915E+03  0.30453445013E+03  0.10000000000E+01 0.  0.
<mgrwt>
<rscale>  0 0.12500111E+03</rscale>
<asrwt>0</asrwt>
<pdfrwt beam="2">  1        4 0.19567241E-02 0.12500111E+03</pdfrwt>
<pdfrwt beam="1">  1       -4 0.47251045E-01 0.12500111E+03</pdfrwt>
<totfact> 0.73172114E+03</totfact>
</mgrwt>
</event>
<event>
 5    1  0.3199195E-002  0.1250007E+03  0.7818608E-02  0.1235068E+00
          4   -1    0    0  501    0  0.00000000000E+00  0.00000000000E+00  0.59596807570E+01  0.60934961004E+01  0.12700000000E+01 0. -1.
         -4   -1    0    0    0  501 -0.00000000000E+00 -0.00000000000E+00 -0.64804232821E+03  0.64804357265E+03  0.12700000000E+01 0. -1.
         25    2    1    2    0    0  0.00000000000E+00  0.00000000000E+00 -0.64208264745E+03  0.65413706875E+03  0.12500071421E+03 0.  0.
    9000005    1    3    3    0    0  0.27580168238E+02 -0.52777255100E+02 -0.22186258812E+03  0.22971746199E+03  0.10000000000E+01 0.  0.
    9000005    1    3    3    0    0 -0.27580168238E+02  0.52777255100E+02 -0.42022005933E+03  0.42441960676E+03  0.10000000000E+01 0.  0.
<mgrwt>
<rscale>  0 0.12500071E+03</rscale>
<asrwt>0</asrwt>
<pdfrwt beam="1">  1        4 0.92726369E-03 0.12500071E+03</pdfrwt>
<pdfrwt beam="2">  1       -4 0.99709154E-01 0.12500071E+03</pdfrwt>
<totfact> 0.45618499E+03</totfact>
</mgrwt>
</event>
<event>
 5    1  0.3199195E-002  0.1249996E+03  0.7818608E-02  0.1235070E+00
         -4   -1    0    0    0  501 -0.00000000000E+00  0.00000000000E+00  0.88191096598E+02  0.88200240471E+02  0.12700000000E+01 0.  1.
          4   -1    0    0  501    0  0.00000000000E+00 -0.00000000000E+00 -0.44272194901E+02  0.44290406878E+02  0.12700000000E+01 0.  1.
         25    2    1    2    0    0  0.00000000000E+00  0.00000000000E+00  0.43918901697E+02  0.13249064735E+03  0.12499960683E+03 0.  0.
    9000005    1    3    3    0    0 -0.20590558436E+02  0.52824599658E+02 -0.58990517553E+01  0.57010597588E+02  0.10000000000E+01 0.  0.
    9000005    1    3    3    0    0  0.20590558436E+02 -0.52824599658E+02  0.49817953452E+02  0.75480049761E+02  0.10000000000E+01 0.  0.
<mgrwt>
<rscale>  0 0.12499961E+03</rscale>
<asrwt>0</asrwt>
<pdfrwt beam="2">  1        4 0.68132113E-02 0.12499961E+03</pdfrwt>
<pdfrwt beam="1">  1       -4 0.13569965E-01 0.12499961E+03</pdfrwt>
<totfact> 0.10291328E+04</totfact>
</mgrwt>
</event>
<event>
 5    1  0.3199195E-002  0.1249946E+03  0.7818608E-02  0.1235078E+00
         -4   -1    0    0    0  501 -0.00000000000E+00  0.00000000000E+00  0.50258881020E+02  0.50274924380E+02  0.12700000000E+01 0.  1.
          4   -1    0    0  501    0  0.00000000000E+00 -0.00000000000E+00 -0.77682235257E+02  0.77692615959E+02  0.12700000000E+01 0.  1.
         25    2    1    2    0    0  0.00000000000E+00  0.00000000000E+00 -0.27423354237E+02  0.12796754034E+03  0.12499460397E+03 0.  0.
    9000005    1    3    3    0    0 -0.50830901620E+02  0.17314515801E+01  0.23457965336E+02  0.56018341833E+02  0.10000000000E+01 0.  0.
    9000005    1    3    3    0    0  0.50830901620E+02 -0.17314515801E+01 -0.50881319573E+02  0.71949198505E+02  0.10000000000E+01 0.  0.
<mgrwt>
<rscale>  0 0.12499460E+03</rscale>
<asrwt>0</asrwt>
<pdfrwt beam="2">  1        4 0.11953146E-01 0.12499460E+03</pdfrwt>
<pdfrwt beam="1">  1       -4 0.77341681E-02 0.12499460E+03</pdfrwt>
<totfact> 0.10389454E+04</totfact>
</mgrwt>
</event>
<event>
 5    1  0.3199195E-002  0.1249917E+03  0.7818608E-02  0.1235082E+00
         -4   -1    0    0    0  501 -0.00000000000E+00  0.00000000000E+00  0.27189492951E+02  0.27219137145E+02  0.12700000000E+01 0. -1.
          4   -1    0    0  501    0  0.00000000000E+00 -0.00000000000E+00 -0.14353778358E+03  0.14354340185E+03  0.12700000000E+01 0. -1.
         25    2    1    2    0    0  0.00000000000E+00  0.00000000000E+00 -0.11634829063E+03  0.17076253900E+03  0.12499167969E+03 0.  0.
    9000005    1    3    3    0    0  0.36461798969E+02 -0.16636917865E+02  0.73244340691E+01  0.40754105984E+02  0.10000000000E+01 0.  0.
    9000005    1    3    3    0    0 -0.36461798969E+02  0.16636917865E+02 -0.12367272470E+03  0.13000843301E+03  0.10000000000E+01 0.  0.
<mgrwt>
<rscale>  0 0.12499168E+03</rscale>
<asrwt>0</asrwt>
<pdfrwt beam="2">  1        4 0.22085448E-01 0.12499168E+03</pdfrwt>
<pdfrwt beam="1">  1       -4 0.41857115E-02 0.12499168E+03</pdfrwt>
<totfact> 0.95324500E+03</totfact>
</mgrwt>
</event>
<event>
 5    1  0.3199195E-002  0.1250013E+03  0.7818608E-02  0.1235067E+00
         -4   -1    0    0    0  501 -0.00000000000E+00  0.00000000000E+00  0.14109283659E+03  0.14109855221E+03  0.12700000000E+01 0.  1.
          4   -1    0    0  501    0  0.00000000000E+00 -0.00000000000E+00 -0.27665386860E+02  0.27694521663E+02  0.12700000000E+01 0.  1.
         25    2    1    2    0    0  0.00000000000E+00  0.00000000000E+00  0.11342744973E+03  0.16879307387E+03  0.12500126174E+03 0.  0.
    9000005    1    3    3    0    0 -0.39472047012E+02 -0.17654015246E+02  0.11763778036E+03  0.12533696229E+03  0.10000000000E+01 0.  0.
    9000005    1    3    3    0    0  0.39472047012E+02  0.17654015246E+02 -0.42103306306E+01  0.43456111580E+02  0.10000000000E+01 0.  0.
<mgrwt>
<rscale>  0 0.12500126E+03</rscale>
<asrwt>0</asrwt>
<pdfrwt beam="2">  1        4 0.42588942E-02 0.12500126E+03</pdfrwt>
<pdfrwt beam="1">  1       -4 0.21709271E-01 0.12500126E+03</pdfrwt>
<totfact> 0.95671117E+03</totfact>
</mgrwt>
</event>
<event>
 5    1  0.3199195E-002  0.1249987E+03  0.7818608E-02  0.1235071E+00
         -4   -1    0    0    0  501 -0.00000000000E+00  0.00000000000E+00  0.66573618382E+01  0.67774159268E+01  0.12700000000E+01 0. -1.
          4   -1    0    0  501    0  0.00000000000E+00 -0.00000000000E+00 -0.58138005772E+03  0.58138144485E+03  0.12700000000E+01 0. -1.
         25    2    1    2    0    0  0.00000000000E+00  0.00000000000E+00 -0.57472269589E+03  0.58815886078E+03  0.12499867338E+03 0.  0.
    9000005    1    3    3    0    0  0.33399365235E+02  0.50995344020E+02 -0.22265260017E+03  0.23084891828E+03  0.10000000000E+01 0.  0.
    9000005    1    3    3    0    0 -0.33399365235E+02 -0.50995344020E+02 -0.35207009571E+03  0.35730994250E+03  0.10000000000E+01 0.  0.
<mgrwt>
<rscale>  0 0.12499867E+03</rscale>
<asrwt>0</asrwt>
<pdfrwt beam="2">  1        4 0.89452387E-01 0.12499867E+03</pdfrwt>
<pdfrwt beam="1">  1       -4 0.10335516E-02 0.12499867E+03</pdfrwt>
<totfact> 0.49625151E+03</totfact>
</mgrwt>
</event>
<event>
 5    1  0.3199195E-002  0.1250002E+03  0.7818608E-02  0.1235069E+00
         -4   -1    0    0    0  501 -0.00000000000E+00  0.00000000000E+00  0.24555069829E+02  0.24587890399E+02  0.12700000000E+01 0. -1.
          4   -1    0    0  501    0  0.00000000000E+00 -0.00000000000E+00 -0.15893999380E+03  0.15894506765E+03  0.12700000000E+01 0. -1.
         25    2    1    2    0    0  0.00000000000E+00  0.00000000000E+00 -0.13438492397E+03  0.18353295805E+03  0.12500015559E+03 0.  0.
    9000005    1    3    3    0    0  0.48253294620E+02  0.30368179834E+02 -0.10475968308E+03  0.11927362654E+03  0.10000000000E+01 0.  0.
    9000005    1    3    3    0    0 -0.48253294620E+02 -0.30368179834E+02 -0.29625240889E+02  0.64259331507E+02  0.10000000000E+01 0.  0.
<mgrwt>
<rscale>  0 0.12500016E+03</rscale>
<asrwt>0</asrwt>
<pdfrwt beam="2">  1        4 0.24455221E-01 0.12500016E+03</pdfrwt>
<pdfrwt beam="1">  1       -4 0.37806181E-02 0.12500016E+03</pdfrwt>
<totfact> 0.92984573E+03</totfact>
</mgrwt>
</event>
<event>
 5    1  0.3199195E-002  0.1249975E+03  0.7818608E-02  0.1235073E+00
         -4   -1    0    0    0  501 -0.00000000000E+00  0.00000000000E+00  0.18399881536E+03  0.18400319822E+03  0.12700000000E+01 0. -1.
          4   -1    0    0  501    0  0.00000000000E+00 -0.00000000000E+00 -0.21205256798E+02  0.21243253420E+02  0.12700000000E+01 0. -1.
         25    2    1    2    0    0  0.00000000000E+00  0.00000000000E+00  0.16279355856E+03  0.20524645164E+03  0.12499745277E+03 0.  0.
    9000005    1    3    3    0    0 -0.30333285895E+02 -0.11101263943E+02  0.16923629314E+03  0.17229413574E+03  0.10000000000E+01 0.  0.
    9000005    1    3    3    0    0  0.30333285895E+02  0.11101263943E+02 -0.64427345753E+01  0.32952315899E+02  0.10000000000E+01 0.  0.
<mgrwt>
<rscale>  0 0.12499745E+03</rscale>
<asrwt>0</asrwt>
<pdfrwt beam="2">  1        4 0.32656073E-02 0.12499745E+03</pdfrwt>
<pdfrwt beam="1">  1       -4 0.28310769E-01 0.12499745E+03</pdfrwt>
<totfact> 0.89263216E+03</totfact>
</mgrwt>
</event>
<event>
 5    1  0.3199195E-002  0.1250019E+03  0.7818608E-02  0.1235066E+00
         -4   -1    0    0    0  501 -0.00000000000E+00  0.00000000000E+00  0.67469754260E+02  0.67481705964E+02  0.12700000000E+01 0. -1.
          4   -1    0    0  501    0  0.00000000000E+00 -0.00000000000E+00 -0.57874027519E+02  0.57887960418E+02  0.12700000000E+01 0. -1.
         25    2    1    2    0    0  0.00000000000E+00  0.00000000000E+00  0.95957267402E+01  0.12536966638E+03  0.12500190109E+03 0.  0.
    9000005    1    3    3    0    0  0.33697009090E+02 -0.48413351588E+02 -0.15903302945E+02  0.61100377071E+02  0.10000000000E+01 0.  0.
    9000005    1    3    3    0    0 -0.33697009090E+02  0.48413351588E+02  0.25499029685E+02  0.64269289311E+02  0.10000000000E+01 0.  0.
<mgrwt>
<rscale>  0 0.12500190E+03</rscale>
<asrwt>0</asrwt>
<pdfrwt beam="2">  1        4 0.89056877E-02 0.12500190E+03</pdfrwt>
<pdfrwt beam="1">  1       -4 0.10381953E-01 0.12500190E+03</pdfrwt>
<totfact> 0.10444390E+04</totfact>
</mgrwt>
</event>
<event>
 5    1  0.3199195E-002  0.1249992E+03  0.7818608E-02  0.1235070E+00
         -4   -1    0    0    0  501 -0.00000000000E+00  0.00000000000E+00  0.38516566606E+02  0.38537498661E+02  0.12700000000E+01 0. -1.
          4   -1    0    0  501    0  0.00000000000E+00 -0.00000000000E+00 -0.10136370334E+03  0.10137165903E+03  0.12700000000E+01 0. -1.
         25    2    1    2    0    0  0.00000000000E+00  0.00000000000E+00 -0.62847136738E+02  0.13990915770E+03  0.12499923924E+03 0.  0.
    9000005    1    3    3    0    0 -0.38562875539E+02  0.34960111838E+02  0.72830990409E+01  0.52567559589E+02  0.10000000000E+01 0.  0.
    9000005    1    3    3    0    0  0.38562875539E+02 -0.34960111838E+02 -0.70130235779E+02  0.87341598107E+02  0.10000000000E+01 0.  0.
<mgrwt>
<rscale>  0 0.12499924E+03</rscale>
<asrwt>0</asrwt>
<pdfrwt beam="2">  1        4 0.15596638E-01 0.12499924E+03</pdfrwt>
<pdfrwt beam="1">  1       -4 0.59278478E-02 0.12499924E+03</pdfrwt>
<totfact> 0.10135643E+04</totfact>
</mgrwt>
</event>
<event>
 5    1  0.3199195E-002  0.1249999E+03  0.7818608E-02  0.1235069E+00
         -4   -1    0    0    0  501 -0.00000000000E+00  0.00000000000E+00  0.25301304193E+02  0.25333157993E+02  0.12700000000E+01 0.  1.
          4   -1    0    0  501    0  0.00000000000E+00 -0.00000000000E+00 -0.15425735026E+03  0.15426257812E+03  0.12700000000E+01 0.  1.
         25    2    1    2    0    0  0.00000000000E+00  0.00000000000E+00 -0.12895604606E+03  0.17959573611E+03  0.12499986645E+03 0.  0.
    9000005    1    3    3    0    0  0.45785989207E+02  0.11952561564E+02 -0.58335992254E+01  0.47689112128E+02  0.10000000000E+01 0.  0.
    9000005    1    3    3    0    0 -0.45785989207E+02 -0.11952561564E+02 -0.12312244684E+03  0.13190662399E+03  0.10000000000E+01 0.  0.
<mgrwt>
<rscale>  0 0.12499987E+03</rscale>
<asrwt>0</asrwt>
<pdfrwt beam="2">  1        4 0.23734752E-01 0.12499987E+03</pdfrwt>
<pdfrwt beam="1">  1       -4 0.38953609E-02 0.12499987E+03</pdfrwt>
<totfact> 0.93690104E+03</totfact>
</mgrwt>
</event>
<event>
 5    1  0.3199195E-002  0.1249997E+03  0.7818608E-02  0.1235070E+00
         -4   -1    0    0    0  501 -0.00000000000E+00  0.00000000000E+00  0.81116178717E+01  0.82104350979E+01  0.12700000000E+01 0. -1.
          4   -1    0    0  501    0  0.00000000000E+00 -0.00000000000E+00 -0.47854504520E+03  0.47854673041E+03  0.12700000000E+01 0. -1.
         25    2    1    2    0    0  0.00000000000E+00  0.00000000000E+00 -0.47043342733E+03  0.48675716551E+03  0.12499971450E+03 0.  0.
    9000005    1    3    3    0    0 -0.24083219418E+01 -0.62443519855E+02 -0.23712030968E+03  0.24521834036E+03  0.10000000000E+01 0.  0.
    9000005    1    3    3    0    0  0.24083219418E+01  0.62443519855E+02 -0.23331311765E+03  0.24153882515E+03  0.10000000000E+01 0.  0.
<mgrwt>
<rscale>  0 0.12499971E+03</rscale>
<asrwt>0</asrwt>
<pdfrwt beam="2">  1        4 0.73630024E-01 0.12499971E+03</pdfrwt>
<pdfrwt beam="1">  1       -4 0.12556725E-02 0.12499971E+03</pdfrwt>
<totfact> 0.56907055E+03</totfact>
</mgrwt>
</event>
<event>
 5    1  0.3199195E-002  0.1250027E+03  0.7818608E-02  0.1235065E+00
          4   -1    0    0  501    0  0.00000000000E+00  0.00000000000E+00  0.75901491128E+02  0.75912115340E+02  0.12700000000E+01 0.  1.
         -4   -1    0    0    0  501 -0.00000000000E+00 -0.00000000000E+00 -0.51444865894E+02  0.51460539512E+02  0.12700000000E+01 0.  1.
         25    2    1    2    0    0  0.00000000000E+00  0.00000000000E+00  0.24456625233E+02  0.12737265485E+03  0.12500266672E+03 0.  0.
    9000005    1    3    3    0    0  0.54722469026E+02  0.22136441445E+02  0.33131789706E+02  0.67699971531E+02  0.10000000000E+01 0.  0.
    9000005    1    3    3    0    0 -0.54722469026E+02 -0.22136441445E+02 -0.86751644723E+01  0.59672683322E+02  0.10000000000E+01 0.  0.
<mgrwt>
<rscale>  0 0.12500267E+03</rscale>
<asrwt>0</asrwt>
<pdfrwt beam="1">  1        4 0.11679175E-01 0.12500267E+03</pdfrwt>
<pdfrwt beam="2">  1       -4 0.79166177E-02 0.12500267E+03</pdfrwt>
<totfact> 0.10400433E+04</totfact>
</mgrwt>
</event>
<event>
 5    1  0.3199195E-002  0.1250093E+03  0.7818608E-02  0.1235055E+00
          4   -1    0    0  501    0  0.00000000000E+00  0.00000000000E+00  0.31529681852E+02  0.31555248972E+02  0.12700000000E+01 0. -1.
         -4   -1    0    0    0  501 -0.00000000000E+00 -0.00000000000E+00 -0.12383062175E+03  0.12383713410E+03  0.12700000000E+01 0. -1.
         25    2    1    2    0    0  0.00000000000E+00  0.00000000000E+00 -0.92300939900E+02  0.15539238308E+03  0.12500931650E+03 0.  0.
    9000005    1    3    3    0    0  0.47024202466E+02 -0.40753382783E+02 -0.38932396079E+02  0.73408754861E+02  0.10000000000E+01 0.  0.
    9000005    1    3    3    0    0 -0.47024202466E+02  0.40753382783E+02 -0.53368543821E+02  0.81983628215E+02  0.10000000000E+01 0.  0.
<mgrwt>
<rscale>  0 0.12500932E+03</rscale>
<asrwt>0</asrwt>
<pdfrwt beam="1">  1        4 0.48531880E-02 0.12500932E+03</pdfrwt>
<pdfrwt beam="2">  1       -4 0.19053332E-01 0.12500932E+03</pdfrwt>
<totfact> 0.98217945E+03</totfact>
</mgrwt>
</event>
<event>
 5    1  0.3199195E-002  0.1249850E+03  0.7818608E-02  0.1235093E+00
         -4   -1    0    0    0  501 -0.00000000000E+00  0.00000000000E+00  0.70992268460E+02  0.71003627239E+02  0.12700000000E+01 0.  1.
          4   -1    0    0  501    0  0.00000000000E+00 -0.00000000000E+00 -0.54987275419E+02  0.55001939584E+02  0.12700000000E+01 0.  1.
         25    2    1    2    0    0  0.00000000000E+00  0.00000000000E+00  0.16004993041E+02  0.12600556682E+03  0.12498497137E+03 0.  0.
    9000005    1    3    3    0    0  0.18977932329E+01 -0.59032256981E+02 -0.12557703181E+02  0.60391265036E+02  0.10000000000E+01 0.  0.
    9000005    1    3    3    0    0 -0.18977932329E+01  0.59032256981E+02  0.28562696222E+02  0.65614301786E+02  0.10000000000E+01 0.  0.
<mgrwt>
<rscale>  0 0.12498497E+03</rscale>
<asrwt>0</asrwt>
<pdfrwt beam="2">  1        4 0.84615826E-02 0.12498497E+03</pdfrwt>
<pdfrwt beam="1">  1       -4 0.10923889E-01 0.12498497E+03</pdfrwt>
<totfact> 0.10434373E+04</totfact>
</mgrwt>
</event>
<event>
 5    1  0.3199195E-002  0.1249966E+03  0.7818608E-02  0.1235075E+00
         -4   -1    0    0    0  501 -0.00000000000E+00  0.00000000000E+00  0.19369892739E+02  0.19411482291E+02  0.12700000000E+01 0.  1.
          4   -1    0    0  501    0  0.00000000000E+00 -0.00000000000E+00 -0.20139510597E+03  0.20139911025E+03  0.12700000000E+01 0.  1.
         25    2    1    2    0    0  0.00000000000E+00  0.00000000000E+00 -0.18202521323E+03  0.22081059254E+03  0.12499655806E+03 0.  0.
    9000005    1    3    3    0    0  0.29511717740E+02  0.45594186589E+02 -0.36413762135E+02  0.65396738508E+02  0.10000000000E+01 0.  0.
    9000005    1    3    3    0    0 -0.29511717740E+02 -0.45594186589E+02 -0.14561145110E+03  0.15541385404E+03  0.10000000000E+01 0.  0.
<mgrwt>
<rscale>  0 0.12499656E+03</rscale>
<asrwt>0</asrwt>
<pdfrwt beam="2">  1        4 0.30987368E-01 0.12499656E+03</pdfrwt>
<pdfrwt beam="1">  1       -4 0.29834909E-02 0.12499656E+03</pdfrwt>
<totfact> 0.86746915E+03</totfact>
</mgrwt>
</event>
<event>
 5    1  0.3199195E-002  0.1249968E+03  0.7818608E-02  0.1235074E+00
         -4   -1    0    0    0  501 -0.00000000000E+00  0.00000000000E+00  0.13743550319E+02  0.13802104019E+02  0.12700000000E+01 0.  1.
          4   -1    0    0  501    0  0.00000000000E+00 -0.00000000000E+00 -0.28354565315E+03  0.28354849729E+03  0.12700000000E+01 0.  1.
         25    2    1    2    0    0  0.00000000000E+00  0.00000000000E+00 -0.26980210283E+03  0.29735060131E+03  0.12499682161E+03 0.  0.
    9000005    1    3    3    0    0  0.44710948740E+02 -0.42022090489E+02 -0.10674124145E+03  0.12312439910E+03  0.10000000000E+01 0.  0.
    9000005    1    3    3    0    0 -0.44710948740E+02  0.42022090489E+02 -0.16306086138E+03  0.17422620222E+03  0.10000000000E+01 0.  0.
<mgrwt>
<rscale>  0 0.12499682E+03</rscale>
<asrwt>0</asrwt>
<pdfrwt beam="2">  1        4 0.43627127E-01 0.12499682E+03</pdfrwt>
<pdfrwt beam="1">  1       -4 0.21191155E-02 0.12499682E+03</pdfrwt>
<totfact> 0.75937741E+03</totfact>
</mgrwt>
</event>
<event>
 5    1  0.3199195E-002  0.1250030E+03  0.7818608E-02  0.1235065E+00
          4   -1    0    0  501    0  0.00000000000E+00  0.00000000000E+00  0.44456364492E+03  0.44456545894E+03  0.12700000000E+01 0. -1.
         -4   -1    0    0    0  501 -0.00000000000E+00 -0.00000000000E+00 -0.87393982914E+01  0.88311937186E+01  0.12700000000E+01 0. -1.
         25    2    1    2    0    0  0.00000000000E+00  0.00000000000E+00  0.43582424663E+03  0.45339665266E+03  0.12500300274E+03 0.  0.
    9000005    1    3    3    0    0 -0.43332814733E+02 -0.29505480156E+02  0.34129338834E+03  0.34529767320E+03  0.10000000000E+01 0.  0.
    9000005    1    3    3    0    0  0.43332814733E+02  0.29505480156E+02  0.94530858286E+02  0.10809897946E+03  0.10000000000E+01 0.  0.
<mgrwt>
<rscale>  0 0.12500300E+03</rscale>
<asrwt>0</asrwt>
<pdfrwt beam="1">  1        4 0.68401633E-01 0.12500300E+03</pdfrwt>
<pdfrwt beam="2">  1       -4 0.13517230E-02 0.12500300E+03</pdfrwt>
<totfact> 0.59666707E+03</totfact>
</mgrwt>
</event>
<event>
 5    1  0.3199195E-002  0.1250012E+03  0.7818608E-02  0.1235067E+00
         -4   -1    0    0    0  501 -0.00000000000E+00  0.00000000000E+00  0.15579792609E+03  0.15580310226E+03  0.12700000000E+01 0. -1.
          4   -1    0    0  501    0  0.00000000000E+00 -0.00000000000E+00 -0.25051346962E+02  0.25083518187E+02  0.12700000000E+01 0. -1.
         25    2    1    2    0    0  0.00000000000E+00  0.00000000000E+00  0.13074657913E+03  0.18088662045E+03  0.12500120601E+03 0.  0.
    9000005    1    3    3    0    0  0.53529328171E+02  0.23501611922E+02  0.97327554223E+02  0.11354015831E+03  0.10000000000E+01 0.  0.
    9000005    1    3    3    0    0 -0.53529328171E+02 -0.23501611922E+02  0.33419024907E+02  0.67346462142E+02  0.10000000000E+01 0.  0.
<mgrwt>
<rscale>  0 0.12500121E+03</rscale>
<asrwt>0</asrwt>
<pdfrwt beam="2">  1        4 0.38569263E-02 0.12500121E+03</pdfrwt>
<pdfrwt beam="1">  1       -4 0.23971784E-01 0.12500121E+03</pdfrwt>
<totfact> 0.93455125E+03</totfact>
</mgrwt>
</event>
<event>
 5    1  0.3199195E-002  0.1250027E+03  0.7818608E-02  0.1235065E+00
         -4   -1    0    0    0  501 -0.00000000000E+00  0.00000000000E+00  0.21121913494E+02  0.21160059774E+02  0.12700000000E+01 0.  1.
          4   -1    0    0  501    0  0.00000000000E+00 -0.00000000000E+00 -0.18473905115E+03  0.18474341645E+03  0.12700000000E+01 0.  1.
         25    2    1    2    0    0  0.00000000000E+00  0.00000000000E+00 -0.16361713766E+03  0.20590347622E+03  0.12500269511E+03 0.  0.
    9000005    1    3    3    0    0  0.17100741748E+02 -0.27988703786E+02  0.58123933496E+01  0.33325468105E+02  0.10000000000E+01 0.  0.
    9000005    1    3    3    0    0 -0.17100741748E+02  0.27988703786E+02 -0.16942953101E+03  0.17257800812E+03  0.10000000000E+01 0.  0.
<mgrwt>
<rscale>  0 0.12500270E+03</rscale>
<asrwt>0</asrwt>
<pdfrwt beam="2">  1        4 0.28424662E-01 0.12500270E+03</pdfrwt>
<pdfrwt beam="1">  1       -4 0.32527954E-02 0.12500270E+03</pdfrwt>
<totfact> 0.89143925E+03</totfact>
</mgrwt>
</event>
<event>
 5    1  0.3199195E-002  0.1250271E+03  0.7818608E-02  0.1235027E+00
         -4   -1    0    0    0  501 -0.00000000000E+00  0.00000000000E+00  0.72837658055E+03  0.72837768774E+03  0.12700000000E+01 0.  1.
          4   -1    0    0  501    0  0.00000000000E+00 -0.00000000000E+00 -0.52890017275E+01  0.54393418052E+01  0.12700000000E+01 0.  1.
         25    2    1    2    0    0  0.00000000000E+00  0.00000000000E+00  0.72308757882E+03  0.73381702955E+03  0.12502714185E+03 0.  0.
    9000005    1    3    3    0    0 -0.11809819105E+01 -0.25569238503E+02  0.69623408293E+03  0.69670515924E+03  0.10000000000E+01 0.  0.
    9000005    1    3    3    0    0  0.11809819105E+01  0.25569238503E+02  0.26853495895E+02  0.37111870307E+02  0.10000000000E+01 0.  0.
<mgrwt>
<rscale>  0 0.12502714E+03</rscale>
<asrwt>0</asrwt>
<pdfrwt beam="2">  1        4 0.82534230E-03 0.12502714E+03</pdfrwt>
<pdfrwt beam="1">  1       -4 0.11206959E+00 0.12502714E+03</pdfrwt>
<totfact> 0.41335845E+03</totfact>
</mgrwt>
</event>
<event>
 5    1  0.3199195E-002  0.1249998E+03  0.7818608E-02  0.1235070E+00
         -4   -1    0    0    0  501 -0.00000000000E+00  0.00000000000E+00  0.39472847794E+02  0.39493273009E+02  0.12700000000E+01 0.  1.
          4   -1    0    0  501    0  0.00000000000E+00 -0.00000000000E+00 -0.98910067421E+02  0.98918220452E+02  0.12700000000E+01 0.  1.
         25    2    1    2    0    0  0.00000000000E+00  0.00000000000E+00 -0.59437219628E+02  0.13841149346E+03  0.12499983378E+03 0.  0.
    9000005    1    3    3    0    0 -0.57680323826E+02 -0.18805112480E+02 -0.13124437120E+02  0.62079810420E+02  0.10000000000E+01 0.  0.
    9000005    1    3    3    0    0  0.57680323826E+02  0.18805112480E+02 -0.46312782508E+02  0.76331683040E+02  0.10000000000E+01 0.  0.
<mgrwt>
<rscale>  0 0.12499983E+03</rscale>
<asrwt>0</asrwt>
<pdfrwt beam="2">  1        4 0.15219132E-01 0.12499983E+03</pdfrwt>
<pdfrwt beam="1">  1       -4 0.60749441E-02 0.12499983E+03</pdfrwt>
<totfact> 0.10166653E+04</totfact>
</mgrwt>
</event>
<event>
 5    1  0.3199195E-002  0.1249967E+03  0.7818608E-02  0.1235074E+00
          4   -1    0    0  501    0  0.00000000000E+00  0.00000000000E+00  0.10857749634E+03  0.10858492350E+03  0.12700000000E+01 0.  1.
         -4   -1    0    0    0  501 -0.00000000000E+00 -0.00000000000E+00 -0.35954816803E+02  0.35977239351E+02  0.12700000000E+01 0.  1.
         25    2    1    2    0    0  0.00000000000E+00  0.00000000000E+00  0.72622679533E+02  0.14456216285E+03  0.12499666133E+03 0.  0.
    9000005    1    3    3    0    0 -0.33310760369E+02  0.40241859152E+02 -0.33497766895E+01  0.52356804603E+02  0.10000000000E+01 0.  0.
    9000005    1    3    3    0    0  0.33310760369E+02 -0.40241859152E+02  0.75972456223E+02  0.92205358244E+02  0.10000000000E+01 0.  0.
<mgrwt>
<rscale>  0 0.12499666E+03</rscale>
<asrwt>0</asrwt>
<pdfrwt beam="1">  1        4 0.16706526E-01 0.12499666E+03</pdfrwt>
<pdfrwt beam="2">  1       -4 0.55338064E-02 0.12499666E+03</pdfrwt>
<totfact> 0.10040647E+04</totfact>
</mgrwt>
</event>
<event>
 5    1  0.3199195E-002  0.1249995E+03  0.7818608E-02  0.1235070E+00
          4   -1    0    0  501    0  0.00000000000E+00  0.00000000000E+00  0.44692576937E+02  0.44710617679E+02  0.12700000000E+01 0. -1.
         -4   -1    0    0    0  501 -0.00000000000E+00 -0.00000000000E+00 -0.87361621927E+02  0.87370852610E+02  0.12700000000E+01 0. -1.
         25    2    1    2    0    0  0.00000000000E+00  0.00000000000E+00 -0.42669044991E+02  0.13208147029E+03  0.12499946957E+03 0.  0.
    9000005    1    3    3    0    0 -0.37925156701E+02 -0.62715191672E+01  0.30727300537E+02  0.49222113544E+02  0.10000000000E+01 0.  0.
    9000005    1    3    3    0    0  0.37925156701E+02  0.62715191672E+01 -0.73396345528E+02  0.82859356745E+02  0.10000000000E+01 0.  0.
<mgrwt>
<rscale>  0 0.12499947E+03</rscale>
<asrwt>0</asrwt>
<pdfrwt beam="1">  1        4 0.68778789E-02 0.12499947E+03</pdfrwt>
<pdfrwt beam="2">  1       -4 0.13442347E-01 0.12499947E+03</pdfrwt>
<totfact> 0.10300083E+04</totfact>
</mgrwt>
</event>
<event>
 5    1  0.3199195E-002  0.1249981E+03  0.7818608E-02  0.1235072E+00
          4   -1    0    0  501    0  0.00000000000E+00  0.00000000000E+00  0.11234859291E+04  0.11234866469E+04  0.12700000000E+01 0. -1.
         -4   -1    0    0    0  501 -0.00000000000E+00 -0.00000000000E+00 -0.33600765445E+01  0.35920766118E+01  0.12700000000E+01 0. -1.
         25    2    1    2    0    0  0.00000000000E+00  0.00000000000E+00  0.11201258526E+04  0.11270787235E+04  0.12499809380E+03 0.  0.
    9000005    1    3    3    0    0 -0.36694581512E+02  0.48912866493E+02  0.67629533197E+03  0.67905473776E+03  0.10000000000E+01 0.  0.
    9000005    1    3    3    0    0  0.36694581512E+02 -0.48912866493E+02  0.44383052059E+03  0.44802398577E+03  0.10000000000E+01 0.  0.
<mgrwt>
<rscale>  0 0.12499809E+03</rscale>
<asrwt>0</asrwt>
<pdfrwt beam="1">  1        4 0.17286196E+00 0.12499809E+03</pdfrwt>
<pdfrwt beam="2">  1       -4 0.53483601E-03 0.12499809E+03</pdfrwt>
<totfact> 0.26705175E+03</totfact>
</mgrwt>
</event>
<event>
 5    1  0.3199195E-002  0.1249983E+03  0.7818608E-02  0.1235072E+00
          4   -1    0    0  501    0  0.00000000000E+00  0.00000000000E+00  0.72599196385E+02  0.72610303785E+02  0.12700000000E+01 0.  1.
         -4   -1    0    0    0  501 -0.00000000000E+00 -0.00000000000E+00 -0.53781495513E+02  0.53796488358E+02  0.12700000000E+01 0.  1.
         25    2    1    2    0    0  0.00000000000E+00  0.00000000000E+00  0.18817700872E+02  0.12640679214E+03  0.12499828492E+03 0.  0.
    9000005    1    3    3    0    0  0.34410306055E+02  0.52095229994E+02  0.67027568845E+01  0.62800550163E+02  0.10000000000E+01 0.  0.
    9000005    1    3    3    0    0 -0.34410306055E+02 -0.52095229994E+02  0.12114943988E+02  0.63606241980E+02  0.10000000000E+01 0.  0.
<mgrwt>
<rscale>  0 0.12499828E+03</rscale>
<asrwt>0</asrwt>
<pdfrwt beam="1">  1        4 0.11171115E-01 0.12499828E+03</pdfrwt>
<pdfrwt beam="2">  1       -4 0.82760840E-02 0.12499828E+03</pdfrwt>
<totfact> 0.10422465E+04</totfact>
</mgrwt>
</event>
<event>
 5    1  0.3199195E-002  0.1249976E+03  0.7818608E-02  0.1235073E+00
         -4   -1    0    0    0  501 -0.00000000000E+00  0.00000000000E+00  0.23324744650E+02  0.23359293932E+02  0.12700000000E+01 0. -1.
          4   -1    0    0  501    0  0.00000000000E+00 -0.00000000000E+00 -0.16730511967E+03  0.16730993983E+03  0.12700000000E+01 0. -1.
         25    2    1    2    0    0  0.00000000000E+00  0.00000000000E+00 -0.14398037502E+03  0.19066923377E+03  0.12499763324E+03 0.  0.
    9000005    1    3    3    0    0 -0.87645043872E+01 -0.61140388660E+02 -0.86472362549E+02  0.10627056576E+03  0.10000000000E+01 0.  0.
    9000005    1    3    3    0    0  0.87645043872E+01  0.61140388660E+02 -0.57508012468E+02  0.84398668003E+02  0.10000000000E+01 0.  0.
<mgrwt>
<rscale>  0 0.12499763E+03</rscale>
<asrwt>0</asrwt>
<pdfrwt beam="2">  1        4 0.25742277E-01 0.12499763E+03</pdfrwt>
<pdfrwt beam="1">  1       -4 0.35914508E-02 0.12499763E+03</pdfrwt>
<totfact> 0.91735864E+03</totfact>
</mgrwt>
</event>
<event>
 5    1  0.3199195E-002  0.1249973E+03  0.7818608E-02  0.1235074E+00
         -4   -1    0    0    0  501 -0.00000000000E+00  0.00000000000E+00  0.60284507895E+02  0.60297883812E+02  0.12700000000E+01 0.  1.
          4   -1    0    0  501    0  0.00000000000E+00 -0.00000000000E+00 -0.64767319294E+02  0.64779769593E+02  0.12700000000E+01 0.  1.
         25    2    1    2    0    0  0.00000000000E+00  0.00000000000E+00 -0.44828113987E+01  0.12507765341E+03  0.12499729510E+03 0.  0.
    9000005    1    3    3    0    0  0.50505263767E+02  0.35156534428E+02  0.86429657266E+01  0.62148728368E+02  0.10000000000E+01 0.  0.
    9000005    1    3    3    0    0 -0.50505263767E+02 -0.35156534428E+02 -0.13125777125E+02  0.62928925037E+02  0.10000000000E+01 0.  0.
<mgrwt>
<rscale>  0 0.12499730E+03</rscale>
<asrwt>0</asrwt>
<pdfrwt beam="2">  1        4 0.99661896E-02 0.12499730E+03</pdfrwt>
<pdfrwt beam="1">  1       -4 0.92765263E-02 0.12499730E+03</pdfrwt>
<totfact> 0.10451815E+04</totfact>
</mgrwt>
</event>
<event>
 5    1  0.3199195E-002  0.1249973E+03  0.7818608E-02  0.1235074E+00
          4   -1    0    0  501    0  0.00000000000E+00  0.00000000000E+00  0.25635232168E+01  0.28608654780E+01  0.12700000000E+01 0.  1.
         -4   -1    0    0    0  501 -0.00000000000E+00 -0.00000000000E+00 -0.14398938968E+04  0.14398944569E+04  0.12700000000E+01 0.  1.
         25    2    1    2    0    0  0.00000000000E+00  0.00000000000E+00 -0.14373303736E+04  0.14427553224E+04  0.12499726939E+03 0.  0.
    9000005    1    3    3    0    0 -0.28500278959E+02 -0.25879913764E+02 -0.15050242645E+03  0.15535126715E+03  0.10000000000E+01 0.  0.
    9000005    1    3    3    0    0  0.28500278959E+02  0.25879913764E+02 -0.12868279472E+04  0.12874040552E+04  0.10000000000E+01 0.  0.
<mgrwt>
<rscale>  0 0.12499727E+03</rscale>
<asrwt>0</asrwt>
<pdfrwt beam="1">  1        4 0.41730490E-03 0.12499727E+03</pdfrwt>
<pdfrwt beam="2">  1       -4 0.22154444E+00 0.12499727E+03</pdfrwt>
<totfact> 0.19082828E+03</totfact>
</mgrwt>
</event>
<event>
 5    1  0.3199195E-002  0.1249996E+03  0.7818608E-02  0.1235070E+00
         -4   -1    0    0    0  501 -0.00000000000E+00  0.00000000000E+00  0.13195345423E+03  0.13195956572E+03  0.12700000000E+01 0. -1.
          4   -1    0    0  501    0  0.00000000000E+00 -0.00000000000E+00 -0.29582631548E+02  0.29609879927E+02  0.12700000000E+01 0. -1.
         25    2    1    2    0    0  0.00000000000E+00  0.00000000000E+00  0.10237082269E+03  0.16156944564E+03  0.12499960171E+03 0.  0.
    9000005    1    3    3    0    0 -0.96205153273E+01  0.40848273832E+02  0.11103649831E+03  0.11870652782E+03  0.10000000000E+01 0.  0.
    9000005    1    3    3    0    0  0.96205153273E+01 -0.40848273832E+02 -0.86656756258E+01  0.42862917823E+02  0.10000000000E+01 0.  0.
<mgrwt>
<rscale>  0 0.12499960E+03</rscale>
<asrwt>0</asrwt>
<pdfrwt beam="2">  1        4 0.45537402E-02 0.12499960E+03</pdfrwt>
<pdfrwt beam="1">  1       -4 0.20303098E-01 0.12499960E+03</pdfrwt>
<totfact> 0.97041927E+03</totfact>
</mgrwt>
</event>
<event>
 5    1  0.3199195E-002  0.1249988E+03  0.7818608E-02  0.1235071E+00
          4   -1    0    0  501    0  0.00000000000E+00  0.00000000000E+00  0.44671007594E+02  0.44689057043E+02  0.12700000000E+01 0.  1.
         -4   -1    0    0    0  501 -0.00000000000E+00 -0.00000000000E+00 -0.87402813087E+02  0.87412039420E+02  0.12700000000E+01 0.  1.
         25    2    1    2    0    0  0.00000000000E+00  0.00000000000E+00 -0.42731805494E+02  0.13210109646E+03  0.12499876994E+03 0.  0.
    9000005    1    3    3    0    0 -0.32291452976E+02  0.50400978100E+02 -0.23967612889E+01  0.59914447284E+02  0.10000000000E+01 0.  0.
    9000005    1    3    3    0    0  0.32291452976E+02 -0.50400978100E+02 -0.40335044205E+02  0.72186649179E+02  0.10000000000E+01 0.  0.
<mgrwt>
<rscale>  0 0.12499877E+03</rscale>
<asrwt>0</asrwt>
<pdfrwt beam="1">  1        4 0.68745608E-02 0.12499877E+03</pdfrwt>
<pdfrwt beam="2">  1       -4 0.13448685E-01 0.12499877E+03</pdfrwt>
<totfact> 0.10299827E+04</totfact>
</mgrwt>
</event>
<event>
 5    1  0.3199195E-002  0.1250067E+03  0.7818608E-02  0.1235059E+00
         -4   -1    0    0    0  501 -0.00000000000E+00  0.00000000000E+00  0.12308065316E+02  0.12373413911E+02  0.12700000000E+01 0. -1.
          4   -1    0    0  501    0  0.00000000000E+00 -0.00000000000E+00 -0.31650042649E+03  0.31650297450E+03  0.12700000000E+01 0. -1.
         25    2    1    2    0    0  0.00000000000E+00  0.00000000000E+00 -0.30419236117E+03  0.32887638841E+03  0.12500674485E+03 0.  0.
    9000005    1    3    3    0    0 -0.17848663090E+02  0.56612152189E+02 -0.20352688103E+03  0.21200873060E+03  0.10000000000E+01 0.  0.
    9000005    1    3    3    0    0  0.17848663090E+02 -0.56612152189E+02 -0.10066548014E+03  0.11686765781E+03  0.10000000000E+01 0.  0.
<mgrwt>
<rscale>  0 0.12500674E+03</rscale>
<asrwt>0</asrwt>
<pdfrwt beam="2">  1        4 0.48697590E-01 0.12500674E+03</pdfrwt>
<pdfrwt beam="1">  1       -4 0.18987716E-02 0.12500674E+03</pdfrwt>
<totfact> 0.72101915E+03</totfact>
</mgrwt>
</event>
<event>
 5    1  0.3199195E-002  0.1249991E+03  0.7818608E-02  0.1235071E+00
         -4   -1    0    0    0  501 -0.00000000000E+00  0.00000000000E+00  0.11523958976E+02  0.11593728066E+02  0.12700000000E+01 0.  1.
          4   -1    0    0  501    0  0.00000000000E+00 -0.00000000000E+00 -0.33786898887E+03  0.33787137573E+03  0.12700000000E+01 0.  1.
         25    2    1    2    0    0  0.00000000000E+00  0.00000000000E+00 -0.32634502989E+03  0.34946510380E+03  0.12499912095E+03 0.  0.
    9000005    1    3    3    0    0  0.22157151185E+02  0.30083908328E+02 -0.23128123016E+02  0.43953281597E+02  0.10000000000E+01 0.  0.
    9000005    1    3    3    0    0 -0.22157151185E+02 -0.30083908328E+02 -0.30321690688E+03  0.30551182220E+03  0.10000000000E+01 0.  0.
<mgrwt>
<rscale>  0 0.12499912E+03</rscale>
<asrwt>0</asrwt>
<pdfrwt beam="2">  1        4 0.51985387E-01 0.12499912E+03</pdfrwt>
<pdfrwt beam="1">  1       -4 0.17784675E-02 0.12499912E+03</pdfrwt>
<totfact> 0.69784802E+03</totfact>
</mgrwt>
</event>
<event>
 5    1  0.3199195E-002  0.1250069E+03  0.7818608E-02  0.1235059E+00
         -4   -1    0    0    0  501 -0.00000000000E+00  0.00000000000E+00  0.31112469724E+02  0.31138379411E+02  0.12700000000E+01 0.  1.
          4   -1    0    0  501    0  0.00000000000E+00 -0.00000000000E+00 -0.12548493169E+03  0.12549135819E+03  0.12700000000E+01 0.  1.
         25    2    1    2    0    0  0.00000000000E+00  0.00000000000E+00 -0.94372461967E+02  0.15662973760E+03  0.12500685231E+03 0.  0.
    9000005    1    3    3    0    0 -0.17438539195E+02 -0.58212879824E+02 -0.65465684352E+02  0.89328594830E+02  0.10000000000E+01 0.  0.
    9000005    1    3    3    0    0  0.17438539195E+02  0.58212879824E+02 -0.28906777615E+02  0.67301142775E+02  0.10000000000E+01 0.  0.
<mgrwt>
<rscale>  0 0.12500685E+03</rscale>
<asrwt>0</asrwt>
<pdfrwt beam="2">  1        4 0.19307861E-01 0.12500685E+03</pdfrwt>
<pdfrwt beam="1">  1       -4 0.47890213E-02 0.12500685E+03</pdfrwt>
<totfact> 0.97981410E+03</totfact>
</mgrwt>
</event>
<event>
 5    1  0.3199195E-002  0.1250005E+03  0.7818608E-02  0.1235069E+00
          4   -1    0    0  501    0  0.00000000000E+00  0.00000000000E+00  0.18111929814E+03  0.18112375067E+03  0.12700000000E+01 0.  1.
         -4   -1    0    0    0  501 -0.00000000000E+00 -0.00000000000E+00 -0.21544016844E+02  0.21581417048E+02  0.12700000000E+01 0.  1.
         25    2    1    2    0    0  0.00000000000E+00  0.00000000000E+00  0.15957528129E+03  0.20270516772E+03  0.12500045848E+03 0.  0.
    9000005    1    3    3    0    0 -0.24289619114E+00 -0.44397471809E+02  0.84709966511E+01  0.45210090532E+02  0.10000000000E+01 0.  0.
    9000005    1    3    3    0    0  0.24289619114E+00  0.44397471809E+02  0.15110428464E+03  0.15749507719E+03  0.10000000000E+01 0.  0.
<mgrwt>
<rscale>  0 0.12500046E+03</rscale>
<asrwt>0</asrwt>
<pdfrwt beam="1">  1        4 0.27867728E-01 0.12500046E+03</pdfrwt>
<pdfrwt beam="2">  1       -4 0.33176834E-02 0.12500046E+03</pdfrwt>
<totfact> 0.89680333E+03</totfact>
</mgrwt>
</event>
<event>
 5    1  0.3199195E-002  0.1250012E+03  0.7818608E-02  0.1235067E+00
         -4   -1    0    0    0  501 -0.00000000000E+00  0.00000000000E+00  0.39037071113E+03  0.39037277698E+03  0.12700000000E+01 0. -1.
          4   -1    0    0  501    0  0.00000000000E+00 -0.00000000000E+00 -0.99643100261E+01  0.10044917834E+02  0.12700000000E+01 0. -1.
         25    2    1    2    0    0  0.00000000000E+00  0.00000000000E+00  0.38040640111E+03  0.40041769482E+03  0.12500120128E+03 0.  0.
    9000005    1    3    3    0    0  0.27785067761E+02  0.45332131612E+02  0.29539248032E+03  0.30014118274E+03  0.10000000000E+01 0.  0.
    9000005    1    3    3    0    0 -0.27785067761E+02 -0.45332131612E+02  0.85013920781E+02  0.10027651207E+03  0.10000000000E+01 0.  0.
<mgrwt>
<rscale>  0 0.12500120E+03</rscale>
<asrwt>0</asrwt>
<pdfrwt beam="2">  1        4 0.15393304E-02 0.12500120E+03</pdfrwt>
<pdfrwt beam="1">  1       -4 0.60063386E-01 0.12500120E+03</pdfrwt>
<totfact> 0.64510476E+03</totfact>
</mgrwt>
</event>
<event>
 5    1  0.3199195E-002  0.1250022E+03  0.7818608E-02  0.1235066E+00
          4   -1    0    0  501    0  0.00000000000E+00  0.00000000000E+00  0.21854455619E+02  0.21891325460E+02  0.12700000000E+01 0.  1.
         -4   -1    0    0    0  501 -0.00000000000E+00 -0.00000000000E+00 -0.17855585578E+03  0.17856037224E+03  0.12700000000E+01 0.  1.
         25    2    1    2    0    0  0.00000000000E+00  0.00000000000E+00 -0.15670140016E+03  0.20045169770E+03  0.12500221717E+03 0.  0.
    9000005    1    3    3    0    0  0.53245123737E+02 -0.23223906241E+02 -0.11530265879E+03  0.12911272651E+03  0.10000000000E+01 0.  0.
    9000005    1    3    3    0    0 -0.53245123737E+02  0.23223906241E+02 -0.41398741367E+02  0.71338971184E+02  0.10000000000E+01 0.  0.
<mgrwt>
<rscale>  0 0.12500222E+03</rscale>
<asrwt>0</asrwt>
<pdfrwt beam="1">  1        4 0.33654076E-02 0.12500222E+03</pdfrwt>
<pdfrwt beam="2">  1       -4 0.27473314E-01 0.12500222E+03</pdfrwt>
<totfact> 0.90054912E+03</totfact>
</mgrwt>
</event>
<event>
 5    1  0.3199195E-002  0.1250030E+03  0.7818608E-02  0.1235065E+00
         -4   -1    0    0    0  501 -0.00000000000E+00  0.00000000000E+00  0.12090883019E+02  0.12157399071E+02  0.12700000000E+01 0. -1.
          4   -1    0    0  501    0  0.00000000000E+00 -0.00000000000E+00 -0.32213535115E+03  0.32213785459E+03  0.12700000000E+01 0. -1.
         25    2    1    2    0    0  0.00000000000E+00  0.00000000000E+00 -0.31004446813E+03  0.33429525367E+03  0.12500297758E+03 0.  0.
    9000005    1    3    3    0    0 -0.36510294325E+02  0.11008432583E+00 -0.29066011400E+03  0.29294592604E+03  0.10000000000E+01 0.  0.
    9000005    1    3    3    0    0  0.36510294325E+02 -0.11008432583E+00 -0.19384354134E+02  0.41349327630E+02  0.10000000000E+01 0.  0.
<mgrwt>
<rscale>  0 0.12500298E+03</rscale>
<asrwt>0</asrwt>
<pdfrwt beam="2">  1        4 0.49564588E-01 0.12500298E+03</pdfrwt>
<pdfrwt beam="1">  1       -4 0.18654453E-02 0.12500298E+03</pdfrwt>
<totfact> 0.71482831E+03</totfact>
</mgrwt>
</event>
<event>
 5    1  0.3199195E-002  0.1249991E+03  0.7818608E-02  0.1235071E+00
          4   -1    0    0  501    0  0.00000000000E+00  0.00000000000E+00  0.35425697218E+02  0.35448454457E+02  0.12700000000E+01 0.  1.
         -4   -1    0    0    0  501 -0.00000000000E+00 -0.00000000000E+00 -0.11020258017E+03  0.11020989781E+03  0.12700000000E+01 0.  1.
         25    2    1    2    0    0  0.00000000000E+00  0.00000000000E+00 -0.74776882949E+02  0.14565835227E+03  0.12499909344E+03 0.  0.
    9000005    1    3    3    0    0  0.86091098233E+01 -0.57162758114E+02 -0.97270632729E+01  0.58628606047E+02  0.10000000000E+01 0.  0.
    9000005    1    3    3    0    0 -0.86091098233E+01  0.57162758114E+02 -0.65049819676E+02  0.87029746220E+02  0.10000000000E+01 0.  0.
<mgrwt>
<rscale>  0 0.12499909E+03</rscale>
<asrwt>0</asrwt>
<pdfrwt beam="1">  1        4 0.54524208E-02 0.12499909E+03</pdfrwt>
<pdfrwt beam="2">  1       -4 0.16956556E-01 0.12499909E+03</pdfrwt>
<totfact> 0.10017834E+04</totfact>
</mgrwt>
</event>
<event>
 5    1  0.3199195E-002  0.1249965E+03  0.7818608E-02  0.1235075E+00
         -4   -1    0    0    0  501 -0.00000000000E+00  0.00000000000E+00  0.34897534134E+02  0.34920635570E+02  0.12700000000E+01 0.  1.
          4   -1    0    0  501    0  0.00000000000E+00 -0.00000000000E+00 -0.11186482406E+03  0.11187203298E+03  0.12700000000E+01 0.  1.
         25    2    1    2    0    0  0.00000000000E+00  0.00000000000E+00 -0.76967289928E+02  0.14679266855E+03  0.12499649523E+03 0.  0.
    9000005    1    3    3    0    0 -0.17075539621E+02 -0.54757974536E+02 -0.67607680129E+02  0.88666838452E+02  0.10000000000E+01 0.  0.
    9000005    1    3    3    0    0  0.17075539621E+02  0.54757974536E+02 -0.93596097986E+01  0.58125830094E+02  0.10000000000E+01 0.  0.
<mgrwt>
<rscale>  0 0.12499650E+03</rscale>
<asrwt>0</asrwt>
<pdfrwt beam="2">  1        4 0.17212304E-01 0.12499650E+03</pdfrwt>
<pdfrwt beam="1">  1       -4 0.53711830E-02 0.12499650E+03</pdfrwt>
<totfact> 0.99954804E+03</totfact>
</mgrwt>
</event>
<event>
 5    1  0.3199195E-002  0.1249997E+03  0.7818608E-02  0.1235070E+00
          4   -1    0    0  501    0  0.00000000000E+00  0.00000000000E+00  0.68980470607E+01  0.70139826954E+01  0.12700000000E+01 0. -1.
         -4   -1    0    0    0  501 -0.00000000000E+00 -0.00000000000E+00 -0.56144537796E+03  0.56144681434E+03  0.12700000000E+01 0. -1.
         25    2    1    2    0    0  0.00000000000E+00  0.00000000000E+00 -0.55454733090E+03  0.56846079703E+03  0.12499974223E+03 0.  0.
    9000005    1    3    3    0    0 -0.80206447487E+01 -0.48444195563E+02 -0.10149107233E+03  0.11275020438E+03  0.10000000000E+01 0.  0.
    9000005    1    3    3    0    0  0.80206447487E+01  0.48444195563E+02 -0.45305625857E+03  0.45571059265E+03  0.10000000000E+01 0.  0.
<mgrwt>
<rscale>  0 0.12499974E+03</rscale>
<asrwt>0</asrwt>
<pdfrwt beam="1">  1        4 0.10702671E-02 0.12499974E+03</pdfrwt>
<pdfrwt beam="2">  1       -4 0.86385205E-01 0.12499974E+03</pdfrwt>
<totfact> 0.50921263E+03</totfact>
</mgrwt>
</event>
<event>
 5    1  0.3199195E-002  0.1250001E+03  0.7818608E-02  0.1235069E+00
         -4   -1    0    0    0  501 -0.00000000000E+00  0.00000000000E+00  0.11981353257E+03  0.11982026325E+03  0.12700000000E+01 0. -1.
          4   -1    0    0  501    0  0.00000000000E+00 -0.00000000000E+00 -0.32582797221E+02  0.32607538619E+02  0.12700000000E+01 0. -1.
         25    2    1    2    0    0  0.00000000000E+00  0.00000000000E+00  0.87230735344E+02  0.15242780187E+03  0.12500013438E+03 0.  0.
    9000005    1    3    3    0    0  0.61017264592E+02  0.44664019148E+01  0.59145789344E+02  0.85101584718E+02  0.10000000000E+01 0.  0.
    9000005    1    3    3    0    0 -0.61017264592E+02 -0.44664019148E+01  0.28084946000E+02  0.67326217153E+02  0.10000000000E+01 0.  0.
<mgrwt>
<rscale>  0 0.12500013E+03</rscale>
<asrwt>0</asrwt>
<pdfrwt beam="2">  1        4 0.50151591E-02 0.12500013E+03</pdfrwt>
<pdfrwt beam="1">  1       -4 0.18435272E-01 0.12500013E+03</pdfrwt>
<totfact> 0.98821637E+03</totfact>
</mgrwt>
</event>
<event>
 5    1  0.3199195E-002  0.1250154E+03  0.7818608E-02  0.1235045E+00
          4   -1    0    0  501    0  0.00000000000E+00  0.00000000000E+00  0.13032080556E+02  0.13093816236E+02  0.12700000000E+01 0. -1.
         -4   -1    0    0    0  501 -0.00000000000E+00 -0.00000000000E+00 -0.29904354154E+03  0.29904623829E+03  0.12700000000E+01 0. -1.
         25    2    1    2    0    0  0.00000000000E+00  0.00000000000E+00 -0.28601146098E+03  0.31214005453E+03  0.12501543036E+03 0.  0.
    9000005    1    3    3    0    0 -0.60188255576E+02  0.35043245338E+01 -0.18413180209E+03  0.19375352110E+03  0.10000000000E+01 0.  0.
    9000005    1    3    3    0    0  0.60188255576E+02 -0.35043245338E+01 -0.10187965889E+03  0.11838653342E+03  0.10000000000E+01 0.  0.
<mgrwt>
<rscale>  0 0.12501543E+03</rscale>
<asrwt>0</asrwt>
<pdfrwt beam="1">  1        4 0.20098920E-02 0.12501543E+03</pdfrwt>
<pdfrwt beam="2">  1       -4 0.46011650E-01 0.12501543E+03</pdfrwt>
<totfact> 0.74075461E+03</totfact>
</mgrwt>
</event>
<event>
 5    1  0.3199195E-002  0.1249993E+03  0.7818608E-02  0.1235070E+00
          4   -1    0    0  501    0  0.00000000000E+00  0.00000000000E+00  0.23477493618E+02  0.23511818445E+02  0.12700000000E+01 0.  1.
         -4   -1    0    0    0  501 -0.00000000000E+00 -0.00000000000E+00 -0.16622269917E+03  0.16622755072E+03  0.12700000000E+01 0.  1.
         25    2    1    2    0    0  0.00000000000E+00  0.00000000000E+00 -0.14274520555E+03  0.18973936917E+03  0.12499933801E+03 0.  0.
    9000005    1    3    3    0    0 -0.47937178955E+02 -0.36244311359E+02 -0.45364003587E+02  0.75302828987E+02  0.10000000000E+01 0.  0.
    9000005    1    3    3    0    0  0.47937178955E+02  0.36244311359E+02 -0.97381201964E+02  0.11443654018E+03  0.10000000000E+01 0.  0.
<mgrwt>
<rscale>  0 0.12499934E+03</rscale>
<asrwt>0</asrwt>
<pdfrwt beam="1">  1        4 0.36149358E-02 0.12499934E+03</pdfrwt>
<pdfrwt beam="2">  1       -4 0.25575736E-01 0.12499934E+03</pdfrwt>
<totfact> 0.91894046E+03</totfact>
</mgrwt>
</event>
<event>
 4    1  0.3199195E-002  0.1250991E+03  0.7818608E-02  0.1234914E+00
         -4   -1    0    0    0  501 -0.00000000000E+00  0.00000000000E+00  0.28600487204E+02  0.28628670390E+02  0.12700000000E+01 0.  1.
          4   -1    0    0  501    0  0.00000000000E+00 -0.00000000000E+00 -0.13669800786E+03  0.13670390723E+03  0.12700000000E+01 0.  1.
    9000005    1    1    2    0    0  0.60675836077E+02 -0.88097109359E+00 -0.34044169604E+02  0.69586914558E+02  0.10000000000E+01 0.  0.
    9000005    1    1    2    0    0 -0.60675836077E+02  0.88097109359E+00 -0.74053351049E+02  0.95745663063E+02  0.10000000000E+01 0.  0.
<mgrwt>
<rscale>  0 0.12509911E+03</rscale>
<asrwt>0</asrwt>
<pdfrwt beam="2">  1        4 0.21033084E-01 0.12509911E+03</pdfrwt>
<pdfrwt beam="1">  1       -4 0.44026968E-02 0.12509911E+03</pdfrwt>
<totfact> 0.96110301E+03</totfact>
</mgrwt>
</event>
<event>
 5    1  0.3199195E-002  0.1250033E+03  0.7818608E-02  0.1235064E+00
         -4   -1    0    0    0  501 -0.00000000000E+00  0.00000000000E+00  0.41012855177E+02  0.41032513812E+02  0.12700000000E+01 0.  1.
          4   -1    0    0  501    0  0.00000000000E+00 -0.00000000000E+00 -0.95202820070E+02  0.95211290556E+02  0.12700000000E+01 0.  1.
         25    2    1    2    0    0  0.00000000000E+00  0.00000000000E+00 -0.54189964893E+02  0.13624380437E+03  0.12500328769E+03 0.  0.
    9000005    1    3    3    0    0  0.58140543036E+02 -0.10867136299E+02 -0.51056091963E+01  0.59375791710E+02  0.10000000000E+01 0.  0.
    9000005    1    3    3    0    0 -0.58140543036E+02  0.10867136299E+02 -0.49084355697E+02  0.76868012658E+02  0.10000000000E+01 0.  0.
<mgrwt>
<rscale>  0 0.12500329E+03</rscale>
<asrwt>0</asrwt>
<pdfrwt beam="2">  1        4 0.14648751E-01 0.12500329E+03</pdfrwt>
<pdfrwt beam="1">  1       -4 0.63118338E-02 0.12500329E+03</pdfrwt>
<totfact> 0.10211164E+04</totfact>
</mgrwt>
</event>
<event>
 5    1  0.3199195E-002  0.1249954E+03  0.7818608E-02  0.1235076E+00
         -4   -1    0    0    0  501 -0.00000000000E+00  0.00000000000E+00  0.14001892965E+03  0.14002468911E+03  0.12700000000E+01 0. -1.
          4   -1    0    0  501    0  0.00000000000E+00 -0.00000000000E+00 -0.27875182349E+02  0.27904098104E+02  0.12700000000E+01 0. -1.
         25    2    1    2    0    0  0.00000000000E+00  0.00000000000E+00  0.11214374730E+03  0.16792878722E+03  0.12499542998E+03 0.  0.
    9000005    1    3    3    0    0 -0.16136385411E+02 -0.54158448457E+02  0.20237373708E+02  0.60033921811E+02  0.10000000000E+01 0.  0.
    9000005    1    3    3    0    0  0.16136385411E+02  0.54158448457E+02  0.91906373595E+02  0.10789486541E+03  0.10000000000E+01 0.  0.
<mgrwt>
<rscale>  0 0.12499543E+03</rscale>
<asrwt>0</asrwt>
<pdfrwt beam="2">  1        4 0.42911569E-02 0.12499543E+03</pdfrwt>
<pdfrwt beam="1">  1       -4 0.21544041E-01 0.12499543E+03</pdfrwt>
<totfact> 0.95845420E+03</totfact>
</mgrwt>
</event>
<event>
 5    1  0.3199195E-002  0.1250035E+03  0.7818608E-02  0.1235064E+00
          4   -1    0    0  501    0  0.00000000000E+00  0.00000000000E+00  0.18322885179E+02  0.18366845709E+02  0.12700000000E+01 0. -1.
         -4   -1    0    0    0  501 -0.00000000000E+00 -0.00000000000E+00 -0.21290023556E+03  0.21290402345E+03  0.12700000000E+01 0. -1.
         25    2    1    2    0    0  0.00000000000E+00  0.00000000000E+00 -0.19457735038E+03  0.23127086916E+03  0.12500347851E+03 0.  0.
    9000005    1    3    3    0    0  0.55779237552E+02  0.16698145180E+02 -0.13928735648E+03  0.15097059009E+03  0.10000000000E+01 0.  0.
    9000005    1    3    3    0    0 -0.55779237552E+02 -0.16698145180E+02 -0.55289993899E+02  0.80300279077E+02  0.10000000000E+01 0.  0.
<mgrwt>
<rscale>  0 0.12500348E+03</rscale>
<asrwt>0</asrwt>
<pdfrwt beam="1">  1        4 0.28225785E-02 0.12500348E+03</pdfrwt>
<pdfrwt beam="2">  1       -4 0.32757554E-01 0.12500348E+03</pdfrwt>
<totfact> 0.85108231E+03</totfact>
</mgrwt>
</event>
<event>
 5    1  0.3199195E-002  0.1249989E+03  0.7818608E-02  0.1235071E+00
          4   -1    0    0  501    0  0.00000000000E+00  0.00000000000E+00  0.30434919342E+02  0.30461405341E+02  0.12700000000E+01 0. -1.
         -4   -1    0    0    0  501 -0.00000000000E+00 -0.00000000000E+00 -0.12825985024E+03  0.12826613771E+03  0.12700000000E+01 0. -1.
         25    2    1    2    0    0  0.00000000000E+00  0.00000000000E+00 -0.97824930899E+02  0.15872754305E+03  0.12499886327E+03 0.  0.
    9000005    1    3    3    0    0  0.41290249852E+02 -0.27017496946E+02 -0.22059504654E+00  0.49354620212E+02  0.10000000000E+01 0.  0.
    9000005    1    3    3    0    0 -0.41290249852E+02  0.27017496946E+02 -0.97604335852E+02  0.10937292284E+03  0.10000000000E+01 0.  0.
<mgrwt>
<rscale>  0 0.12499886E+03</rscale>
<asrwt>0</asrwt>
<pdfrwt beam="1">  1        4 0.46848164E-02 0.12499886E+03</pdfrwt>
<pdfrwt beam="2">  1       -4 0.19734805E-01 0.12499886E+03</pdfrwt>
<totfact> 0.97591161E+03</totfact>
</mgrwt>
</event>
<event>
 5    1  0.3199195E-002  0.1250013E+03  0.7818608E-02  0.1235067E+00
         -4   -1    0    0    0  501 -0.00000000000E+00  0.00000000000E+00  0.26070234121E+02  0.26101149536E+02  0.12700000000E+01 0. -1.
          4   -1    0    0  501    0  0.00000000000E+00 -0.00000000000E+00 -0.14971624798E+03  0.14972163441E+03  0.12700000000E+01 0. -1.
         25    2    1    2    0    0  0.00000000000E+00  0.00000000000E+00 -0.12364601386E+03  0.17582278394E+03  0.12500125843E+03 0.  0.
    9000005    1    3    3    0    0  0.40181149182E+02 -0.21059432583E+02 -0.12227769381E+03  0.13042568326E+03  0.10000000000E+01 0.  0.
    9000005    1    3    3    0    0 -0.40181149182E+02  0.21059432583E+02 -0.13683200460E+01  0.45397100679E+02  0.10000000000E+01 0.  0.
<mgrwt>
<rscale>  0 0.12500126E+03</rscale>
<asrwt>0</asrwt>
<pdfrwt beam="2">  1        4 0.23036061E-01 0.12500126E+03</pdfrwt>
<pdfrwt beam="1">  1       -4 0.40135978E-02 0.12500126E+03</pdfrwt>
<totfact> 0.94371702E+03</totfact>
</mgrwt>
</event>
<event>
 5    1  0.3199195E-002  0.1249997E+03  0.7818608E-02  0.1235070E+00
          4   -1    0    0  501    0  0.00000000000E+00  0.00000000000E+00  0.21354235676E+03  0.21354613326E+03  0.12700000000E+01 0.  1.
         -4   -1    0    0    0  501 -0.00000000000E+00 -0.00000000000E+00 -0.18266536997E+02  0.18310632809E+02  0.12700000000E+01 0.  1.
         25    2    1    2    0    0  0.00000000000E+00  0.00000000000E+00  0.19527581976E+03  0.23185676607E+03  0.12499965675E+03 0.  0.
    9000005    1    3    3    0    0 -0.43179532498E+02 -0.49159219386E+01  0.18093307303E+03  0.18608174341E+03  0.10000000000E+01 0.  0.
    9000005    1    3    3    0    0  0.43179532498E+02  0.49159219386E+01  0.14342746729E+02  0.45775022654E+02  0.10000000000E+01 0.  0.
<mgrwt>
<rscale>  0 0.12499966E+03</rscale>
<asrwt>0</asrwt>
<pdfrwt beam="1">  1        4 0.32856352E-01 0.12499966E+03</pdfrwt>
<pdfrwt beam="2">  1       -4 0.28139190E-02 0.12499966E+03</pdfrwt>
<totfact> 0.85025953E+03</totfact>
</mgrwt>
</event>
<event>
 5    1  0.3199195E-002  0.1250557E+03  0.7818608E-02  0.1234982E+00
         -4   -1    0    0    0  501 -0.00000000000E+00  0.00000000000E+00  0.56658602081E+02  0.56672833790E+02  0.12700000000E+01 0. -1.
          4   -1    0    0  501    0  0.00000000000E+00 -0.00000000000E+00 -0.68976335013E+02  0.68988025714E+02  0.12700000000E+01 0. -1.
         25    2    1    2    0    0  0.00000000000E+00  0.00000000000E+00 -0.12317732932E+02  0.12566085950E+03  0.12505568786E+03 0.  0.
    9000005    1    3    3    0    0  0.12914509830E+02 -0.13571806352E+02  0.53776678643E+02  0.56955330371E+02  0.10000000000E+01 0.  0.
    9000005    1    3    3    0    0 -0.12914509830E+02  0.13571806352E+02 -0.66094411576E+02  0.68705529132E+02  0.10000000000E+01 0.  0.
<mgrwt>
<rscale>  0 0.12505569E+03</rscale>
<asrwt>0</asrwt>
<pdfrwt beam="2">  1        4 0.10613738E-01 0.12505569E+03</pdfrwt>
<pdfrwt beam="1">  1       -4 0.87187021E-02 0.12505569E+03</pdfrwt>
<totfact> 0.10425303E+04</totfact>
</mgrwt>
</event>
<event>
 5    1  0.3199195E-002  0.1249999E+03  0.7818608E-02  0.1235069E+00
         -4   -1    0    0    0  501 -0.00000000000E+00  0.00000000000E+00  0.75348995914E+01  0.76411786952E+01  0.12700000000E+01 0. -1.
          4   -1    0    0  501    0  0.00000000000E+00 -0.00000000000E+00 -0.51468266716E+03  0.51468423404E+03  0.12700000000E+01 0. -1.
         25    2    1    2    0    0  0.00000000000E+00  0.00000000000E+00 -0.50714776757E+03  0.52232541274E+03  0.12499991458E+03 0.  0.
    9000005    1    3    3    0    0  0.95321013746E+00 -0.42827661420E+02 -0.44369483739E+03  0.44575915685E+03  0.10000000000E+01 0.  0.
    9000005    1    3    3    0    0 -0.95321013746E+00  0.42827661420E+02 -0.63452930179E+02  0.76566255887E+02  0.10000000000E+01 0.  0.
<mgrwt>
<rscale>  0 0.12499991E+03</rscale>
<asrwt>0</asrwt>
<pdfrwt beam="2">  1        4 0.79190217E-01 0.12499991E+03</pdfrwt>
<pdfrwt beam="1">  1       -4 0.11675116E-02 0.12499991E+03</pdfrwt>
<totfact> 0.54172975E+03</totfact>
</mgrwt>
</event>
<event>
 5    1  0.3199195E-002  0.1249991E+03  0.7818608E-02  0.1235071E+00
         -4   -1    0    0    0  501 -0.00000000000E+00  0.00000000000E+00  0.23350916364E+02  0.23385426980E+02  0.12700000000E+01 0.  1.
          4   -1    0    0  501    0  0.00000000000E+00 -0.00000000000E+00 -0.16712170623E+03  0.16712653168E+03  0.12700000000E+01 0.  1.
         25    2    1    2    0    0  0.00000000000E+00  0.00000000000E+00 -0.14377078986E+03  0.19051195866E+03  0.12499906550E+03 0.  0.
    9000005    1    3    3    0    0  0.24926406447E+02  0.57293880672E+02 -0.73607766146E+02  0.96555775269E+02  0.10000000000E+01 0.  0.
    9000005    1    3    3    0    0 -0.24926406447E+02 -0.57293880672E+02 -0.70163023717E+02  0.93956183394E+02  0.10000000000E+01 0.  0.
<mgrwt>
<rscale>  0 0.12499907E+03</rscale>
<asrwt>0</asrwt>
<pdfrwt beam="2">  1        4 0.25714057E-01 0.12499907E+03</pdfrwt>
<pdfrwt beam="1">  1       -4 0.35954746E-02 0.12499907E+03</pdfrwt>
<totfact> 0.91760233E+03</totfact>
</mgrwt>
</event>
<event>
 5    1  0.3199195E-002  0.1249985E+03  0.7818608E-02  0.1235072E+00
         -4   -1    0    0    0  501 -0.00000000000E+00  0.00000000000E+00  0.53487740173E+03  0.53487890946E+03  0.12700000000E+01 0.  1.
          4   -1    0    0  501    0  0.00000000000E+00 -0.00000000000E+00 -0.72461556394E+01  0.73566073397E+01  0.12700000000E+01 0.  1.
         25    2    1    2    0    0  0.00000000000E+00  0.00000000000E+00  0.52763124609E+03  0.54223551680E+03  0.12499849529E+03 0.  0.
    9000005    1    3    3    0    0  0.29068612833E+02 -0.40626504513E+02  0.42668528108E+03  0.42960077538E+03  0.10000000000E+01 0.  0.
    9000005    1    3    3    0    0 -0.29068612833E+02  0.40626504513E+02  0.10094596502E+03  0.11263474142E+03  0.10000000000E+01 0.  0.
<mgrwt>
<rscale>  0 0.12499850E+03</rscale>
<asrwt>0</asrwt>
<pdfrwt beam="2">  1        4 0.11234053E-02 0.12499850E+03</pdfrwt>
<pdfrwt beam="1">  1       -4 0.82297454E-01 0.12499850E+03</pdfrwt>
<totfact> 0.52731864E+03</totfact>
</mgrwt>
</event>
<event>
 5    1  0.3199195E-002  0.1250005E+03  0.7818608E-02  0.1235069E+00
          4   -1    0    0  501    0  0.00000000000E+00  0.00000000000E+00  0.84301859159E+02  0.84311424835E+02  0.12700000000E+01 0.  1.
         -4   -1    0    0    0  501 -0.00000000000E+00 -0.00000000000E+00 -0.46315904999E+02  0.46333313672E+02  0.12700000000E+01 0.  1.
         25    2    1    2    0    0  0.00000000000E+00  0.00000000000E+00  0.37985954160E+02  0.13064473851E+03  0.12500045994E+03 0.  0.
    9000005    1    3    3    0    0 -0.25210119576E+02  0.57093679332E+02  0.22304713576E+02  0.66285281899E+02  0.10000000000E+01 0.  0.
    9000005    1    3    3    0    0  0.25210119576E+02 -0.57093679332E+02  0.15681240584E+02  0.64359456609E+02  0.10000000000E+01 0.  0.
<mgrwt>
<rscale>  0 0.12500046E+03</rscale>
<asrwt>0</asrwt>
<pdfrwt beam="1">  1        4 0.12971592E-01 0.12500046E+03</pdfrwt>
<pdfrwt beam="2">  1       -4 0.71275988E-02 0.12500046E+03</pdfrwt>
<totfact> 0.10330604E+04</totfact>
</mgrwt>
</event>
<event>
 5    1  0.3199195E-002  0.1249990E+03  0.7818608E-02  0.1235071E+00
         -4   -1    0    0    0  501 -0.00000000000E+00  0.00000000000E+00  0.45716739562E+02  0.45734376307E+02  0.12700000000E+01 0.  1.
          4   -1    0    0  501    0  0.00000000000E+00 -0.00000000000E+00 -0.85404367336E+02  0.85413809539E+02  0.12700000000E+01 0.  1.
         25    2    1    2    0    0  0.00000000000E+00  0.00000000000E+00 -0.39687627774E+02  0.13114818585E+03  0.12499895540E+03 0.  0.
    9000005    1    3    3    0    0  0.53169691483E+02 -0.27449171408E+02 -0.93758932396E+00  0.59852754132E+02  0.10000000000E+01 0.  0.
    9000005    1    3    3    0    0 -0.53169691483E+02  0.27449171408E+02 -0.38750038450E+02  0.71295431714E+02  0.10000000000E+01 0.  0.
<mgrwt>
<rscale>  0 0.12499896E+03</rscale>
<asrwt>0</asrwt>
<pdfrwt beam="2">  1        4 0.13141216E-01 0.12499896E+03</pdfrwt>
<pdfrwt beam="1">  1       -4 0.70354276E-02 0.12499896E+03</pdfrwt>
<totfact> 0.10320157E+04</totfact>
</mgrwt>
</event>
<event>
 5    1  0.3199195E-002  0.1250054E+03  0.7818608E-02  0.1235061E+00
          4   -1    0    0  501    0  0.00000000000E+00  0.00000000000E+00  0.51496098788E+02  0.51511756817E+02  0.12700000000E+01 0.  1.
         -4   -1    0    0    0  501 -0.00000000000E+00 -0.00000000000E+00 -0.75829359451E+02  0.75839993768E+02  0.12700000000E+01 0.  1.
         25    2    1    2    0    0  0.00000000000E+00  0.00000000000E+00 -0.24333260663E+02  0.12735175059E+03  0.12500544309E+03 0.  0.
    9000005    1    3    3    0    0  0.58891472170E+02  0.77843215949E+00 -0.33458154202E+02  0.67744073789E+02  0.10000000000E+01 0.  0.
    9000005    1    3    3    0    0 -0.58891472170E+02 -0.77843215949E+00  0.91248935388E+01  0.59607676796E+02  0.10000000000E+01 0.  0.
<mgrwt>
<rscale>  0 0.12500544E+03</rscale>
<asrwt>0</asrwt>
<pdfrwt beam="1">  1        4 0.79244993E-02 0.12500544E+03</pdfrwt>
<pdfrwt beam="2">  1       -4 0.11668078E-01 0.12500544E+03</pdfrwt>
<totfact> 0.10400235E+04</totfact>
</mgrwt>
</event>
<event>
 5    1  0.3199195E-002  0.1249999E+03  0.7818608E-02  0.1235069E+00
         -4   -1    0    0    0  501 -0.00000000000E+00  0.00000000000E+00  0.12922114576E+04  0.12922120817E+04  0.12700000000E+01 0. -1.
          4   -1    0    0  501    0  0.00000000000E+00 -0.00000000000E+00 -0.28888743007E+01  0.31557082763E+01  0.12700000000E+01 0. -1.
         25    2    1    2    0    0  0.00000000000E+00  0.00000000000E+00  0.12893225833E+04  0.12953677899E+04  0.12499994985E+03 0.  0.
    9000005    1    3    3    0    0 -0.60525008170E+02 -0.12294418765E+02  0.54590424994E+03  0.54938773144E+03  0.10000000000E+01 0.  0.
    9000005    1    3    3    0    0  0.60525008170E+02  0.12294418765E+02  0.74341833334E+03  0.74598005851E+03  0.10000000000E+01 0.  0.
<mgrwt>
<rscale>  0 0.12499995E+03</rscale>
<asrwt>0</asrwt>
<pdfrwt beam="2">  1        4 0.46501639E-03 0.12499995E+03</pdfrwt>
<pdfrwt beam="1">  1       -4 0.19882213E+00 0.12499995E+03</pdfrwt>
<totfact> 0.22338163E+03</totfact>
</mgrwt>
</event>
<event>
 5    1  0.3199195E-002  0.1249999E+03  0.7818608E-02  0.1235069E+00
         -4   -1    0    0    0  501 -0.00000000000E+00  0.00000000000E+00  0.50669360550E+02  0.50685273982E+02  0.12700000000E+01 0. -1.
          4   -1    0    0  501    0  0.00000000000E+00 -0.00000000000E+00 -0.77059543200E+02  0.77070007773E+02  0.12700000000E+01 0. -1.
         25    2    1    2    0    0  0.00000000000E+00  0.00000000000E+00 -0.26390182649E+02  0.12775528175E+03  0.12499988110E+03 0.  0.
    9000005    1    3    3    0    0  0.13006216283E+02  0.60877561594E+02 -0.18793369955E+02  0.65034067395E+02  0.10000000000E+01 0.  0.
    9000005    1    3    3    0    0 -0.13006216283E+02 -0.60877561594E+02 -0.75968126944E+01  0.62721214360E+02  0.10000000000E+01 0.  0.
<mgrwt>
<rscale>  0 0.12499988E+03</rscale>
<asrwt>0</asrwt>
<pdfrwt beam="2">  1        4 0.11857343E-01 0.12499988E+03</pdfrwt>
<pdfrwt beam="1">  1       -4 0.77973153E-02 0.12499988E+03</pdfrwt>
<totfact> 0.10392804E+04</totfact>
</mgrwt>
</event>
<event>
 5    1  0.3199195E-002  0.1250027E+03  0.7818608E-02  0.1235065E+00
         -4   -1    0    0    0  501 -0.00000000000E+00  0.00000000000E+00  0.83171460217E+02  0.83181155887E+02  0.12700000000E+01 0. -1.
          4   -1    0    0  501    0  0.00000000000E+00 -0.00000000000E+00 -0.46947255780E+02  0.46964430426E+02  0.12700000000E+01 0. -1.
         25    2    1    2    0    0  0.00000000000E+00  0.00000000000E+00  0.36224204437E+02  0.13014558631E+03  0.12500272257E+03 0.  0.
    9000005    1    3    3    0    0  0.16335951471E+02  0.54666237858E+02 -0.84351672745E+01  0.57683731840E+02  0.10000000000E+01 0.  0.
    9000005    1    3    3    0    0 -0.16335951471E+02 -0.54666237858E+02  0.44659371712E+02  0.72461854473E+02  0.10000000000E+01 0.  0.
<mgrwt>
<rscale>  0 0.12500272E+03</rscale>
<asrwt>0</asrwt>
<pdfrwt beam="2">  1        4 0.72247218E-02 0.12500272E+03</pdfrwt>
<pdfrwt beam="1">  1       -4 0.12797676E-01 0.12500272E+03</pdfrwt>
<totfact> 0.10340759E+04</totfact>
</mgrwt>
</event>
<event>
 5    1  0.3199195E-002  0.1250035E+03  0.7818608E-02  0.1235064E+00
          4   -1    0    0  501    0  0.00000000000E+00  0.00000000000E+00  0.17888748531E+02  0.17933773279E+02  0.12700000000E+01 0.  1.
         -4   -1    0    0    0  501 -0.00000000000E+00 -0.00000000000E+00 -0.21805449886E+03  0.21805819722E+03  0.12700000000E+01 0.  1.
         25    2    1    2    0    0  0.00000000000E+00  0.00000000000E+00 -0.20016575033E+03  0.23599197049E+03  0.12500353008E+03 0.  0.
    9000005    1    3    3    0    0  0.38275850332E+02  0.23302447920E+02 -0.17847750746E+02  0.48245072333E+02  0.10000000000E+01 0.  0.
    9000005    1    3    3    0    0 -0.38275850332E+02 -0.23302447920E+02 -0.18231799958E+03  0.18774689816E+03  0.10000000000E+01 0.  0.
<mgrwt>
<rscale>  0 0.12500353E+03</rscale>
<asrwt>0</asrwt>
<pdfrwt beam="1">  1        4 0.27558632E-02 0.12500353E+03</pdfrwt>
<pdfrwt beam="2">  1       -4 0.33550592E-01 0.12500353E+03</pdfrwt>
<totfact> 0.84391293E+03</totfact>
</mgrwt>
</event>
<event>
 5    1  0.3199195E-002  0.1249995E+03  0.7818608E-02  0.1235070E+00
         -4   -1    0    0    0  501 -0.00000000000E+00  0.00000000000E+00  0.44263697022E+02  0.44281912493E+02  0.12700000000E+01 0. -1.
          4   -1    0    0  501    0  0.00000000000E+00 -0.00000000000E+00 -0.88207852486E+02  0.88216994622E+02  0.12700000000E+01 0. -1.
         25    2    1    2    0    0  0.00000000000E+00  0.00000000000E+00 -0.43944155464E+02  0.13249890712E+03  0.12499948635E+03 0.  0.
    9000005    1    3    3    0    0 -0.33023929235E+02 -0.22189195801E+02 -0.73053282632E+02  0.83190879402E+02  0.10000000000E+01 0.  0.
    9000005    1    3    3    0    0  0.33023929235E+02  0.22189195801E+02  0.29109127168E+02  0.49308027713E+02  0.10000000000E+01 0.  0.
<mgrwt>
<rscale>  0 0.12499949E+03</rscale>
<asrwt>0</asrwt>
<pdfrwt beam="2">  1        4 0.13572543E-01 0.12499949E+03</pdfrwt>
<pdfrwt beam="1">  1       -4 0.68119040E-02 0.12499949E+03</pdfrwt>
<totfact> 0.10291180E+04</totfact>
</mgrwt>
</event>
<event>
 5    1  0.3199195E-002  0.1249931E+03  0.7818608E-02  0.1235080E+00
          4   -1    0    0  501    0  0.00000000000E+00  0.00000000000E+00  0.23885380850E+03  0.23885718481E+03  0.12700000000E+01 0. -1.
         -4   -1    0    0    0  501 -0.00000000000E+00 -0.00000000000E+00 -0.16324191163E+02  0.16373518777E+02  0.12700000000E+01 0. -1.
         25    2    1    2    0    0  0.00000000000E+00  0.00000000000E+00  0.22252961734E+03  0.25523070359E+03  0.12499312566E+03 0.  0.
    9000005    1    3    3    0    0  0.52935609122E+02 -0.14959098854E+02  0.50729554324E+02  0.74836094457E+02  0.10000000000E+01 0.  0.
    9000005    1    3    3    0    0 -0.52935609122E+02  0.14959098854E+02  0.17180006301E+03  0.18039460913E+03  0.10000000000E+01 0.  0.
<mgrwt>
<rscale>  0 0.12499313E+03</rscale>
<asrwt>0</asrwt>
<pdfrwt beam="1">  1        4 0.36750790E-01 0.12499313E+03</pdfrwt>
<pdfrwt beam="2">  1       -4 0.25154684E-02 0.12499313E+03</pdfrwt>
<totfact> 0.81592549E+03</totfact>
</mgrwt>
</event>
<event>
 5    1  0.3199195E-002  0.1249937E+03  0.7818608E-02  0.1235079E+00
          4   -1    0    0  501    0  0.00000000000E+00  0.00000000000E+00  0.21199440002E+04  0.21199443806E+04  0.12700000000E+01 0.  1.
         -4   -1    0    0    0  501 -0.00000000000E+00 -0.00000000000E+00 -0.16231537759E+01  0.20609532213E+01  0.12700000000E+01 0.  1.
         25    2    1    2    0    0  0.00000000000E+00  0.00000000000E+00  0.21183208465E+04  0.21220053339E+04  0.12499371351E+03 0.  0.
    9000005    1    3    3    0    0 -0.14422985136E+02  0.47352895127E+02  0.17066321746E+04  0.17073501979E+04  0.10000000000E+01 0.  0.
    9000005    1    3    3    0    0  0.14422985136E+02 -0.47352895127E+02  0.41168867189E+03  0.41465513591E+03  0.10000000000E+01 0.  0.
<mgrwt>
<rscale>  0 0.12499371E+03</rscale>
<asrwt>0</asrwt>
<pdfrwt beam="1">  1        4 0.32618085E+00 0.12499371E+03</pdfrwt>
<pdfrwt beam="2">  1       -4 0.28342045E-03 0.12499371E+03</pdfrwt>
<totfact> 0.83526906E+02</totfact>
</mgrwt>
</event>
<event>
 5    1  0.3199195E-002  0.1249958E+03  0.7818608E-02  0.1235076E+00
          4   -1    0    0  501    0  0.00000000000E+00  0.00000000000E+00  0.24097666571E+02  0.24131109261E+02  0.12700000000E+01 0.  1.
         -4   -1    0    0    0  501 -0.00000000000E+00 -0.00000000000E+00 -0.16194149410E+03  0.16194647391E+03  0.12700000000E+01 0.  1.
         25    2    1    2    0    0  0.00000000000E+00  0.00000000000E+00 -0.13784382753E+03  0.18607758317E+03  0.12499578461E+03 0.  0.
    9000005    1    3    3    0    0 -0.48552278406E+02  0.24759484751E+02 -0.23410668863E+02  0.59324659630E+02  0.10000000000E+01 0.  0.
    9000005    1    3    3    0    0  0.48552278406E+02 -0.24759484751E+02 -0.11443315867E+03  0.12675292354E+03  0.10000000000E+01 0.  0.
<mgrwt>
<rscale>  0 0.12499578E+03</rscale>
<asrwt>0</asrwt>
<pdfrwt beam="1">  1        4 0.37102890E-02 0.12499578E+03</pdfrwt>
<pdfrwt beam="2">  1       -4 0.24917031E-01 0.12499578E+03</pdfrwt>
<totfact> 0.92543058E+03</totfact>
</mgrwt>
</event>
<event>
 5    1  0.3199195E-002  0.1249934E+03  0.7818608E-02  0.1235080E+00
          4   -1    0    0  501    0  0.00000000000E+00  0.00000000000E+00  0.53499541344E+02  0.53514613182E+02  0.12700000000E+01 0.  1.
         -4   -1    0    0    0  501 -0.00000000000E+00 -0.00000000000E+00 -0.72976026052E+02  0.72987076105E+02  0.12700000000E+01 0.  1.
         25    2    1    2    0    0  0.00000000000E+00  0.00000000000E+00 -0.19476484708E+02  0.12650168929E+03  0.12499337557E+03 0.  0.
    9000005    1    3    3    0    0 -0.52100571916E+02 -0.10976433274E+02 -0.42842033709E+02  0.68347578843E+02  0.10000000000E+01 0.  0.
    9000005    1    3    3    0    0  0.52100571916E+02  0.10976433274E+02  0.23365549000E+02  0.58154110444E+02  0.10000000000E+01 0.  0.
<mgrwt>
<rscale>  0 0.12499338E+03</rscale>
<asrwt>0</asrwt>
<pdfrwt beam="1">  1        4 0.82327080E-02 0.12499338E+03</pdfrwt>
<pdfrwt beam="2">  1       -4 0.11229090E-01 0.12499338E+03</pdfrwt>
<totfact> 0.10421549E+04</totfact>
</mgrwt>
</event>
<event>
 5    1  0.3199195E-002  0.1250009E+03  0.7818608E-02  0.1235068E+00
         -4   -1    0    0    0  501 -0.00000000000E+00  0.00000000000E+00  0.83011855303E+01  0.83977723956E+01  0.12700000000E+01 0.  1.
          4   -1    0    0  501    0  0.00000000000E+00 -0.00000000000E+00 -0.46775311999E+03  0.46775484408E+03  0.12700000000E+01 0.  1.
         25    2    1    2    0    0  0.00000000000E+00  0.00000000000E+00 -0.45945193446E+03  0.47615261648E+03  0.12500093639E+03 0.  0.
    9000005    1    3    3    0    0 -0.12272999886E+01  0.57598725193E+02 -0.32195162976E+03  0.32706722751E+03  0.10000000000E+01 0.  0.
    9000005    1    3    3    0    0  0.12272999886E+01 -0.57598725193E+02 -0.13750030471E+03  0.14908538897E+03  0.10000000000E+01 0.  0.
<mgrwt>
<rscale>  0 0.12500094E+03</rscale>
<asrwt>0</asrwt>
<pdfrwt beam="2">  1        4 0.71969560E-01 0.12500094E+03</pdfrwt>
<pdfrwt beam="1">  1       -4 0.12846682E-02 0.12500094E+03</pdfrwt>
<totfact> 0.57762115E+03</totfact>
</mgrwt>
</event>
<event>
 5    1  0.3199195E-002  0.1249998E+03  0.7818608E-02  0.1235070E+00
         -4   -1    0    0    0  501 -0.00000000000E+00  0.00000000000E+00  0.13434337807E+02  0.13494233298E+02  0.12700000000E+01 0.  1.
          4   -1    0    0  501    0  0.00000000000E+00 -0.00000000000E+00 -0.29005705307E+03  0.29005983338E+03  0.12700000000E+01 0.  1.
         25    2    1    2    0    0  0.00000000000E+00  0.00000000000E+00 -0.27662271527E+03  0.30355406667E+03  0.12499977917E+03 0.  0.
    9000005    1    3    3    0    0 -0.23389867491E+02 -0.27581600947E+02 -0.14546685758E+02  0.38992777262E+02  0.10000000000E+01 0.  0.
    9000005    1    3    3    0    0  0.23389867491E+02  0.27581600947E+02 -0.26207602951E+03  0.26456128941E+03  0.10000000000E+01 0.  0.
<mgrwt>
<rscale>  0 0.12499978E+03</rscale>
<asrwt>0</asrwt>
<pdfrwt beam="2">  1        4 0.44628978E-01 0.12499978E+03</pdfrwt>
<pdfrwt beam="1">  1       -4 0.20716426E-02 0.12499978E+03</pdfrwt>
<totfact> 0.75155545E+03</totfact>
</mgrwt>
</event>
<event>
 5    1  0.3199195E-002  0.1250009E+03  0.7818608E-02  0.1235068E+00
         -4   -1    0    0    0  501 -0.00000000000E+00  0.00000000000E+00  0.40326692912E+02  0.40346685876E+02  0.12700000000E+01 0.  1.
          4   -1    0    0  501    0  0.00000000000E+00 -0.00000000000E+00 -0.96818334259E+02  0.96826663418E+02  0.12700000000E+01 0.  1.
         25    2    1    2    0    0  0.00000000000E+00  0.00000000000E+00 -0.56491641347E+02  0.13717334929E+03  0.12500088886E+03 0.  0.
    9000005    1    3    3    0    0 -0.47266121442E+02  0.38049915386E+02 -0.44648727967E+02  0.75341829061E+02  0.10000000000E+01 0.  0.
    9000005    1    3    3    0    0  0.47266121442E+02 -0.38049915386E+02 -0.11842913380E+02  0.61831520234E+02  0.10000000000E+01 0.  0.
<mgrwt>
<rscale>  0 0.12500089E+03</rscale>
<asrwt>0</asrwt>
<pdfrwt beam="2">  1        4 0.14897307E-01 0.12500089E+03</pdfrwt>
<pdfrwt beam="1">  1       -4 0.62062853E-02 0.12500089E+03</pdfrwt>
<totfact> 0.10192258E+04</totfact>
</mgrwt>
</event>
<event>
 5    1  0.3199195E-002  0.1250014E+03  0.7818608E-02  0.1235067E+00
         -4   -1    0    0    0  501 -0.00000000000E+00  0.00000000000E+00  0.75199248370E+02  0.75209971781E+02  0.12700000000E+01 0.  1.
          4   -1    0    0  501    0  0.00000000000E+00 -0.00000000000E+00 -0.51924274297E+02  0.51939803246E+02  0.12700000000E+01 0.  1.
         25    2    1    2    0    0  0.00000000000E+00  0.00000000000E+00  0.23274974073E+02  0.12714977503E+03  0.12500136348E+03 0.  0.
    9000005    1    3    3    0    0 -0.50884603042E+02  0.13241356055E+02 -0.22718131753E+02  0.57286035360E+02  0.10000000000E+01 0.  0.
    9000005    1    3    3    0    0  0.50884603042E+02 -0.13241356055E+02  0.45993105826E+02  0.69863739668E+02  0.10000000000E+01 0.  0.
<mgrwt>
<rscale>  0 0.12500136E+03</rscale>
<asrwt>0</asrwt>
<pdfrwt beam="2">  1        4 0.79903694E-02 0.12500136E+03</pdfrwt>
<pdfrwt beam="1">  1       -4 0.11571134E-01 0.12500136E+03</pdfrwt>
<totfact> 0.10405573E+04</totfact>
</mgrwt>
</event>
<event>
 5    1  0.3199195E-002  0.1249989E+03  0.7818608E-02  0.1235071E+00
         -4   -1    0    0    0  501 -0.00000000000E+00  0.00000000000E+00  0.24987001407E+03  0.24987324152E+03  0.12700000000E+01 0. -1.
          4   -1    0    0  501    0  0.00000000000E+00 -0.00000000000E+00 -0.15603716008E+02  0.15655313899E+02  0.12700000000E+01 0. -1.
         25    2    1    2    0    0  0.00000000000E+00  0.00000000000E+00  0.23426629806E+03  0.26552855542E+03  0.12499886135E+03 0.  0.
    9000005    1    3    3    0    0 -0.64411870562E+01 -0.60014806123E+02  0.82754904603E+02  0.10243358863E+03  0.10000000000E+01 0.  0.
    9000005    1    3    3    0    0  0.64411870562E+01  0.60014806123E+02  0.15151139345E+03  0.16309496679E+03  0.10000000000E+01 0.  0.
<mgrwt>
<rscale>  0 0.12499886E+03</rscale>
<asrwt>0</asrwt>
<pdfrwt beam="2">  1        4 0.24047893E-02 0.12499886E+03</pdfrwt>
<pdfrwt beam="1">  1       -4 0.38445754E-01 0.12499886E+03</pdfrwt>
<totfact> 0.80138445E+03</totfact>
</mgrwt>
</event>
<event>
 5    1  0.3199195E-002  0.1249963E+03  0.7818608E-02  0.1235075E+00
         -4   -1    0    0    0  501 -0.00000000000E+00  0.00000000000E+00  0.26068361401E+02  0.26099279035E+02  0.12700000000E+01 0. -1.
          4   -1    0    0  501    0  0.00000000000E+00 -0.00000000000E+00 -0.14971500249E+03  0.14972038896E+03  0.12700000000E+01 0. -1.
         25    2    1    2    0    0  0.00000000000E+00  0.00000000000E+00 -0.12364664109E+03  0.17581966800E+03  0.12499625515E+03 0.  0.
    9000005    1    3    3    0    0  0.44257602074E+02 -0.20477881502E+02 -0.11678765962E+03  0.12656396174E+03  0.10000000000E+01 0.  0.
    9000005    1    3    3    0    0 -0.44257602074E+02  0.20477881502E+02 -0.68589814709E+01  0.49255706257E+02  0.10000000000E+01 0.  0.
<mgrwt>
<rscale>  0 0.12499626E+03</rscale>
<asrwt>0</asrwt>
<pdfrwt beam="2">  1        4 0.23035869E-01 0.12499626E+03</pdfrwt>
<pdfrwt beam="1">  1       -4 0.40133098E-02 0.12499626E+03</pdfrwt>
<totfact> 0.94382863E+03</totfact>
</mgrwt>
</event>
<event>
 5    1  0.3199195E-002  0.1250019E+03  0.7818608E-02  0.1235066E+00
          4   -1    0    0  501    0  0.00000000000E+00  0.00000000000E+00  0.66315669330E+01  0.67520796787E+01  0.12700000000E+01 0. -1.
         -4   -1    0    0    0  501 -0.00000000000E+00 -0.00000000000E+00 -0.58363160732E+03  0.58363298909E+03  0.12700000000E+01 0. -1.
         25    2    1    2    0    0  0.00000000000E+00  0.00000000000E+00 -0.57700004038E+03  0.59038506877E+03  0.12500193129E+03 0.  0.
    9000005    1    3    3    0    0 -0.31214811806E+02  0.24719966893E+01 -0.33068894800E+02  0.45552464775E+02  0.10000000000E+01 0.  0.
    9000005    1    3    3    0    0  0.31214811806E+02 -0.24719966893E+01 -0.54393114558E+03  0.54483260400E+03  0.10000000000E+01 0.  0.
<mgrwt>
<rscale>  0 0.12500193E+03</rscale>
<asrwt>0</asrwt>
<pdfrwt beam="1">  1        4 0.10296180E-02 0.12500193E+03</pdfrwt>
<pdfrwt beam="2">  1       -4 0.89798814E-01 0.12500193E+03</pdfrwt>
<totfact> 0.49478132E+03</totfact>
</mgrwt>
</event>
<event>
 5    1  0.3199195E-002  0.1249813E+03  0.7818608E-02  0.1235099E+00
         -4   -1    0    0    0  501 -0.00000000000E+00  0.00000000000E+00  0.56406934685E+03  0.56407077655E+03  0.12700000000E+01 0. -1.
          4   -1    0    0  501    0  0.00000000000E+00 -0.00000000000E+00 -0.68633574441E+01  0.69798692972E+01  0.12700000000E+01 0. -1.
         25    2    1    2    0    0  0.00000000000E+00  0.00000000000E+00  0.55720598941E+03  0.57105064585E+03  0.12498130056E+03 0.  0.
    9000005    1    3    3    0    0 -0.54445154689E+02 -0.28101986902E+02  0.33457849638E+03  0.34014374428E+03  0.10000000000E+01 0.  0.
    9000005    1    3    3    0    0  0.54445154689E+02  0.28101986902E+02  0.22262749303E+03  0.23090690156E+03  0.10000000000E+01 0.  0.
<mgrwt>
<rscale>  0 0.12498130E+03</rscale>
<asrwt>0</asrwt>
<pdfrwt beam="2">  1        4 0.10649731E-02 0.12498130E+03</pdfrwt>
<pdfrwt beam="1">  1       -4 0.86789010E-01 0.12498130E+03</pdfrwt>
<totfact> 0.50768308E+03</totfact>
</mgrwt>
</event>
<event>
 5    1  0.3199195E-002  0.1249980E+03  0.7818608E-02  0.1235072E+00
          4   -1    0    0  501    0  0.00000000000E+00  0.00000000000E+00  0.36317245021E+02  0.36339443940E+02  0.12700000000E+01 0.  1.
         -4   -1    0    0    0  501 -0.00000000000E+00 -0.00000000000E+00 -0.10749677185E+03  0.10750427367E+03  0.12700000000E+01 0.  1.
         25    2    1    2    0    0  0.00000000000E+00  0.00000000000E+00 -0.71179526825E+02  0.14384371761E+03  0.12499796021E+03 0.  0.
    9000005    1    3    3    0    0  0.19062632159E+02  0.44401933493E+01 -0.10388400432E+03  0.10571653426E+03  0.10000000000E+01 0.  0.
    9000005    1    3    3    0    0 -0.19062632159E+02 -0.44401933493E+01  0.32704477498E+02  0.38127183350E+02  0.10000000000E+01 0.  0.
<mgrwt>
<rscale>  0 0.12499796E+03</rscale>
<asrwt>0</asrwt>
<pdfrwt beam="1">  1        4 0.55895532E-02 0.12499796E+03</pdfrwt>
<pdfrwt beam="2">  1       -4 0.16540249E-01 0.12499796E+03</pdfrwt>
<totfact> 0.10054996E+04</totfact>
</mgrwt>
</event>
<event>
 5    1  0.3199195E-002  0.1249950E+03  0.7818608E-02  0.1235077E+00
         -4   -1    0    0    0  501 -0.00000000000E+00  0.00000000000E+00  0.14649482108E+03  0.14650032595E+03  0.12700000000E+01 0. -1.
          4   -1    0    0  501    0  0.00000000000E+00 -0.00000000000E+00 -0.26641513082E+02  0.26671766332E+02  0.12700000000E+01 0. -1.
         25    2    1    2    0    0  0.00000000000E+00  0.00000000000E+00  0.11985330800E+03  0.17317209228E+03  0.12499503233E+03 0.  0.
    9000005    1    3    3    0    0  0.32500579035E+02 -0.71682911258E+01  0.13320103360E+03  0.13729962632E+03  0.10000000000E+01 0.  0.
    9000005    1    3    3    0    0 -0.32500579035E+02  0.71682911258E+01 -0.13347725604E+02  0.35872465960E+02  0.10000000000E+01 0.  0.
<mgrwt>
<rscale>  0 0.12499503E+03</rscale>
<asrwt>0</asrwt>
<pdfrwt beam="2">  1        4 0.41014448E-02 0.12499503E+03</pdfrwt>
<pdfrwt beam="1">  1       -4 0.22540416E-01 0.12499503E+03</pdfrwt>
<totfact> 0.94871261E+03</totfact>
</mgrwt>
</event>
<event>
 5    1  0.3199195E-002  0.1249854E+03  0.7818608E-02  0.1235092E+00
          4   -1    0    0  501    0  0.00000000000E+00  0.00000000000E+00  0.10558501891E+04  0.10558509528E+04  0.12700000000E+01 0. -1.
         -4   -1    0    0    0  501 -0.00000000000E+00 -0.00000000000E+00 -0.35889546517E+01  0.38070323734E+01  0.12700000000E+01 0. -1.
         25    2    1    2    0    0  0.00000000000E+00  0.00000000000E+00  0.10522612344E+04  0.10596579852E+04  0.12498535999E+03 0.  0.
    9000005    1    3    3    0    0 -0.33092261646E+02 -0.46317774201E+02  0.74458373759E+03  0.74675724052E+03  0.10000000000E+01 0.  0.
    9000005    1    3    3    0    0  0.33092261646E+02  0.46317774201E+02  0.30767749681E+03  0.31290074470E+03  0.10000000000E+01 0.  0.
<mgrwt>
<rscale>  0 0.12498536E+03</rscale>
<asrwt>0</asrwt>
<pdfrwt beam="1">  1        4 0.16245541E+00 0.12498536E+03</pdfrwt>
<pdfrwt beam="2">  1       -4 0.56898053E-03 0.12498536E+03</pdfrwt>
<totfact> 0.28704262E+03</totfact>
</mgrwt>
</event>
<event>
 5    1  0.3199195E-002  0.1250021E+03  0.7818608E-02  0.1235066E+00
          4   -1    0    0  501    0  0.00000000000E+00  0.00000000000E+00  0.20929939226E+03  0.20930324532E+03  0.12700000000E+01 0. -1.
         -4   -1    0    0    0  501 -0.00000000000E+00 -0.00000000000E+00 -0.18638452753E+02  0.18681670724E+02  0.12700000000E+01 0. -1.
         25    2    1    2    0    0  0.00000000000E+00  0.00000000000E+00  0.19066093951E+03  0.22798491604E+03  0.12500211234E+03 0.  0.
    9000005    1    3    3    0    0  0.15238761372E+02 -0.57317141740E+02  0.13125183341E+03  0.14403304606E+03  0.10000000000E+01 0.  0.
    9000005    1    3    3    0    0 -0.15238761372E+02  0.57317141740E+02  0.59409106100E+02  0.83951869979E+02  0.10000000000E+01 0.  0.
<mgrwt>
<rscale>  0 0.12500211E+03</rscale>
<asrwt>0</asrwt>
<pdfrwt beam="1">  1        4 0.32203526E-01 0.12500211E+03</pdfrwt>
<pdfrwt beam="2">  1       -4 0.28710752E-02 0.12500211E+03</pdfrwt>
<totfact> 0.85615943E+03</totfact>
</mgrwt>
</event>
<event>
 5    1  0.3199195E-002  0.1249941E+03  0.7818608E-02  0.1235078E+00
         -4   -1    0    0    0  501 -0.00000000000E+00  0.00000000000E+00  0.47298712071E+02  0.47315759146E+02  0.12700000000E+01 0. -1.
          4   -1    0    0  501    0  0.00000000000E+00 -0.00000000000E+00 -0.82542222865E+02  0.82551992438E+02  0.12700000000E+01 0. -1.
         25    2    1    2    0    0  0.00000000000E+00  0.00000000000E+00 -0.35243510795E+02  0.12986775158E+03  0.12499411126E+03 0.  0.
    9000005    1    3    3    0    0  0.34844108056E+01  0.38452725769E+02  0.33427801923E+02  0.51080046781E+02  0.10000000000E+01 0.  0.
    9000005    1    3    3    0    0 -0.34844108056E+01 -0.38452725769E+02 -0.68671312718E+02  0.78787704803E+02  0.10000000000E+01 0.  0.
<mgrwt>
<rscale>  0 0.12499411E+03</rscale>
<asrwt>0</asrwt>
<pdfrwt beam="2">  1        4 0.12700866E-01 0.12499411E+03</pdfrwt>
<pdfrwt beam="1">  1       -4 0.72787877E-02 0.12499411E+03</pdfrwt>
<totfact> 0.10348713E+04</totfact>
</mgrwt>
</event>
<event>
 5    1  0.3199195E-002  0.1249989E+03  0.7818608E-02  0.1235071E+00
         -4   -1    0    0    0  501 -0.00000000000E+00  0.00000000000E+00  0.68059747592E+03  0.68059866084E+03  0.12700000000E+01 0.  1.
          4   -1    0    0  501    0  0.00000000000E+00 -0.00000000000E+00 -0.56678829819E+01  0.58084247001E+01  0.12700000000E+01 0.  1.
         25    2    1    2    0    0  0.00000000000E+00  0.00000000000E+00  0.67492959294E+03  0.68640708554E+03  0.12499892659E+03 0.  0.
    9000005    1    3    3    0    0  0.45632610629E+02  0.42164820671E+02  0.37429161753E+03  0.37941457828E+03  0.10000000000E+01 0.  0.
    9000005    1    3    3    0    0 -0.45632610629E+02 -0.42164820671E+02  0.30063797541E+03  0.30699250726E+03  0.10000000000E+01 0.  0.
<mgrwt>
<rscale>  0 0.12499893E+03</rscale>
<asrwt>0</asrwt>
<pdfrwt beam="2">  1        4 0.88288429E-03 0.12499893E+03</pdfrwt>
<pdfrwt beam="1">  1       -4 0.10471818E+00 0.12499893E+03</pdfrwt>
<totfact> 0.43815062E+03</totfact>
</mgrwt>
</event>
<event>
 5    1  0.3199195E-002  0.1250033E+03  0.7818608E-02  0.1235064E+00
          4   -1    0    0  501    0  0.00000000000E+00  0.00000000000E+00  0.12165463721E+02  0.12231574205E+02  0.12700000000E+01 0.  1.
         -4   -1    0    0    0  501 -0.00000000000E+00 -0.00000000000E+00 -0.32017283646E+03  0.32017535525E+03  0.12700000000E+01 0.  1.
         25    2    1    2    0    0  0.00000000000E+00  0.00000000000E+00 -0.30800737274E+03  0.33240692946E+03  0.12500330030E+03 0.  0.
    9000005    1    3    3    0    0  0.49475439555E+02 -0.28657831720E+02 -0.22108507071E+03  0.22836089624E+03  0.10000000000E+01 0.  0.
    9000005    1    3    3    0    0 -0.49475439555E+02  0.28657831720E+02 -0.86922302030E+02  0.10404603322E+03  0.10000000000E+01 0.  0.
<mgrwt>
<rscale>  0 0.12500330E+03</rscale>
<asrwt>0</asrwt>
<pdfrwt beam="1">  1        4 0.18768892E-02 0.12500330E+03</pdfrwt>
<pdfrwt beam="2">  1       -4 0.49262632E-01 0.12500330E+03</pdfrwt>
<totfact> 0.71699146E+03</totfact>
</mgrwt>
</event>
<event>
 5    1  0.3199195E-002  0.1249999E+03  0.7818608E-02  0.1235069E+00
          4   -1    0    0  501    0  0.00000000000E+00  0.00000000000E+00  0.32551070429E+03  0.32551318177E+03  0.12700000000E+01 0. -1.
         -4   -1    0    0    0  501 -0.00000000000E+00 -0.00000000000E+00 -0.11964215268E+02  0.12031431626E+02  0.12700000000E+01 0. -1.
         25    2    1    2    0    0  0.00000000000E+00  0.00000000000E+00  0.31354648902E+03  0.33754461340E+03  0.12499986103E+03 0.  0.
    9000005    1    3    3    0    0 -0.19923601000E+02 -0.12116793550E+02  0.31333532305E+03  0.31420342333E+03  0.10000000000E+01 0.  0.
    9000005    1    3    3    0    0  0.19923601000E+02  0.12116793550E+02  0.21116597406E+00  0.23341190069E+02  0.10000000000E+01 0.  0.
<mgrwt>
<rscale>  0 0.12499986E+03</rscale>
<asrwt>0</asrwt>
<pdfrwt beam="1">  1        4 0.50083920E-01 0.12499986E+03</pdfrwt>
<pdfrwt beam="2">  1       -4 0.18460100E-02 0.12499986E+03</pdfrwt>
<totfact> 0.71117116E+03</totfact>
</mgrwt>
</event>
<event>
 5    1  0.3199195E-002  0.1249999E+03  0.7818608E-02  0.1235069E+00
         -4   -1    0    0    0  501 -0.00000000000E+00  0.00000000000E+00  0.29312741446E+02  0.29340240474E+02  0.12700000000E+01 0.  1.
          4   -1    0    0  501    0  0.00000000000E+00 -0.00000000000E+00 -0.13316804342E+03  0.13317409916E+03  0.12700000000E+01 0.  1.
         25    2    1    2    0    0  0.00000000000E+00  0.00000000000E+00 -0.10385530197E+03  0.16251433964E+03  0.12499994736E+03 0.  0.
    9000005    1    3    3    0    0  0.20182925951E+02 -0.20809496309E+01  0.24917474606E+02  0.32149049629E+02  0.10000000000E+01 0.  0.
    9000005    1    3    3    0    0 -0.20182925951E+02  0.20809496309E+01 -0.12877277658E+03  0.13036529001E+03  0.10000000000E+01 0.  0.
<mgrwt>
<rscale>  0 0.12499995E+03</rscale>
<asrwt>0</asrwt>
<pdfrwt beam="2">  1        4 0.20489972E-01 0.12499995E+03</pdfrwt>
<pdfrwt beam="1">  1       -4 0.45122337E-02 0.12499995E+03</pdfrwt>
<totfact> 0.96860333E+03</totfact>
</mgrwt>
</event>
<event>
 5    1  0.3199195E-002  0.1249973E+03  0.7818608E-02  0.1235073E+00
         -4   -1    0    0    0  501 -0.00000000000E+00  0.00000000000E+00  0.23668958128E+02  0.23703005692E+02  0.12700000000E+01 0. -1.
          4   -1    0    0  501    0  0.00000000000E+00 -0.00000000000E+00 -0.16487462852E+03  0.16487951974E+03  0.12700000000E+01 0. -1.
         25    2    1    2    0    0  0.00000000000E+00  0.00000000000E+00 -0.14120567039E+03  0.18858252543E+03  0.12499731016E+03 0.  0.
    9000005    1    3    3    0    0  0.54785210028E+02 -0.23326834764E+02 -0.99209232793E+02  0.11571098621E+03  0.10000000000E+01 0.  0.
    9000005    1    3    3    0    0 -0.54785210028E+02  0.23326834764E+02 -0.41996437601E+02  0.72871539226E+02  0.10000000000E+01 0.  0.
<mgrwt>
<rscale>  0 0.12499731E+03</rscale>
<asrwt>0</asrwt>
<pdfrwt beam="2">  1        4 0.25368322E-01 0.12499731E+03</pdfrwt>
<pdfrwt beam="1">  1       -4 0.36443736E-02 0.12499731E+03</pdfrwt>
<totfact> 0.92100087E+03</totfact>
</mgrwt>
</event>
<event>
 5    1  0.3199195E-002  0.1250025E+03  0.7818608E-02  0.1235065E+00
         -4   -1    0    0    0  501 -0.00000000000E+00  0.00000000000E+00  0.11476901590E+03  0.11477604241E+03  0.12700000000E+01 0.  1.
          4   -1    0    0  501    0  0.00000000000E+00 -0.00000000000E+00 -0.34017215084E+02  0.34040913943E+02  0.12700000000E+01 0.  1.
         25    2    1    2    0    0  0.00000000000E+00  0.00000000000E+00  0.80751800815E+02  0.14881695635E+03  0.12500253262E+03 0.  0.
    9000005    1    3    3    0    0  0.51233913828E+02 -0.33773498144E+02  0.26297368528E+02  0.66769114825E+02  0.10000000000E+01 0.  0.
    9000005    1    3    3    0    0 -0.51233913828E+02  0.33773498144E+02  0.54454432287E+02  0.82047841524E+02  0.10000000000E+01 0.  0.
<mgrwt>
<rscale>  0 0.12500253E+03</rscale>
<asrwt>0</asrwt>
<pdfrwt beam="2">  1        4 0.52357812E-02 0.12500253E+03</pdfrwt>
<pdfrwt beam="1">  1       -4 0.17659135E-01 0.12500253E+03</pdfrwt>
<totfact> 0.99534370E+03</totfact>
</mgrwt>
</event>
<event>
 5    1  0.3199195E-002  0.1250142E+03  0.7818608E-02  0.1235047E+00
          4   -1    0    0  501    0  0.00000000000E+00  0.00000000000E+00  0.48512966581E+03  0.48513132815E+03  0.12700000000E+01 0.  1.
         -4   -1    0    0    0  501 -0.00000000000E+00 -0.00000000000E+00 -0.80020489784E+01  0.81022026544E+01  0.12700000000E+01 0.  1.
         25    2    1    2    0    0  0.00000000000E+00  0.00000000000E+00  0.47712761683E+03  0.49323353080E+03  0.12501421184E+03 0.  0.
    9000005    1    3    3    0    0 -0.40483340515E+02  0.42149144591E+02  0.15116701468E+03  0.16207380287E+03  0.10000000000E+01 0.  0.
    9000005    1    3    3    0    0  0.40483340515E+02 -0.42149144591E+02  0.32596060216E+03  0.33115972794E+03  0.10000000000E+01 0.  0.
<mgrwt>
<rscale>  0 0.12501421E+03</rscale>
<asrwt>0</asrwt>
<pdfrwt beam="1">  1        4 0.74643171E-01 0.12501421E+03</pdfrwt>
<pdfrwt beam="2">  1       -4 0.12389164E-02 0.12501421E+03</pdfrwt>
<totfact> 0.56375582E+03</totfact>
</mgrwt>
</event>
<event>
 5    1  0.3199195E-002  0.1249576E+03  0.7818608E-02  0.1235136E+00
          4   -1    0    0  501    0  0.00000000000E+00  0.00000000000E+00  0.70165364809E+02  0.70176857430E+02  0.12700000000E+01 0. -1.
         -4   -1    0    0    0  501 -0.00000000000E+00 -0.00000000000E+00 -0.55610958485E+02  0.55625458233E+02  0.12700000000E+01 0. -1.
         25    2    1    2    0    0  0.00000000000E+00  0.00000000000E+00  0.14554406324E+02  0.12580231566E+03  0.12495756033E+03 0.  0.
    9000005    1    3    3    0    0  0.29585243976E+02 -0.34238633735E+01 -0.48008410540E+02  0.56505017336E+02  0.10000000000E+01 0.  0.
    9000005    1    3    3    0    0 -0.29585243976E+02  0.34238633735E+01  0.62562816864E+02  0.69297298328E+02  0.10000000000E+01 0.  0.
<mgrwt>
<rscale>  0 0.12495756E+03</rscale>
<asrwt>0</asrwt>
<pdfrwt beam="1">  1        4 0.10796671E-01 0.12495756E+03</pdfrwt>
<pdfrwt beam="2">  1       -4 0.85575314E-02 0.12495756E+03</pdfrwt>
<totfact> 0.10445294E+04</totfact>
</mgrwt>
</event>
<event>
 5    1  0.3199195E-002  0.1250090E+03  0.7818608E-02  0.1235055E+00
         -4   -1    0    0    0  501 -0.00000000000E+00  0.00000000000E+00  0.61464882752E+02  0.61478001852E+02  0.12700000000E+01 0.  1.
          4   -1    0    0  501    0  0.00000000000E+00 -0.00000000000E+00 -0.63535431166E+02  0.63548122816E+02  0.12700000000E+01 0.  1.
         25    2    1    2    0    0  0.00000000000E+00  0.00000000000E+00 -0.20705484145E+01  0.12502612467E+03  0.12500897839E+03 0.  0.
    9000005    1    3    3    0    0  0.43325702944E+02 -0.11895161977E+02 -0.44483145146E+02  0.63232599315E+02  0.10000000000E+01 0.  0.
    9000005    1    3    3    0    0 -0.43325702944E+02  0.11895161977E+02  0.42412596731E+02  0.61793525353E+02  0.10000000000E+01 0.  0.
<mgrwt>
<rscale>  0 0.12500898E+03</rscale>
<asrwt>0</asrwt>
<pdfrwt beam="2">  1        4 0.97766672E-02 0.12500898E+03</pdfrwt>
<pdfrwt beam="1">  1       -4 0.94581212E-02 0.12500898E+03</pdfrwt>
<totfact> 0.10450174E+04</totfact>
</mgrwt>
</event>
<event>
 5    1  0.3199195E-002  0.1250073E+03  0.7818608E-02  0.1235058E+00
          4   -1    0    0  501    0  0.00000000000E+00  0.00000000000E+00  0.30975115453E+01  0.33477571258E+01  0.12700000000E+01 0.  1.
         -4   -1    0    0    0  501 -0.00000000000E+00 -0.00000000000E+00 -0.12120206691E+04  0.12120213345E+04  0.12700000000E+01 0.  1.
         25    2    1    2    0    0  0.00000000000E+00  0.00000000000E+00 -0.12089231576E+04  0.12153690916E+04  0.12500731158E+03 0.  0.
    9000005    1    3    3    0    0 -0.40462432581E+02 -0.34381985459E+02 -0.28400943897E+03  0.28893198299E+03  0.10000000000E+01 0.  0.
    9000005    1    3    3    0    0  0.40462432581E+02  0.34381985459E+02 -0.92491371859E+03  0.92643710861E+03  0.10000000000E+01 0.  0.
<mgrwt>
<rscale>  0 0.12500731E+03</rscale>
<asrwt>0</asrwt>
<pdfrwt beam="1">  1        4 0.49584205E-03 0.12500731E+03</pdfrwt>
<pdfrwt beam="2">  1       -4 0.18648366E+00 0.12500731E+03</pdfrwt>
<totfact> 0.24310158E+03</totfact>
</mgrwt>
</event>
<event>
 5    1  0.3199195E-002  0.1249978E+03  0.7818608E-02  0.1235073E+00
         -4   -1    0    0    0  501 -0.00000000000E+00  0.00000000000E+00  0.17967004439E+03  0.17967453284E+03  0.12700000000E+01 0.  1.
          4   -1    0    0  501    0  0.00000000000E+00 -0.00000000000E+00 -0.21717171634E+02  0.21754274150E+02  0.12700000000E+01 0.  1.
         25    2    1    2    0    0  0.00000000000E+00  0.00000000000E+00  0.15795287276E+03  0.20142880699E+03  0.12499781707E+03 0.  0.
    9000005    1    3    3    0    0  0.37479326809E+01  0.56989545636E+00 -0.21539600406E+02  0.21893518809E+02  0.10000000000E+01 0.  0.
    9000005    1    3    3    0    0 -0.37479326809E+01 -0.56989545636E+00  0.17949247316E+03  0.17953528818E+03  0.10000000000E+01 0.  0.
<mgrwt>
<rscale>  0 0.12499782E+03</rscale>
<asrwt>0</asrwt>
<pdfrwt beam="2">  1        4 0.33443027E-02 0.12499782E+03</pdfrwt>
<pdfrwt beam="1">  1       -4 0.27644744E-01 0.12499782E+03</pdfrwt>
<totfact> 0.89899476E+03</totfact>
</mgrwt>
</event>
<event>
 5    1  0.3199195E-002  0.1250001E+03  0.7818608E-02  0.1235069E+00
         -4   -1    0    0    0  501 -0.00000000000E+00  0.00000000000E+00  0.14047162899E+04  0.14047168640E+04  0.12700000000E+01 0.  1.
          4   -1    0    0  501    0  0.00000000000E+00 -0.00000000000E+00 -0.26352084371E+01  0.29252732363E+01  0.12700000000E+01 0.  1.
         25    2    1    2    0    0  0.00000000000E+00  0.00000000000E+00  0.14020810814E+04  0.14076421372E+04  0.12500011012E+03 0.  0.
    9000005    1    3    3    0    0  0.82828350308E+01 -0.55259811801E+01  0.13957813650E+04  0.13958172376E+04  0.10000000000E+01 0.  0.
    9000005    1    3    3    0    0 -0.82828350308E+01  0.55259811801E+01  0.62997164245E+01  0.11824899627E+02  0.10000000000E+01 0.  0.
<mgrwt>
<rscale>  0 0.12500011E+03</rscale>
<asrwt>0</asrwt>
<pdfrwt beam="2">  1        4 0.42777365E-03 0.12500011E+03</pdfrwt>
<pdfrwt beam="1">  1       -4 0.21613249E+00 0.12500011E+03</pdfrwt>
<totfact> 0.19817481E+03</totfact>
</mgrwt>
</event>
<event>
 5    1  0.3199195E-002  0.1250000E+03  0.7818608E-02  0.1235069E+00
         -4   -1    0    0    0  501 -0.00000000000E+00  0.00000000000E+00  0.96794390851E+02  0.96802722070E+02  0.12700000000E+01 0. -1.
          4   -1    0    0  501    0  0.00000000000E+00 -0.00000000000E+00 -0.40336096427E+02  0.40356084733E+02  0.12700000000E+01 0. -1.
         25    2    1    2    0    0  0.00000000000E+00  0.00000000000E+00  0.56458294424E+02  0.13715880680E+03  0.12499999710E+03 0.  0.
    9000005    1    3    3    0    0 -0.56699125963E+02  0.13130758012E+02  0.53203614573E+02  0.78859573258E+02  0.10000000000E+01 0.  0.
    9000005    1    3    3    0    0  0.56699125963E+02 -0.13130758012E+02  0.32546798512E+01  0.58299233544E+02  0.10000000000E+01 0.  0.
<mgrwt>
<rscale>  0 0.12500000E+03</rscale>
<asrwt>0</asrwt>
<pdfrwt beam="2">  1        4 0.62077318E-02 0.12500000E+03</pdfrwt>
<pdfrwt beam="1">  1       -4 0.14893623E-01 0.12500000E+03</pdfrwt>
<totfact> 0.10192767E+04</totfact>
</mgrwt>
</event>
<event>
 5    1  0.3199195E-002  0.1250013E+03  0.7818608E-02  0.1235067E+00
         -4   -1    0    0    0  501 -0.00000000000E+00  0.00000000000E+00  0.95128290469E+02  0.95136767590E+02  0.12700000000E+01 0.  1.
          4   -1    0    0  501    0  0.00000000000E+00 -0.00000000000E+00 -0.41043691813E+02  0.41063335686E+02  0.12700000000E+01 0.  1.
         25    2    1    2    0    0  0.00000000000E+00  0.00000000000E+00  0.54084598656E+02  0.13620010328E+03  0.12500129728E+03 0.  0.
    9000005    1    3    3    0    0  0.51210113645E+01  0.59717556842E+02  0.77679649762E+01  0.60446278897E+02  0.10000000000E+01 0.  0.
    9000005    1    3    3    0    0 -0.51210113645E+01 -0.59717556842E+02  0.46316633680E+02  0.75753824379E+02  0.10000000000E+01 0.  0.
<mgrwt>
<rscale>  0 0.12500130E+03</rscale>
<asrwt>0</asrwt>
<pdfrwt beam="2">  1        4 0.63165774E-02 0.12500130E+03</pdfrwt>
<pdfrwt beam="1">  1       -4 0.14637285E-01 0.12500130E+03</pdfrwt>
<totfact> 0.10212539E+04</totfact>
</mgrwt>
</event>
<event>
 5    1  0.3199195E-002  0.1250013E+03  0.7818608E-02  0.1235067E+00
         -4   -1    0    0    0  501 -0.00000000000E+00  0.00000000000E+00  0.72891784036E+03  0.72891894672E+03  0.12700000000E+01 0.  1.
          4   -1    0    0  501    0  0.00000000000E+00 -0.00000000000E+00 -0.52827119247E+01  0.54332260472E+01  0.12700000000E+01 0.  1.
         25    2    1    2    0    0  0.00000000000E+00  0.00000000000E+00  0.72363512843E+03  0.73435217277E+03  0.12500125819E+03 0.  0.
    9000005    1    3    3    0    0  0.30455617491E+02 -0.24696582408E+01  0.68206921010E+03  0.68275401955E+03  0.10000000000E+01 0.  0.
    9000005    1    3    3    0    0 -0.30455617491E+02  0.24696582408E+01  0.41565918330E+02  0.51598153215E+02  0.10000000000E+01 0.  0.
<mgrwt>
<rscale>  0 0.12500126E+03</rscale>
<asrwt>0</asrwt>
<pdfrwt beam="2">  1        4 0.82438812E-03 0.12500126E+03</pdfrwt>
<pdfrwt beam="1">  1       -4 0.11215286E+00 0.12500126E+03</pdfrwt>
<totfact> 0.41332856E+03</totfact>
</mgrwt>
</event>
<event>
 5    1  0.3199195E-002  0.1250020E+03  0.7818608E-02  0.1235066E+00
         -4   -1    0    0    0  501 -0.00000000000E+00  0.00000000000E+00  0.21335350514E+02  0.21373115859E+02  0.12700000000E+01 0.  1.
          4   -1    0    0  501    0  0.00000000000E+00 -0.00000000000E+00 -0.18289224771E+03  0.18289665709E+03  0.12700000000E+01 0.  1.
         25    2    1    2    0    0  0.00000000000E+00  0.00000000000E+00 -0.16155689720E+03  0.20426977295E+03  0.12500203641E+03 0.  0.
    9000005    1    3    3    0    0 -0.24862942522E+02 -0.57296165581E+02 -0.77365978258E+02  0.99435964786E+02  0.10000000000E+01 0.  0.
    9000005    1    3    3    0    0  0.24862942522E+02  0.57296165581E+02 -0.84190918942E+02  0.10483380816E+03  0.10000000000E+01 0.  0.
<mgrwt>
<rscale>  0 0.12500204E+03</rscale>
<asrwt>0</asrwt>
<pdfrwt beam="2">  1        4 0.28140512E-01 0.12500204E+03</pdfrwt>
<pdfrwt beam="1">  1       -4 0.32856059E-02 0.12500204E+03</pdfrwt>
<totfact> 0.89416265E+03</totfact>
</mgrwt>
</event>
<event>
 5    1  0.3199195E-002  0.1249984E+03  0.7818608E-02  0.1235072E+00
         -4   -1    0    0    0  501 -0.00000000000E+00  0.00000000000E+00  0.60259878896E+02  0.60273260278E+02  0.12700000000E+01 0. -1.
          4   -1    0    0  501    0  0.00000000000E+00 -0.00000000000E+00 -0.64794884389E+02  0.64807329392E+02  0.12700000000E+01 0. -1.
         25    2    1    2    0    0  0.00000000000E+00  0.00000000000E+00 -0.45350054932E+01  0.12508058967E+03  0.12499835054E+03 0.  0.
    9000005    1    3    3    0    0 -0.49649686884E+02 -0.11553804476E+02 -0.38437723986E+02  0.63851706561E+02  0.10000000000E+01 0.  0.
    9000005    1    3    3    0    0  0.49649686884E+02  0.11553804476E+02  0.33902718493E+02  0.61228883109E+02  0.10000000000E+01 0.  0.
<mgrwt>
<rscale>  0 0.12499835E+03</rscale>
<asrwt>0</asrwt>
<pdfrwt beam="2">  1        4 0.99704304E-02 0.12499835E+03</pdfrwt>
<pdfrwt beam="1">  1       -4 0.92727372E-02 0.12499835E+03</pdfrwt>
<totfact> 0.10451502E+04</totfact>
</mgrwt>
</event>
<event>
 5    1  0.3199195E-002  0.1250000E+03  0.7818608E-02  0.1235069E+00
         -4   -1    0    0    0  501 -0.00000000000E+00  0.00000000000E+00  0.15065085363E+02  0.15118521654E+02  0.12700000000E+01 0.  1.
          4   -1    0    0  501    0  0.00000000000E+00 -0.00000000000E+00 -0.25877773669E+03  0.25878085306E+03  0.12700000000E+01 0.  1.
         25    2    1    2    0    0  0.00000000000E+00  0.00000000000E+00 -0.24371265133E+03  0.27389937471E+03  0.12500004419E+03 0.  0.
    9000005    1    3    3    0    0 -0.81982425414E+01  0.35204657710E+02 -0.23355724467E+03  0.23633993662E+03  0.10000000000E+01 0.  0.
    9000005    1    3    3    0    0  0.81982425414E+01 -0.35204657710E+02 -0.10155406666E+02  0.37559438092E+02  0.10000000000E+01 0.  0.
<mgrwt>
<rscale>  0 0.12500004E+03</rscale>
<asrwt>0</asrwt>
<pdfrwt beam="2">  1        4 0.39816306E-01 0.12500004E+03</pdfrwt>
<pdfrwt beam="1">  1       -4 0.23220558E-02 0.12500004E+03</pdfrwt>
<totfact> 0.78993944E+03</totfact>
</mgrwt>
</event>
<event>
 5    1  0.3199195E-002  0.1250004E+03  0.7818608E-02  0.1235069E+00
         -4   -1    0    0    0  501 -0.00000000000E+00  0.00000000000E+00  0.22456157637E+03  0.22456516756E+03  0.12700000000E+01 0. -1.
          4   -1    0    0  501    0  0.00000000000E+00 -0.00000000000E+00 -0.17368202003E+02  0.17414572657E+02  0.12700000000E+01 0. -1.
         25    2    1    2    0    0  0.00000000000E+00  0.00000000000E+00  0.20719337437E+03  0.24197974022E+03  0.12500040118E+03 0.  0.
    9000005    1    3    3    0    0 -0.36472311041E+02 -0.35698607003E+02  0.33781699370E+02  0.61211299831E+02  0.10000000000E+01 0.  0.
    9000005    1    3    3    0    0  0.36472311041E+02  0.35698607003E+02  0.17341167500E+03  0.18076844039E+03  0.10000000000E+01 0.  0.
<mgrwt>
<rscale>  0 0.12500040E+03</rscale>
<asrwt>0</asrwt>
<pdfrwt beam="2">  1        4 0.26758745E-02 0.12500040E+03</pdfrwt>
<pdfrwt beam="1">  1       -4 0.34551775E-01 0.12500040E+03</pdfrwt>
<totfact> 0.83502656E+03</totfact>
</mgrwt>
</event>
<event>
 5    1  0.3199195E-002  0.1250024E+03  0.7818608E-02  0.1235066E+00
          4   -1    0    0  501    0  0.00000000000E+00  0.00000000000E+00  0.62756854341E+02  0.62769703415E+02  0.12700000000E+01 0.  1.
         -4   -1    0    0    0  501 -0.00000000000E+00 -0.00000000000E+00 -0.62220884033E+02  0.62233843766E+02  0.12700000000E+01 0.  1.
         25    2    1    2    0    0  0.00000000000E+00  0.00000000000E+00  0.53597030781E+00  0.12500354718E+03  0.12500239815E+03 0.  0.
    9000005    1    3    3    0    0  0.48128031407E+02  0.39775388782E+02 -0.23798545242E+01  0.62490420605E+02  0.10000000000E+01 0.  0.
    9000005    1    3    3    0    0 -0.48128031407E+02 -0.39775388782E+02  0.29158248320E+01  0.62513126576E+02  0.10000000000E+01 0.  0.
<mgrwt>
<rscale>  0 0.12500240E+03</rscale>
<asrwt>0</asrwt>
<pdfrwt beam="1">  1        4 0.96568860E-02 0.12500240E+03</pdfrwt>
<pdfrwt beam="2">  1       -4 0.95744289E-02 0.12500240E+03</pdfrwt>
<totfact> 0.10452219E+04</totfact>
</mgrwt>
</event>
<event>
 5    1  0.3199195E-002  0.1250017E+03  0.7818608E-02  0.1235067E+00
          4   -1    0    0  501    0  0.00000000000E+00  0.00000000000E+00  0.40123477838E+02  0.40143572011E+02  0.12700000000E+01 0.  1.
         -4   -1    0    0    0  501 -0.00000000000E+00 -0.00000000000E+00 -0.97309686660E+02  0.97317973766E+02  0.12700000000E+01 0.  1.
         25    2    1    2    0    0  0.00000000000E+00  0.00000000000E+00 -0.57186208823E+02  0.13746154578E+03  0.12500165634E+03 0.  0.
    9000005    1    3    3    0    0 -0.87759342552E+01 -0.41796153578E+02  0.21577012542E+02  0.47859199180E+02  0.10000000000E+01 0.  0.
    9000005    1    3    3    0    0  0.87759342552E+01  0.41796153578E+02 -0.78763221364E+02  0.89602346597E+02  0.10000000000E+01 0.  0.
<mgrwt>
<rscale>  0 0.12500166E+03</rscale>
<asrwt>0</asrwt>
<pdfrwt beam="1">  1        4 0.61750260E-02 0.12500166E+03</pdfrwt>
<pdfrwt beam="2">  1       -4 0.14972904E-01 0.12500166E+03</pdfrwt>
<totfact> 0.10186064E+04</totfact>
</mgrwt>
</event>
<event>
 5    1  0.3199195E-002  0.1249962E+03  0.7818608E-02  0.1235075E+00
          4   -1    0    0  501    0  0.00000000000E+00  0.00000000000E+00  0.31664417359E+02  0.31689875776E+02  0.12700000000E+01 0.  1.
         -4   -1    0    0    0  501 -0.00000000000E+00 -0.00000000000E+00 -0.12327831175E+03  0.12328485328E+03  0.12700000000E+01 0.  1.
         25    2    1    2    0    0  0.00000000000E+00  0.00000000000E+00 -0.91613894393E+02  0.15497472906E+03  0.12499624395E+03 0.  0.
    9000005    1    3    3    0    0  0.64218885282E+01  0.49202724935E+02 -0.92902184700E+02  0.10532789144E+03  0.10000000000E+01 0.  0.
    9000005    1    3    3    0    0 -0.64218885282E+01 -0.49202724935E+02  0.12882903072E+01  0.49646837616E+02  0.10000000000E+01 0.  0.
<mgrwt>
<rscale>  0 0.12499624E+03</rscale>
<asrwt>0</asrwt>
<pdfrwt beam="1">  1        4 0.48739104E-02 0.12499624E+03</pdfrwt>
<pdfrwt beam="2">  1       -4 0.18968355E-01 0.12499624E+03</pdfrwt>
<totfact> 0.98328766E+03</totfact>
</mgrwt>
</event>
<event>
 5    1  0.3199195E-002  0.1249997E+03  0.7818608E-02  0.1235070E+00
          4   -1    0    0  501    0  0.00000000000E+00  0.00000000000E+00  0.10868633400E+02  0.10942581596E+02  0.12700000000E+01 0. -1.
         -4   -1    0    0    0  501 -0.00000000000E+00 -0.00000000000E+00 -0.35811037592E+03  0.35811262787E+03  0.12700000000E+01 0. -1.
         25    2    1    2    0    0  0.00000000000E+00  0.00000000000E+00 -0.34724174252E+03  0.36905520946E+03  0.12499967955E+03 0.  0.
    9000005    1    3    3    0    0  0.17627198560E+02  0.49757076080E+02 -0.74868385279E+02  0.91612007201E+02  0.10000000000E+01 0.  0.
    9000005    1    3    3    0    0 -0.17627198560E+02 -0.49757076080E+02 -0.27237335724E+03  0.27744320226E+03  0.10000000000E+01 0.  0.
<mgrwt>
<rscale>  0 0.12499968E+03</rscale>
<asrwt>0</asrwt>
<pdfrwt beam="1">  1        4 0.16779593E-02 0.12499968E+03</pdfrwt>
<pdfrwt beam="2">  1       -4 0.55099756E-01 0.12499968E+03</pdfrwt>
<totfact> 0.67678379E+03</totfact>
</mgrwt>
</event>
<event>
 5    1  0.3199195E-002  0.1250011E+03  0.7818608E-02  0.1235068E+00
          4   -1    0    0  501    0  0.00000000000E+00  0.00000000000E+00  0.36997649334E+03  0.36997867306E+03  0.12700000000E+01 0.  1.
         -4   -1    0    0    0  501 -0.00000000000E+00 -0.00000000000E+00 -0.10517884988E+02  0.10594281695E+02  0.12700000000E+01 0.  1.
         25    2    1    2    0    0  0.00000000000E+00  0.00000000000E+00  0.35945860835E+03  0.38057295476E+03  0.12500113111E+03 0.  0.
    9000005    1    3    3    0    0  0.30802804371E+02  0.82105136010E+00  0.34525445246E+03  0.34662822134E+03  0.10000000000E+01 0.  0.
    9000005    1    3    3    0    0 -0.30802804371E+02 -0.82105136010E+00  0.14204155883E+02  0.33944733418E+02  0.10000000000E+01 0.  0.
<mgrwt>
<rscale>  0 0.12500113E+03</rscale>
<asrwt>0</asrwt>
<pdfrwt beam="1">  1        4 0.56925502E-01 0.12500113E+03</pdfrwt>
<pdfrwt beam="2">  1       -4 0.16241806E-02 0.12500113E+03</pdfrwt>
<totfact> 0.66485463E+03</totfact>
</mgrwt>
</event>
<event>
 5    1  0.3199195E-002  0.1249974E+03  0.7818608E-02  0.1235073E+00
         -4   -1    0    0    0  501 -0.00000000000E+00  0.00000000000E+00  0.94798622663E+01  0.95645537579E+01  0.12700000000E+01 0. -1.
          4   -1    0    0  501    0  0.00000000000E+00 -0.00000000000E+00 -0.41012263375E+03  0.41012460011E+03  0.12700000000E+01 0. -1.
         25    2    1    2    0    0  0.00000000000E+00  0.00000000000E+00 -0.40064277149E+03  0.41968915387E+03  0.12499742210E+03 0.  0.
    9000005    1    3    3    0    0  0.52036675557E+02 -0.32104101233E+02 -0.15698385720E+03  0.16847379719E+03  0.10000000000E+01 0.  0.
    9000005    1    3    3    0    0 -0.52036675557E+02  0.32104101233E+02 -0.24365891429E+03  0.25121535668E+03  0.10000000000E+01 0.  0.
<mgrwt>
<rscale>  0 0.12499742E+03</rscale>
<asrwt>0</asrwt>
<pdfrwt beam="2">  1        4 0.63102442E-01 0.12499742E+03</pdfrwt>
<pdfrwt beam="1">  1       -4 0.14651067E-02 0.12499742E+03</pdfrwt>
<totfact> 0.62685428E+03</totfact>
</mgrwt>
</event>
<event>
 5    1  0.3199195E-002  0.1249992E+03  0.7818608E-02  0.1235070E+00
         -4   -1    0    0    0  501 -0.00000000000E+00  0.00000000000E+00  0.33072236736E+02  0.33096612255E+02  0.12700000000E+01 0.  1.
          4   -1    0    0  501    0  0.00000000000E+00 -0.00000000000E+00 -0.11803990675E+03  0.11804673856E+03  0.12700000000E+01 0.  1.
         25    2    1    2    0    0  0.00000000000E+00  0.00000000000E+00 -0.84967670014E+02  0.15114335082E+03  0.12499923019E+03 0.  0.
    9000005    1    3    3    0    0  0.38816179422E+01 -0.38573377312E+02 -0.10174756132E+03  0.10888773406E+03  0.10000000000E+01 0.  0.
    9000005    1    3    3    0    0 -0.38816179422E+01  0.38573377312E+02  0.16779891306E+02  0.42255616755E+02  0.10000000000E+01 0.  0.
<mgrwt>
<rscale>  0 0.12499923E+03</rscale>
<asrwt>0</asrwt>
<pdfrwt beam="2">  1        4 0.18162386E-01 0.12499923E+03</pdfrwt>
<pdfrwt beam="1">  1       -4 0.50904371E-02 0.12499923E+03</pdfrwt>
<totfact> 0.99077991E+03</totfact>
</mgrwt>
</event>
<event>
 4    1  0.3199195E-002  0.1254205E+03  0.7818608E-02  0.1234414E+00
          4   -1    0    0  501    0  0.00000000000E+00  0.00000000000E+00  0.31014521538E+03  0.31014781560E+03  0.12700000000E+01 0. -1.
         -4   -1    0    0    0  501 -0.00000000000E+00 -0.00000000000E+00 -0.12645336176E+02  0.12708950665E+02  0.12700000000E+01 0. -1.
    9000005    1    1    2    0    0 -0.62093835866E+02  0.84876258297E+01  0.15382972094E+03  0.16610920291E+03  0.10000000000E+01 0.  0.
    9000005    1    1    2    0    0  0.62093835866E+02 -0.84876258297E+01  0.14367015826E+03  0.15674756336E+03  0.10000000000E+01 0.  0.
<mgrwt>
<rscale>  0 0.12542055E+03</rscale>
<asrwt>0</asrwt>
<pdfrwt beam="1">  1        4 0.47719740E-01 0.12542055E+03</pdfrwt>
<pdfrwt beam="2">  1       -4 0.19505299E-02 0.12542055E+03</pdfrwt>
<totfact> 0.72143068E+03</totfact>
</mgrwt>
</event>
<event>
 5    1  0.3199195E-002  0.1250054E+03  0.7818608E-02  0.1235061E+00
         -4   -1    0    0    0  501 -0.00000000000E+00  0.00000000000E+00  0.67658690607E+02  0.67670608942E+02  0.12700000000E+01 0. -1.
          4   -1    0    0  501    0  0.00000000000E+00 -0.00000000000E+00 -0.57715590740E+02  0.57729561876E+02  0.12700000000E+01 0. -1.
         25    2    1    2    0    0  0.00000000000E+00  0.00000000000E+00  0.99430998671E+01  0.12540017082E+03  0.12500535031E+03 0.  0.
    9000005    1    3    3    0    0 -0.24582770253E+02 -0.41993419262E+02 -0.34367414296E+02  0.59580861189E+02  0.10000000000E+01 0.  0.
    9000005    1    3    3    0    0  0.24582770253E+02  0.41993419262E+02  0.44310514163E+02  0.65819309629E+02  0.10000000000E+01 0.  0.
<mgrwt>
<rscale>  0 0.12500535E+03</rscale>
<asrwt>0</asrwt>
<pdfrwt beam="2">  1        4 0.88813132E-02 0.12500535E+03</pdfrwt>
<pdfrwt beam="1">  1       -4 0.10411021E-01 0.12500535E+03</pdfrwt>
<totfact> 0.10442903E+04</totfact>
</mgrwt>
</event>
<event>
 5    1  0.3199195E-002  0.1250041E+03  0.7818608E-02  0.1235063E+00
          4   -1    0    0  501    0  0.00000000000E+00  0.00000000000E+00  0.15647991887E+04  0.15647997040E+04  0.12700000000E+01 0. -1.
         -4   -1    0    0    0  501 -0.00000000000E+00 -0.00000000000E+00 -0.23344263829E+01  0.26575263945E+01  0.12700000000E+01 0. -1.
         25    2    1    2    0    0  0.00000000000E+00  0.00000000000E+00  0.15624647623E+04  0.15674572304E+04  0.12500414334E+03 0.  0.
    9000005    1    3    3    0    0  0.17592515499E+02  0.46259153709E+02  0.30274845993E+03  0.30676870097E+03  0.10000000000E+01 0.  0.
    9000005    1    3    3    0    0 -0.17592515499E+02 -0.46259153709E+02  0.12597163024E+04  0.12606885295E+04  0.10000000000E+01 0.  0.
<mgrwt>
<rscale>  0 0.12500414E+03</rscale>
<asrwt>0</asrwt>
<pdfrwt beam="1">  1        4 0.24076309E+00 0.12500414E+03</pdfrwt>
<pdfrwt beam="2">  1       -4 0.38403623E-03 0.12500414E+03</pdfrwt>
<totfact> 0.16640373E+03</totfact>
</mgrwt>
</event>
<event>
 5    1  0.3199195E-002  0.1249989E+03  0.7818608E-02  0.1235071E+00
          4   -1    0    0  501    0  0.00000000000E+00  0.00000000000E+00  0.92145225473E+02  0.92153977003E+02  0.12700000000E+01 0. -1.
         -4   -1    0    0    0  501 -0.00000000000E+00 -0.00000000000E+00 -0.42371289326E+02  0.42390317988E+02  0.12700000000E+01 0. -1.
         25    2    1    2    0    0  0.00000000000E+00  0.00000000000E+00  0.49773936147E+02  0.13454429499E+03  0.12499889037E+03 0.  0.
    9000005    1    3    3    0    0  0.44477012273E+02 -0.32683702093E+02 -0.66553001656E+01  0.55603255512E+02  0.10000000000E+01 0.  0.
    9000005    1    3    3    0    0 -0.44477012273E+02  0.32683702093E+02  0.56429236312E+02  0.78941039479E+02  0.10000000000E+01 0.  0.
<mgrwt>
<rscale>  0 0.12499889E+03</rscale>
<asrwt>0</asrwt>
<pdfrwt beam="1">  1        4 0.14178326E-01 0.12499889E+03</pdfrwt>
<pdfrwt beam="2">  1       -4 0.65207968E-02 0.12499889E+03</pdfrwt>
<totfact> 0.10247941E+04</totfact>
</mgrwt>
</event>
<event>
 5    1  0.3199195E-002  0.1249987E+03  0.7818608E-02  0.1235071E+00
         -4   -1    0    0    0  501 -0.00000000000E+00  0.00000000000E+00  0.54501436329E+02  0.54516231179E+02  0.12700000000E+01 0.  1.
          4   -1    0    0  501    0  0.00000000000E+00 -0.00000000000E+00 -0.71640737587E+02  0.71651993566E+02  0.12700000000E+01 0.  1.
         25    2    1    2    0    0  0.00000000000E+00  0.00000000000E+00 -0.17139301258E+02  0.12616822475E+03  0.12499866114E+03 0.  0.
    9000005    1    3    3    0    0  0.92147300139E+01 -0.58490042404E+02 -0.28735828095E+02  0.65823583357E+02  0.10000000000E+01 0.  0.
    9000005    1    3    3    0    0 -0.92147300139E+01  0.58490042404E+02  0.11596526837E+02  0.60344641389E+02  0.10000000000E+01 0.  0.
<mgrwt>
<rscale>  0 0.12499866E+03</rscale>
<asrwt>0</asrwt>
<pdfrwt beam="2">  1        4 0.11023656E-01 0.12499866E+03</pdfrwt>
<pdfrwt beam="1">  1       -4 0.83868403E-02 0.12499866E+03</pdfrwt>
<totfact> 0.10427589E+04</totfact>
</mgrwt>
</event>
<event>
 5    1  0.3199195E-002  0.1249935E+03  0.7818608E-02  0.1235080E+00
         -4   -1    0    0    0  501 -0.00000000000E+00  0.00000000000E+00  0.37198722057E+02  0.37220395251E+02  0.12700000000E+01 0.  1.
          4   -1    0    0  501    0  0.00000000000E+00 -0.00000000000E+00 -0.10494324046E+03  0.10495092481E+03  0.12700000000E+01 0.  1.
         25    2    1    2    0    0  0.00000000000E+00  0.00000000000E+00 -0.67744518400E+02  0.14217132006E+03  0.12499345772E+03 0.  0.
    9000005    1    3    3    0    0  0.49545922134E+02 -0.34688689570E+02 -0.16005642364E+02  0.62572231634E+02  0.10000000000E+01 0.  0.
    9000005    1    3    3    0    0 -0.49545922134E+02  0.34688689570E+02 -0.51738876036E+02  0.79599088422E+02  0.10000000000E+01 0.  0.
<mgrwt>
<rscale>  0 0.12499346E+03</rscale>
<asrwt>0</asrwt>
<pdfrwt beam="2">  1        4 0.16147372E-01 0.12499346E+03</pdfrwt>
<pdfrwt beam="1">  1       -4 0.57251386E-02 0.12499346E+03</pdfrwt>
<totfact> 0.10090268E+04</totfact>
</mgrwt>
</event>
<event>
 5    1  0.3199195E-002  0.1250004E+03  0.7818608E-02  0.1235069E+00
          4   -1    0    0  501    0  0.00000000000E+00  0.00000000000E+00  0.55750947970E+01  0.57179176275E+01  0.12700000000E+01 0.  1.
         -4   -1    0    0    0  501 -0.00000000000E+00 -0.00000000000E+00 -0.69166004876E+03  0.69166121472E+03  0.12700000000E+01 0.  1.
         25    2    1    2    0    0  0.00000000000E+00  0.00000000000E+00 -0.68608495396E+03  0.69737913235E+03  0.12500036073E+03 0.  0.
    9000005    1    3    3    0    0 -0.13881530096E+02  0.34617365781E+02 -0.63299770795E+02  0.73477342590E+02  0.10000000000E+01 0.  0.
    9000005    1    3    3    0    0  0.13881530096E+02 -0.34617365781E+02 -0.62278518317E+03  0.62390178976E+03  0.10000000000E+01 0.  0.
<mgrwt>
<rscale>  0 0.12500036E+03</rscale>
<asrwt>0</asrwt>
<pdfrwt beam="1">  1        4 0.86878350E-03 0.12500036E+03</pdfrwt>
<pdfrwt beam="2">  1       -4 0.10642025E+00 0.12500036E+03</pdfrwt>
<totfact> 0.43225083E+03</totfact>
</mgrwt>
</event>
<event>
 5    1  0.3199195E-002  0.1249997E+03  0.7818608E-02  0.1235070E+00
          4   -1    0    0  501    0  0.00000000000E+00  0.00000000000E+00  0.20732785597E+03  0.20733174566E+03  0.12700000000E+01 0. -1.
         -4   -1    0    0    0  501 -0.00000000000E+00 -0.00000000000E+00 -0.18815354073E+02  0.18858166636E+02  0.12700000000E+01 0. -1.
         25    2    1    2    0    0  0.00000000000E+00  0.00000000000E+00  0.18851250189E+03  0.22618991230E+03  0.12499965222E+03 0.  0.
    9000005    1    3    3    0    0  0.55657163222E+02  0.69923082135E+01  0.44416547774E+02  0.71557263141E+02  0.10000000000E+01 0.  0.
    9000005    1    3    3    0    0 -0.55657163222E+02 -0.69923082135E+01  0.14409595412E+03  0.15463264916E+03  0.10000000000E+01 0.  0.
<mgrwt>
<rscale>  0 0.12499965E+03</rscale>
<asrwt>0</asrwt>
<pdfrwt beam="1">  1        4 0.31900187E-01 0.12499965E+03</pdfrwt>
<pdfrwt beam="2">  1       -4 0.28982622E-02 0.12499965E+03</pdfrwt>
<totfact> 0.85898759E+03</totfact>
</mgrwt>
</event>
<event>
 5    1  0.3199195E-002  0.1250005E+03  0.7818608E-02  0.1235068E+00
         -4   -1    0    0    0  501 -0.00000000000E+00  0.00000000000E+00  0.22250761092E+03  0.22251123526E+03  0.12700000000E+01 0. -1.
          4   -1    0    0  501    0  0.00000000000E+00 -0.00000000000E+00 -0.17528979383E+02  0.17574925837E+02  0.12700000000E+01 0. -1.
         25    2    1    2    0    0  0.00000000000E+00  0.00000000000E+00  0.20497863154E+03  0.24008616110E+03  0.12500050145E+03 0.  0.
    9000005    1    3    3    0    0  0.40148435128E+02  0.11928425964E+02  0.13408253998E+02  0.43988242344E+02  0.10000000000E+01 0.  0.
    9000005    1    3    3    0    0 -0.40148435128E+02 -0.11928425964E+02  0.19157037754E+03  0.19609791875E+03  0.10000000000E+01 0.  0.
<mgrwt>
<rscale>  0 0.12500050E+03</rscale>
<asrwt>0</asrwt>
<pdfrwt beam="2">  1        4 0.27005791E-02 0.12500050E+03</pdfrwt>
<pdfrwt beam="1">  1       -4 0.34235754E-01 0.12500050E+03</pdfrwt>
<totfact> 0.83783598E+03</totfact>
</mgrwt>
</event>
<event>
 5    1  0.3199195E-002  0.1250002E+03  0.7818608E-02  0.1235069E+00
          4   -1    0    0  501    0  0.00000000000E+00  0.00000000000E+00  0.18892698774E+02  0.18935336463E+02  0.12700000000E+01 0. -1.
         -4   -1    0    0    0  501 -0.00000000000E+00 -0.00000000000E+00 -0.20648273704E+03  0.20648664265E+03  0.12700000000E+01 0. -1.
         25    2    1    2    0    0  0.00000000000E+00  0.00000000000E+00 -0.18759003826E+03  0.22542197912E+03  0.12500018485E+03 0.  0.
    9000005    1    3    3    0    0  0.35956063594E+02  0.31194053826E+02 -0.16681168232E+03  0.17347347020E+03  0.10000000000E+01 0.  0.
    9000005    1    3    3    0    0 -0.35956063594E+02 -0.31194053826E+02 -0.20778355943E+02  0.51948508920E+02  0.10000000000E+01 0.  0.
<mgrwt>
<rscale>  0 0.12500018E+03</rscale>
<asrwt>0</asrwt>
<pdfrwt beam="1">  1        4 0.29101494E-02 0.12500018E+03</pdfrwt>
<pdfrwt beam="2">  1       -4 0.31770154E-01 0.12500018E+03</pdfrwt>
<totfact> 0.86017196E+03</totfact>
</mgrwt>
</event>
<event>
 5    1  0.3199195E-002  0.1249983E+03  0.7818608E-02  0.1235072E+00
         -4   -1    0    0    0  501 -0.00000000000E+00  0.00000000000E+00  0.68451466390E+02  0.68463246716E+02  0.12700000000E+01 0.  1.
          4   -1    0    0  501    0  0.00000000000E+00 -0.00000000000E+00 -0.57040705203E+02  0.57054841601E+02  0.12700000000E+01 0.  1.
         25    2    1    2    0    0  0.00000000000E+00  0.00000000000E+00  0.11410761187E+02  0.12551808832E+03  0.12499834008E+03 0.  0.
    9000005    1    3    3    0    0 -0.18675237191E+02  0.48961615789E+02 -0.28482358606E+02  0.59651060817E+02  0.10000000000E+01 0.  0.
    9000005    1    3    3    0    0  0.18675237191E+02 -0.48961615789E+02  0.39893119792E+02  0.65867027500E+02  0.10000000000E+01 0.  0.
<mgrwt>
<rscale>  0 0.12499834E+03</rscale>
<asrwt>0</asrwt>
<pdfrwt beam="2">  1        4 0.87774868E-02 0.12499834E+03</pdfrwt>
<pdfrwt beam="1">  1       -4 0.10532988E-01 0.12499834E+03</pdfrwt>
<totfact> 0.10441945E+04</totfact>
</mgrwt>
</event>
<event>
 5    1  0.3199195E-002  0.1249804E+03  0.7818608E-02  0.1235100E+00
         -4   -1    0    0    0  501 -0.00000000000E+00  0.00000000000E+00  0.56521528092E+02  0.56535794306E+02  0.12700000000E+01 0.  1.
          4   -1    0    0  501    0  0.00000000000E+00 -0.00000000000E+00 -0.69060385836E+02  0.69072062311E+02  0.12700000000E+01 0.  1.
         25    2    1    2    0    0  0.00000000000E+00  0.00000000000E+00 -0.12538857745E+02  0.12560785662E+03  0.12498044123E+03 0.  0.
    9000005    1    3    3    0    0 -0.19026814151E+02  0.59498126282E+02 -0.76839691482E+01  0.62945135393E+02  0.10000000000E+01 0.  0.
    9000005    1    3    3    0    0  0.19026814151E+02 -0.59498126282E+02 -0.48548885965E+01  0.62662721223E+02  0.10000000000E+01 0.  0.
<mgrwt>
<rscale>  0 0.12498044E+03</rscale>
<asrwt>0</asrwt>
<pdfrwt beam="2">  1        4 0.10626670E-01 0.12498044E+03</pdfrwt>
<pdfrwt beam="1">  1       -4 0.86976153E-02 0.12498044E+03</pdfrwt>
<totfact> 0.10444181E+04</totfact>
</mgrwt>
</event>
<event>
 5    1  0.3199195E-002  0.1249986E+03  0.7818608E-02  0.1235071E+00
          4   -1    0    0  501    0  0.00000000000E+00  0.00000000000E+00  0.45021752125E+01  0.46778714865E+01  0.12700000000E+01 0. -1.
         -4   -1    0    0    0  501 -0.00000000000E+00 -0.00000000000E+00 -0.85083583959E+03  0.85083678743E+03  0.12700000000E+01 0. -1.
         25    2    1    2    0    0  0.00000000000E+00  0.00000000000E+00 -0.84633366438E+03  0.85551465891E+03  0.12499864059E+03 0.  0.
    9000005    1    3    3    0    0  0.11510963132E+02  0.19477709691E+02 -0.82185386994E+03  0.82216583910E+03  0.10000000000E+01 0.  0.
    9000005    1    3    3    0    0 -0.11510963132E+02 -0.19477709691E+02 -0.24479794442E+02  0.33348819814E+02  0.10000000000E+01 0.  0.
<mgrwt>
<rscale>  0 0.12499864E+03</rscale>
<asrwt>0</asrwt>
<pdfrwt beam="1">  1        4 0.70623102E-03 0.12499864E+03</pdfrwt>
<pdfrwt beam="2">  1       -4 0.13091128E+00 0.12499864E+03</pdfrwt>
<totfact> 0.35903812E+03</totfact>
</mgrwt>
</event>
<event>
 5    1  0.3199195E-002  0.1250068E+03  0.7818608E-02  0.1235059E+00
         -4   -1    0    0    0  501 -0.00000000000E+00  0.00000000000E+00  0.60186973326E+01  0.61512289488E+01  0.12700000000E+01 0. -1.
          4   -1    0    0  501    0  0.00000000000E+00 -0.00000000000E+00 -0.64188767389E+03  0.64188893026E+03  0.12700000000E+01 0. -1.
         25    2    1    2    0    0  0.00000000000E+00  0.00000000000E+00 -0.63586897656E+03  0.64804015921E+03  0.12500677022E+03 0.  0.
    9000005    1    3    3    0    0 -0.43559411291E+02 -0.26983705517E+02 -0.13245516454E+03  0.14202434048E+03  0.10000000000E+01 0.  0.
    9000005    1    3    3    0    0  0.43559411291E+02  0.26983705517E+02 -0.50341381201E+03  0.50601581873E+03  0.10000000000E+01 0.  0.
<mgrwt>
<rscale>  0 0.12500677E+03</rscale>
<asrwt>0</asrwt>
<pdfrwt beam="2">  1        4 0.98762188E-01 0.12500677E+03</pdfrwt>
<pdfrwt beam="1">  1       -4 0.93624533E-03 0.12500677E+03</pdfrwt>
<totfact> 0.45962159E+03</totfact>
</mgrwt>
</event>
<event>
 5    1  0.3199195E-002  0.1249940E+03  0.7818608E-02  0.1235079E+00
         -4   -1    0    0    0  501 -0.00000000000E+00  0.00000000000E+00  0.17593744202E+02  0.17639521962E+02  0.12700000000E+01 0.  1.
          4   -1    0    0  501    0  0.00000000000E+00 -0.00000000000E+00 -0.22166748202E+03  0.22167112010E+03  0.12700000000E+01 0.  1.
         25    2    1    2    0    0  0.00000000000E+00  0.00000000000E+00 -0.20407373782E+03  0.23931064206E+03  0.12499397160E+03 0.  0.
    9000005    1    3    3    0    0  0.60622757444E+02 -0.13686619733E+02 -0.89565493754E+02  0.10902027312E+03  0.10000000000E+01 0.  0.
    9000005    1    3    3    0    0 -0.60622757444E+02  0.13686619733E+02 -0.11450824407E+03  0.13029036894E+03  0.10000000000E+01 0.  0.
<mgrwt>
<rscale>  0 0.12499397E+03</rscale>
<asrwt>0</asrwt>
<pdfrwt beam="2">  1        4 0.34106489E-01 0.12499397E+03</pdfrwt>
<pdfrwt beam="1">  1       -4 0.27105312E-02 0.12499397E+03</pdfrwt>
<totfact> 0.83911420E+03</totfact>
</mgrwt>
</event>
<event>
 5    1  0.3199195E-002  0.1249992E+03  0.7818608E-02  0.1235070E+00
         -4   -1    0    0    0  501 -0.00000000000E+00  0.00000000000E+00  0.47122979056E+01  0.48804355903E+01  0.12700000000E+01 0.  1.
          4   -1    0    0  501    0  0.00000000000E+00 -0.00000000000E+00 -0.81423982319E+03  0.81424081362E+03  0.12700000000E+01 0.  1.
         25    2    1    2    0    0  0.00000000000E+00  0.00000000000E+00 -0.80952752528E+03  0.81912124921E+03  0.12499922687E+03 0.  0.
    9000005    1    3    3    0    0  0.57659738458E+02  0.51656588957E+01 -0.55898552180E+03  0.56197610541E+03  0.10000000000E+01 0.  0.
    9000005    1    3    3    0    0 -0.57659738458E+02 -0.51656588957E+01 -0.25054200348E+03  0.25714514380E+03  0.10000000000E+01 0.  0.
<mgrwt>
<rscale>  0 0.12499923E+03</rscale>
<asrwt>0</asrwt>
<pdfrwt beam="2">  1        4 0.12528057E+00 0.12499923E+03</pdfrwt>
<pdfrwt beam="1">  1       -4 0.73797941E-03 0.12499923E+03</pdfrwt>
<totfact> 0.37425891E+03</totfact>
</mgrwt>
</event>
<event>
 5    1  0.3199195E-002  0.1250014E+03  0.7818608E-02  0.1235067E+00
          4   -1    0    0  501    0  0.00000000000E+00  0.00000000000E+00  0.16726335275E+03  0.16726817411E+03  0.12700000000E+01 0.  1.
         -4   -1    0    0    0  501 -0.00000000000E+00 -0.00000000000E+00 -0.23332002052E+02  0.23366540603E+02  0.12700000000E+01 0.  1.
         25    2    1    2    0    0  0.00000000000E+00  0.00000000000E+00  0.14393135069E+03  0.19063471472E+03  0.12500144296E+03 0.  0.
    9000005    1    3    3    0    0  0.35899549874E+02  0.15707107633E+02 -0.22759250261E+01  0.39264115246E+02  0.10000000000E+01 0.  0.
    9000005    1    3    3    0    0 -0.35899549874E+02 -0.15707107633E+02  0.14620727572E+03  0.15137059947E+03  0.10000000000E+01 0.  0.
<mgrwt>
<rscale>  0 0.12500144E+03</rscale>
<asrwt>0</asrwt>
<pdfrwt beam="1">  1        4 0.25735851E-01 0.12500144E+03</pdfrwt>
<pdfrwt beam="2">  1       -4 0.35925665E-02 0.12500144E+03</pdfrwt>
<totfact> 0.91734029E+03</totfact>
</mgrwt>
</event>
<event>
 5    1  0.3199195E-002  0.1250021E+03  0.7818608E-02  0.1235066E+00
         -4   -1    0    0    0  501 -0.00000000000E+00  0.00000000000E+00  0.44073480296E+03  0.44073663275E+03  0.12700000000E+01 0.  1.
          4   -1    0    0  501    0  0.00000000000E+00 -0.00000000000E+00 -0.88159897892E+01  0.89069959001E+01  0.12700000000E+01 0.  1.
         25    2    1    2    0    0  0.00000000000E+00  0.00000000000E+00  0.43191881318E+03  0.44964362865E+03  0.12500212641E+03 0.  0.
    9000005    1    3    3    0    0  0.14670274050E+02  0.22685717006E+02  0.41866174406E+03  0.41953368712E+03  0.10000000000E+01 0.  0.
    9000005    1    3    3    0    0 -0.14670274050E+02 -0.22685717006E+02  0.13257069120E+02  0.30109941522E+02  0.10000000000E+01 0.  0.
<mgrwt>
<rscale>  0 0.12500213E+03</rscale>
<asrwt>0</asrwt>
<pdfrwt beam="2">  1        4 0.13634471E-02 0.12500213E+03</pdfrwt>
<pdfrwt beam="1">  1       -4 0.67812509E-01 0.12500213E+03</pdfrwt>
<totfact> 0.59991860E+03</totfact>
</mgrwt>
</event>
<event>
 5    1  0.3199195E-002  0.1250108E+03  0.7818608E-02  0.1235052E+00
         -4   -1    0    0    0  501 -0.00000000000E+00  0.00000000000E+00  0.13551361898E+02  0.13610742422E+02  0.12700000000E+01 0.  1.
          4   -1    0    0  501    0  0.00000000000E+00 -0.00000000000E+00 -0.28761404804E+03  0.28761685195E+03  0.12700000000E+01 0.  1.
         25    2    1    2    0    0  0.00000000000E+00  0.00000000000E+00 -0.27406268614E+03  0.30122759438E+03  0.12501083025E+03 0.  0.
    9000005    1    3    3    0    0 -0.49391493105E+02 -0.14843139635E+02 -0.22209059600E+03  0.22800234915E+03  0.10000000000E+01 0.  0.
    9000005    1    3    3    0    0  0.49391493105E+02  0.14843139635E+02 -0.51972090140E+02  0.73225245229E+02  0.10000000000E+01 0.  0.
<mgrwt>
<rscale>  0 0.12501083E+03</rscale>
<asrwt>0</asrwt>
<pdfrwt beam="2">  1        4 0.44253094E-01 0.12501083E+03</pdfrwt>
<pdfrwt beam="1">  1       -4 0.20896085E-02 0.12501083E+03</pdfrwt>
<totfact> 0.75426977E+03</totfact>
</mgrwt>
</event>
<event>
 5    1  0.3199195E-002  0.1249990E+03  0.7818608E-02  0.1235071E+00
         -4   -1    0    0    0  501 -0.00000000000E+00  0.00000000000E+00  0.17309832019E+03  0.17310297904E+03  0.12700000000E+01 0. -1.
          4   -1    0    0  501    0  0.00000000000E+00 -0.00000000000E+00 -0.22543452622E+02  0.22579197420E+02  0.12700000000E+01 0. -1.
         25    2    1    2    0    0  0.00000000000E+00  0.00000000000E+00  0.15055486757E+03  0.19568217646E+03  0.12499898414E+03 0.  0.
    9000005    1    3    3    0    0 -0.30476758739E+02 -0.15905919742E+02 -0.64178427592E+01  0.34985994509E+02  0.10000000000E+01 0.  0.
    9000005    1    3    3    0    0  0.30476758739E+02  0.15905919742E+02  0.15697271033E+03  0.16069618195E+03  0.10000000000E+01 0.  0.
<mgrwt>
<rscale>  0 0.12499898E+03</rscale>
<asrwt>0</asrwt>
<pdfrwt beam="2">  1        4 0.34713314E-02 0.12499898E+03</pdfrwt>
<pdfrwt beam="1">  1       -4 0.26633619E-01 0.12499898E+03</pdfrwt>
<totfact> 0.90869992E+03</totfact>
</mgrwt>
</event>
<event>
 5    1  0.3199195E-002  0.1249920E+03  0.7818608E-02  0.1235082E+00
          4   -1    0    0  501    0  0.00000000000E+00  0.00000000000E+00  0.19506637839E+03  0.19507051258E+03  0.12700000000E+01 0. -1.
         -4   -1    0    0    0  501 -0.00000000000E+00 -0.00000000000E+00 -0.19998167030E+02  0.20038452649E+02  0.12700000000E+01 0. -1.
         25    2    1    2    0    0  0.00000000000E+00  0.00000000000E+00  0.17506821136E+03  0.21510896523E+03  0.12499195291E+03 0.  0.
    9000005    1    3    3    0    0  0.49050957189E+02 -0.32893457573E+02  0.12266791715E+03  0.13614842580E+03  0.10000000000E+01 0.  0.
    9000005    1    3    3    0    0 -0.49050957189E+02  0.32893457573E+02  0.52400294210E+02  0.78960539420E+02  0.10000000000E+01 0.  0.
<mgrwt>
<rscale>  0 0.12499195E+03</rscale>
<asrwt>0</asrwt>
<pdfrwt beam="1">  1        4 0.30013628E-01 0.12499195E+03</pdfrwt>
<pdfrwt beam="2">  1       -4 0.30800581E-02 0.12499195E+03</pdfrwt>
<totfact> 0.87664021E+03</totfact>
</mgrwt>
</event>
<event>
 4    1  0.3199195E-002  0.1250713E+03  0.7818608E-02  0.1234958E+00
          4   -1    0    0  501    0  0.00000000000E+00  0.00000000000E+00  0.32376314470E+02  0.32401213537E+02  0.12700000000E+01 0. -1.
         -4   -1    0    0    0  501 -0.00000000000E+00 -0.00000000000E+00 -0.12071444823E+03  0.12072112869E+03  0.12700000000E+01 0. -1.
    9000005    1    1    2    0    0  0.20084284175E+02 -0.48191136493E+02 -0.20434536489E+01  0.52258394638E+02  0.10000000000E+01 0.  0.
    9000005    1    1    2    0    0 -0.20084284175E+02  0.48191136493E+02 -0.86294680115E+02  0.10086394759E+03  0.10000000000E+01 0.  0.
<mgrwt>
<rscale>  0 0.12507128E+03</rscale>
<asrwt>0</asrwt>
<pdfrwt beam="1">  1        4 0.49834007E-02 0.12507128E+03</pdfrwt>
<pdfrwt beam="2">  1       -4 0.18573883E-01 0.12507128E+03</pdfrwt>
<totfact> 0.98526813E+03</totfact>
</mgrwt>
</event>
<event>
 5    1  0.3199195E-002  0.1250355E+03  0.7818608E-02  0.1235014E+00
         -4   -1    0    0    0  501 -0.00000000000E+00  0.00000000000E+00  0.74599675103E+02  0.74610484689E+02  0.12700000000E+01 0. -1.
          4   -1    0    0  501    0  0.00000000000E+00 -0.00000000000E+00 -0.52370234291E+02  0.52385631042E+02  0.12700000000E+01 0. -1.
         25    2    1    2    0    0  0.00000000000E+00  0.00000000000E+00  0.22229440812E+02  0.12699611573E+03  0.12503545646E+03 0.  0.
    9000005    1    3    3    0    0  0.43419567964E+02  0.42858991661E+02 -0.27117622897E+01  0.61077865902E+02  0.10000000000E+01 0.  0.
    9000005    1    3    3    0    0 -0.43419567964E+02 -0.42858991661E+02  0.24941203102E+02  0.65918249829E+02  0.10000000000E+01 0.  0.
<mgrwt>
<rscale>  0 0.12503546E+03</rscale>
<asrwt>0</asrwt>
<pdfrwt beam="2">  1        4 0.80589750E-02 0.12503546E+03</pdfrwt>
<pdfrwt beam="1">  1       -4 0.11478889E-01 0.12503546E+03</pdfrwt>
<totfact> 0.10400903E+04</totfact>
</mgrwt>
</event>
<event>
 5    1  0.3199195E-002  0.1249999E+03  0.7818608E-02  0.1235069E+00
          4   -1    0    0  501    0  0.00000000000E+00  0.00000000000E+00  0.67219062718E+02  0.67231058988E+02  0.12700000000E+01 0. -1.
         -4   -1    0    0    0  501 -0.00000000000E+00 -0.00000000000E+00 -0.58088043544E+02  0.58101925121E+02  0.12700000000E+01 0. -1.
         25    2    1    2    0    0  0.00000000000E+00  0.00000000000E+00  0.91310191738E+01  0.12533298411E+03  0.12499992558E+03 0.  0.
    9000005    1    3    3    0    0 -0.19417549211E+02  0.57579058621E+02  0.19193973221E+02  0.63732235306E+02  0.10000000000E+01 0.  0.
    9000005    1    3    3    0    0  0.19417549211E+02 -0.57579058621E+02 -0.10062954047E+02  0.61600748804E+02  0.10000000000E+01 0.  0.
<mgrwt>
<rscale>  0 0.12499993E+03</rscale>
<asrwt>0</asrwt>
<pdfrwt beam="1">  1        4 0.10343385E-01 0.12499993E+03</pdfrwt>
<pdfrwt beam="2">  1       -4 0.89386127E-02 0.12499993E+03</pdfrwt>
<totfact> 0.10445652E+04</totfact>
</mgrwt>
</event>
<event>
 5    1  0.3199195E-002  0.1250036E+03  0.7818608E-02  0.1235064E+00
          4   -1    0    0  501    0  0.00000000000E+00  0.00000000000E+00  0.10903563354E+03  0.10904302950E+03  0.12700000000E+01 0. -1.
         -4   -1    0    0    0  501 -0.00000000000E+00 -0.00000000000E+00 -0.35807650127E+02  0.35830164772E+02  0.12700000000E+01 0. -1.
         25    2    1    2    0    0  0.00000000000E+00  0.00000000000E+00  0.73227983417E+02  0.14487319427E+03  0.12500361940E+03 0.  0.
    9000005    1    3    3    0    0 -0.13538829228E+02  0.22551880875E+02 -0.29085288757E+02  0.39228067120E+02  0.10000000000E+01 0.  0.
    9000005    1    3    3    0    0  0.13538829228E+02 -0.22551880875E+02  0.10231327217E+03  0.10564512715E+03  0.10000000000E+01 0.  0.
<mgrwt>
<rscale>  0 0.12500362E+03</rscale>
<asrwt>0</asrwt>
<pdfrwt beam="1">  1        4 0.16777014E-01 0.12500362E+03</pdfrwt>
<pdfrwt beam="2">  1       -4 0.55111701E-02 0.12500362E+03</pdfrwt>
<totfact> 0.10032748E+04</totfact>
</mgrwt>
</event>
<event>
 5    1  0.3199195E-002  0.1250010E+03  0.7818608E-02  0.1235068E+00
          4   -1    0    0  501    0  0.00000000000E+00  0.00000000000E+00  0.75456448818E+03  0.75456555694E+03  0.12700000000E+01 0.  1.
         -4   -1    0    0    0  501 -0.00000000000E+00 -0.00000000000E+00 -0.50979301367E+01  0.52537407320E+01  0.12700000000E+01 0.  1.
         25    2    1    2    0    0  0.00000000000E+00  0.00000000000E+00  0.74946655804E+03  0.75981929767E+03  0.12500097396E+03 0.  0.
    9000005    1    3    3    0    0  0.28644823567E+02  0.19126926827E+02  0.57778588003E+02  0.67273549621E+02  0.10000000000E+01 0.  0.
    9000005    1    3    3    0    0 -0.28644823567E+02 -0.19126926827E+02  0.69168797004E+03  0.69254574805E+03  0.10000000000E+01 0.  0.
<mgrwt>
<rscale>  0 0.12500097E+03</rscale>
<asrwt>0</asrwt>
<pdfrwt beam="1">  1        4 0.11609888E+00 0.12500097E+03</pdfrwt>
<pdfrwt beam="2">  1       -4 0.79636483E-03 0.12500097E+03</pdfrwt>
<totfact> 0.40107984E+03</totfact>
</mgrwt>
</event>
<event>
 5    1  0.3199195E-002  0.1249972E+03  0.7818608E-02  0.1235074E+00
          4   -1    0    0  501    0  0.00000000000E+00  0.00000000000E+00  0.49421728517E+03  0.49421891694E+03  0.12700000000E+01 0. -1.
         -4   -1    0    0    0  501 -0.00000000000E+00 -0.00000000000E+00 -0.78508814346E+01  0.79529390353E+01  0.12700000000E+01 0. -1.
         25    2    1    2    0    0  0.00000000000E+00  0.00000000000E+00  0.48636640373E+03  0.50217185597E+03  0.12499717697E+03 0.  0.
    9000005    1    3    3    0    0  0.46936545723E+02 -0.41255249883E+02  0.24397246058E+03  0.25185034542E+03  0.10000000000E+01 0.  0.
    9000005    1    3    3    0    0 -0.46936545723E+02  0.41255249883E+02  0.24239394316E+03  0.25032151055E+03  0.10000000000E+01 0.  0.
<mgrwt>
<rscale>  0 0.12499718E+03</rscale>
<asrwt>0</asrwt>
<pdfrwt beam="1">  1        4 0.76041425E-01 0.12499718E+03</pdfrwt>
<pdfrwt beam="2">  1       -4 0.12158037E-02 0.12499718E+03</pdfrwt>
<totfact> 0.55699696E+03</totfact>
</mgrwt>
</event>
<event>
 4    1  0.3199195E-002  0.1254384E+03  0.7818608E-02  0.1234386E+00
          4   -1    0    0  501    0  0.00000000000E+00  0.00000000000E+00  0.57901738746E+01  0.59278169252E+01  0.12700000000E+01 0. -1.
         -4   -1    0    0    0  501 -0.00000000000E+00 -0.00000000000E+00 -0.67125640988E+03  0.67125761129E+03  0.12700000000E+01 0. -1.
    9000005    1    1    2    0    0  0.55635717478E+02  0.24706493254E+02 -0.41406229060E+03  0.41851442552E+03  0.10000000000E+01 0.  0.
    9000005    1    1    2    0    0 -0.55635717478E+02 -0.24706493254E+02 -0.25140394541E+03  0.25867100269E+03  0.10000000000E+01 0.  0.
<mgrwt>
<rscale>  0 0.12543840E+03</rscale>
<asrwt>0</asrwt>
<pdfrwt beam="1">  1        4 0.90147685E-03 0.12543840E+03</pdfrwt>
<pdfrwt beam="2">  1       -4 0.10328084E+00 0.12543840E+03</pdfrwt>
<totfact> 0.43896178E+03</totfact>
</mgrwt>
</event>
<event>
 5    1  0.3199195E-002  0.1249924E+03  0.7818608E-02  0.1235081E+00
          4   -1    0    0  501    0  0.00000000000E+00  0.00000000000E+00  0.16023449594E+03  0.16023952879E+03  0.12700000000E+01 0.  1.
         -4   -1    0    0    0  501 -0.00000000000E+00 -0.00000000000E+00 -0.24353410580E+02  0.24386502555E+02  0.12700000000E+01 0.  1.
         25    2    1    2    0    0  0.00000000000E+00  0.00000000000E+00  0.13588108536E+03  0.18462603135E+03  0.12499240815E+03 0.  0.
    9000005    1    3    3    0    0 -0.50651522661E+02 -0.34750826684E+02  0.84884010152E+02  0.10478307059E+03  0.10000000000E+01 0.  0.
    9000005    1    3    3    0    0  0.50651522661E+02  0.34750826684E+02  0.50997075204E+02  0.79842960757E+02  0.10000000000E+01 0.  0.
<mgrwt>
<rscale>  0 0.12499241E+03</rscale>
<asrwt>0</asrwt>
<pdfrwt beam="1">  1        4 0.24654393E-01 0.12499241E+03</pdfrwt>
<pdfrwt beam="2">  1       -4 0.37496113E-02 0.12499241E+03</pdfrwt>
<totfact> 0.92806658E+03</totfact>
</mgrwt>
</event>
<event>
 5    1  0.3199195E-002  0.1250003E+03  0.7818608E-02  0.1235069E+00
          4   -1    0    0  501    0  0.00000000000E+00  0.00000000000E+00  0.26713471781E+02  0.26743643630E+02  0.12700000000E+01 0. -1.
         -4   -1    0    0    0  501 -0.00000000000E+00 -0.00000000000E+00 -0.14611291996E+03  0.14611843922E+03  0.12700000000E+01 0. -1.
         25    2    1    2    0    0  0.00000000000E+00  0.00000000000E+00 -0.11939944818E+03  0.17286208285E+03  0.12500028584E+03 0.  0.
    9000005    1    3    3    0    0 -0.30093740268E+02 -0.52691535511E+02 -0.80361687037E+02  0.10070269044E+03  0.10000000000E+01 0.  0.
    9000005    1    3    3    0    0  0.30093740268E+02  0.52691535511E+02 -0.39037761141E+02  0.72159392408E+02  0.10000000000E+01 0.  0.
<mgrwt>
<rscale>  0 0.12500029E+03</rscale>
<asrwt>0</asrwt>
<pdfrwt beam="1">  1        4 0.41125104E-02 0.12500029E+03</pdfrwt>
<pdfrwt beam="2">  1       -4 0.22481656E-01 0.12500029E+03</pdfrwt>
<totfact> 0.94917251E+03</totfact>
</mgrwt>
</event>
<event>
 5    1  0.3199195E-002  0.1250021E+03  0.7818608E-02  0.1235066E+00
         -4   -1    0    0    0  501 -0.00000000000E+00  0.00000000000E+00  0.30345641782E+03  0.30345907535E+03  0.12700000000E+01 0. -1.
          4   -1    0    0  501    0  0.00000000000E+00 -0.00000000000E+00 -0.12838904538E+02  0.12901564624E+02  0.12700000000E+01 0. -1.
         25    2    1    2    0    0  0.00000000000E+00  0.00000000000E+00  0.29061751328E+03  0.31636063998E+03  0.12500206199E+03 0.  0.
    9000005    1    3    3    0    0 -0.19732354873E+02  0.58786908151E+02  0.12568656198E+03  0.14015483674E+03  0.10000000000E+01 0.  0.
    9000005    1    3    3    0    0  0.19732354873E+02 -0.58786908151E+02  0.16493095130E+03  0.17620580324E+03  0.10000000000E+01 0.  0.
<mgrwt>
<rscale>  0 0.12500206E+03</rscale>
<asrwt>0</asrwt>
<pdfrwt beam="2">  1        4 0.19802404E-02 0.12500206E+03</pdfrwt>
<pdfrwt beam="1">  1       -4 0.46690631E-01 0.12500206E+03</pdfrwt>
<totfact> 0.73587711E+03</totfact>
</mgrwt>
</event>
<event>
 5    1  0.3199195E-002  0.1249918E+03  0.7818608E-02  0.1235082E+00
         -4   -1    0    0    0  501 -0.00000000000E+00  0.00000000000E+00  0.52093165488E+03  0.52093320297E+03  0.12700000000E+01 0.  1.
          4   -1    0    0  501    0  0.00000000000E+00 -0.00000000000E+00 -0.74422520851E+01  0.75498355014E+01  0.12700000000E+01 0.  1.
         25    2    1    2    0    0  0.00000000000E+00  0.00000000000E+00  0.51348940280E+03  0.52848303847E+03  0.12499182041E+03 0.  0.
    9000005    1    3    3    0    0  0.48578790191E+02 -0.24011029349E+02  0.38831466647E+03  0.39207870203E+03  0.10000000000E+01 0.  0.
    9000005    1    3    3    0    0 -0.48578790191E+02  0.24011029349E+02  0.12517473632E+03  0.13640433644E+03  0.10000000000E+01 0.  0.
<mgrwt>
<rscale>  0 0.12499182E+03</rscale>
<asrwt>0</asrwt>
<pdfrwt beam="2">  1        4 0.11533561E-02 0.12499182E+03</pdfrwt>
<pdfrwt beam="1">  1       -4 0.80151759E-01 0.12499182E+03</pdfrwt>
<totfact> 0.53729867E+03</totfact>
</mgrwt>
</event>
<event>
 5    1  0.3199195E-002  0.1249973E+03  0.7818608E-02  0.1235073E+00
         -4   -1    0    0    0  501 -0.00000000000E+00  0.00000000000E+00  0.24110113375E+03  0.24110447859E+03  0.12700000000E+01 0.  1.
          4   -1    0    0  501    0  0.00000000000E+00 -0.00000000000E+00 -0.16172656101E+02  0.16222444494E+02  0.12700000000E+01 0.  1.
         25    2    1    2    0    0  0.00000000000E+00  0.00000000000E+00  0.22492847765E+03  0.25732692309E+03  0.12499730111E+03 0.  0.
    9000005    1    3    3    0    0 -0.35907448536E+02  0.47290040839E+02  0.15256260444E+03  0.16371328931E+03  0.10000000000E+01 0.  0.
    9000005    1    3    3    0    0  0.35907448536E+02 -0.47290040839E+02  0.72365873208E+02  0.93613633772E+02  0.10000000000E+01 0.  0.
<mgrwt>
<rscale>  0 0.12499730E+03</rscale>
<asrwt>0</asrwt>
<pdfrwt beam="2">  1        4 0.24921881E-02 0.12499730E+03</pdfrwt>
<pdfrwt beam="1">  1       -4 0.37096569E-01 0.12499730E+03</pdfrwt>
<totfact> 0.81287542E+03</totfact>
</mgrwt>
</event>
<event>
 5    1  0.3199195E-002  0.1249995E+03  0.7818608E-02  0.1235070E+00
          4   -1    0    0  501    0  0.00000000000E+00  0.00000000000E+00  0.51982846596E+03  0.51983001733E+03  0.12700000000E+01 0. -1.
         -4   -1    0    0    0  501 -0.00000000000E+00 -0.00000000000E+00 -0.74592059262E+01  0.75665482917E+01  0.12700000000E+01 0. -1.
         25    2    1    2    0    0  0.00000000000E+00  0.00000000000E+00  0.51236926003E+03  0.52739656562E+03  0.12499951523E+03 0.  0.
    9000005    1    3    3    0    0 -0.77719969358E+01 -0.56096198968E+02  0.14471239587E+03  0.15540226830E+03  0.10000000000E+01 0.  0.
    9000005    1    3    3    0    0  0.77719969358E+01  0.56096198968E+02  0.36765686416E+03  0.37199429732E+03  0.10000000000E+01 0.  0.
<mgrwt>
<rscale>  0 0.12499952E+03</rscale>
<asrwt>0</asrwt>
<pdfrwt beam="1">  1        4 0.79982015E-01 0.12499952E+03</pdfrwt>
<pdfrwt beam="2">  1       -4 0.11559462E-02 0.12499952E+03</pdfrwt>
<totfact> 0.53800227E+03</totfact>
</mgrwt>
</event>
<event>
 5    1  0.3199195E-002  0.1249997E+03  0.7818608E-02  0.1235070E+00
         -4   -1    0    0    0  501 -0.00000000000E+00  0.00000000000E+00  0.14014259950E+03  0.14014835388E+03  0.12700000000E+01 0. -1.
          4   -1    0    0  501    0  0.00000000000E+00 -0.00000000000E+00 -0.27852461077E+02  0.27881400396E+02  0.12700000000E+01 0. -1.
         25    2    1    2    0    0  0.00000000000E+00  0.00000000000E+00  0.11229013842E+03  0.16802975428E+03  0.12499969254E+03 0.  0.
    9000005    1    3    3    0    0  0.57755032251E+02  0.14068546012E+02  0.82060112502E+02  0.10133326108E+03  0.10000000000E+01 0.  0.
    9000005    1    3    3    0    0 -0.57755032251E+02 -0.14068546012E+02  0.30230025923E+02  0.66696493195E+02  0.10000000000E+01 0.  0.
<mgrwt>
<rscale>  0 0.12499969E+03</rscale>
<asrwt>0</asrwt>
<pdfrwt beam="2">  1        4 0.42876627E-02 0.12499969E+03</pdfrwt>
<pdfrwt beam="1">  1       -4 0.21563069E-01 0.12499969E+03</pdfrwt>
<totfact> 0.95817323E+03</totfact>
</mgrwt>
</event>
<event>
 5    1  0.3199195E-002  0.1249999E+03  0.7818608E-02  0.1235070E+00
          4   -1    0    0  501    0  0.00000000000E+00  0.00000000000E+00  0.11808823980E+03  0.11809506882E+03  0.12700000000E+01 0.  1.
         -4   -1    0    0    0  501 -0.00000000000E+00 -0.00000000000E+00 -0.33059020057E+02  0.33083405313E+02  0.12700000000E+01 0.  1.
         25    2    1    2    0    0  0.00000000000E+00  0.00000000000E+00  0.85029219743E+02  0.15117847413E+03  0.12499985132E+03 0.  0.
    9000005    1    3    3    0    0 -0.49126039689E+01  0.66024004848E+00 -0.32826823792E+02  0.33214002393E+02  0.10000000000E+01 0.  0.
    9000005    1    3    3    0    0  0.49126039689E+01 -0.66024004848E+00  0.11785604354E+03  0.11796447174E+03  0.10000000000E+01 0.  0.
<mgrwt>
<rscale>  0 0.12499985E+03</rscale>
<asrwt>0</asrwt>
<pdfrwt beam="1">  1        4 0.18169822E-01 0.12499985E+03</pdfrwt>
<pdfrwt beam="2">  1       -4 0.50884042E-02 0.12499985E+03</pdfrwt>
<totfact> 0.99069636E+03</totfact>
</mgrwt>
</event>
<event>
 5    1  0.3199195E-002  0.1250009E+03  0.7818608E-02  0.1235068E+00
         -4   -1    0    0    0  501 -0.00000000000E+00  0.00000000000E+00  0.88370767441E+02  0.88379892726E+02  0.12700000000E+01 0.  1.
          4   -1    0    0  501    0  0.00000000000E+00 -0.00000000000E+00 -0.44183099260E+02  0.44201347945E+02  0.12700000000E+01 0.  1.
         25    2    1    2    0    0  0.00000000000E+00  0.00000000000E+00  0.44187668182E+02  0.13258124067E+03  0.12500094143E+03 0.  0.
    9000005    1    3    3    0    0  0.35619342566E+02 -0.13961884238E+02  0.74503253580E+02  0.83758023916E+02  0.10000000000E+01 0.  0.
    9000005    1    3    3    0    0 -0.35619342566E+02  0.13961884238E+02 -0.30315585398E+02  0.48823216755E+02  0.10000000000E+01 0.  0.
<mgrwt>
<rscale>  0 0.12500094E+03</rscale>
<asrwt>0</asrwt>
<pdfrwt beam="2">  1        4 0.67995056E-02 0.12500094E+03</pdfrwt>
<pdfrwt beam="1">  1       -4 0.13597608E-01 0.12500094E+03</pdfrwt>
<totfact> 0.10289089E+04</totfact>
</mgrwt>
</event>
<event>
 5    1  0.3199195E-002  0.1250010E+03  0.7818608E-02  0.1235068E+00
          4   -1    0    0  501    0  0.00000000000E+00  0.00000000000E+00  0.47070490640E+02  0.47087620338E+02  0.12700000000E+01 0.  1.
         -4   -1    0    0    0  501 -0.00000000000E+00 -0.00000000000E+00 -0.82951457489E+02  0.82961178870E+02  0.12700000000E+01 0.  1.
         25    2    1    2    0    0  0.00000000000E+00  0.00000000000E+00 -0.35880966849E+02  0.13004879921E+03  0.12500098557E+03 0.  0.
    9000005    1    3    3    0    0  0.52298080983E+02  0.22012869579E+02  0.93019574508E+01  0.57508104768E+02  0.10000000000E+01 0.  0.
    9000005    1    3    3    0    0 -0.52298080983E+02 -0.22012869579E+02 -0.45182924300E+02  0.72540694440E+02  0.10000000000E+01 0.  0.
<mgrwt>
<rscale>  0 0.12500099E+03</rscale>
<asrwt>0</asrwt>
<pdfrwt beam="1">  1        4 0.72436794E-02 0.12500099E+03</pdfrwt>
<pdfrwt beam="2">  1       -4 0.12763828E-01 0.12500099E+03</pdfrwt>
<totfact> 0.10343234E+04</totfact>
</mgrwt>
</event>
<event>
 5    1  0.3199195E-002  0.1250176E+03  0.7818608E-02  0.1235042E+00
          4   -1    0    0  501    0  0.00000000000E+00  0.00000000000E+00  0.14196482941E+03  0.14197050993E+03  0.12700000000E+01 0. -1.
         -4   -1    0    0    0  501 -0.00000000000E+00 -0.00000000000E+00 -0.27502477204E+02  0.27531784402E+02  0.12700000000E+01 0. -1.
         25    2    1    2    0    0  0.00000000000E+00  0.00000000000E+00  0.11446235220E+03  0.16950229433E+03  0.12501758960E+03 0.  0.
    9000005    1    3    3    0    0 -0.17484627771E+02  0.11267676346E+02 -0.22678460728E+02  0.30789370236E+02  0.10000000000E+01 0.  0.
    9000005    1    3    3    0    0  0.17484627771E+02 -0.11267676346E+02  0.13714081293E+03  0.13871292409E+03  0.10000000000E+01 0.  0.
<mgrwt>
<rscale>  0 0.12501759E+03</rscale>
<asrwt>0</asrwt>
<pdfrwt beam="1">  1        4 0.21843435E-01 0.12501759E+03</pdfrwt>
<pdfrwt beam="2">  1       -4 0.42338416E-02 0.12501759E+03</pdfrwt>
<totfact> 0.95503733E+03</totfact>
</mgrwt>
</event>
<event>
 5    1  0.3199195E-002  0.1249994E+03  0.7818608E-02  0.1235070E+00
          4   -1    0    0  501    0  0.00000000000E+00  0.00000000000E+00  0.48908658286E+02  0.48925144408E+02  0.12700000000E+01 0. -1.
         -4   -1    0    0    0  501 -0.00000000000E+00 -0.00000000000E+00 -0.79832557165E+02  0.79842658294E+02  0.12700000000E+01 0. -1.
         25    2    1    2    0    0  0.00000000000E+00  0.00000000000E+00 -0.30923898879E+02  0.12876780270E+03  0.12499943796E+03 0.  0.
    9000005    1    3    3    0    0 -0.26432102927E+02  0.23883133154E+02 -0.68353302332E+02  0.77085887516E+02  0.10000000000E+01 0.  0.
    9000005    1    3    3    0    0  0.26432102927E+02 -0.23883133154E+02  0.37429403453E+02  0.51681915186E+02  0.10000000000E+01 0.  0.
<mgrwt>
<rscale>  0 0.12499944E+03</rscale>
<asrwt>0</asrwt>
<pdfrwt beam="1">  1        4 0.75264542E-02 0.12499944E+03</pdfrwt>
<pdfrwt beam="2">  1       -4 0.12283977E-01 0.12499944E+03</pdfrwt>
<totfact> 0.10371071E+04</totfact>
</mgrwt>
</event>
<event>
 5    1  0.3199195E-002  0.1249923E+03  0.7818608E-02  0.1235081E+00
          4   -1    0    0  501    0  0.00000000000E+00  0.00000000000E+00  0.84933239154E+02  0.84942733728E+02  0.12700000000E+01 0.  1.
         -4   -1    0    0    0  501 -0.00000000000E+00 -0.00000000000E+00 -0.45965499327E+02  0.45983040660E+02  0.12700000000E+01 0.  1.
         25    2    1    2    0    0  0.00000000000E+00  0.00000000000E+00  0.38967739827E+02  0.13092577439E+03  0.12499229437E+03 0.  0.
    9000005    1    3    3    0    0  0.13793116482E+02 -0.50886973205E+01  0.83101000444E+02  0.84397400300E+02  0.10000000000E+01 0.  0.
    9000005    1    3    3    0    0 -0.13793116482E+02  0.50886973205E+01 -0.44133260616E+02  0.46528374088E+02  0.10000000000E+01 0.  0.
<mgrwt>
<rscale>  0 0.12499229E+03</rscale>
<asrwt>0</asrwt>
<pdfrwt beam="1">  1        4 0.13068732E-01 0.12499229E+03</pdfrwt>
<pdfrwt beam="2">  1       -4 0.70736951E-02 0.12499229E+03</pdfrwt>
<totfact> 0.10326476E+04</totfact>
</mgrwt>
</event>
<event>
 5    1  0.3199195E-002  0.1249987E+03  0.7818608E-02  0.1235071E+00
          4   -1    0    0  501    0  0.00000000000E+00  0.00000000000E+00  0.47740352000E+02  0.47757241430E+02  0.12700000000E+01 0.  1.
         -4   -1    0    0    0  501 -0.00000000000E+00 -0.00000000000E+00 -0.81784821679E+02  0.81794681716E+02  0.12700000000E+01 0.  1.
         25    2    1    2    0    0  0.00000000000E+00  0.00000000000E+00 -0.34044469679E+02  0.12955192315E+03  0.12499869949E+03 0.  0.
    9000005    1    3    3    0    0  0.94807415029E+01 -0.61468601085E+02 -0.23317646415E+02  0.66430309446E+02  0.10000000000E+01 0.  0.
    9000005    1    3    3    0    0 -0.94807415029E+01  0.61468601085E+02 -0.10726823264E+02  0.63121613700E+02  0.10000000000E+01 0.  0.
<mgrwt>
<rscale>  0 0.12499870E+03</rscale>
<asrwt>0</asrwt>
<pdfrwt beam="1">  1        4 0.73467272E-02 0.12499870E+03</pdfrwt>
<pdfrwt beam="2">  1       -4 0.12584338E-01 0.12499870E+03</pdfrwt>
<totfact> 0.10354406E+04</totfact>
</mgrwt>
</event>
<event>
 5    1  0.3199195E-002  0.1250003E+03  0.7818608E-02  0.1235069E+00
         -4   -1    0    0    0  501 -0.00000000000E+00  0.00000000000E+00  0.24715325296E+02  0.24747933338E+02  0.12700000000E+01 0.  1.
          4   -1    0    0  501    0  0.00000000000E+00 -0.00000000000E+00 -0.15791113443E+03  0.15791624133E+03  0.12700000000E+01 0.  1.
         25    2    1    2    0    0  0.00000000000E+00  0.00000000000E+00 -0.13319580913E+03  0.18266417467E+03  0.12500030855E+03 0.  0.
    9000005    1    3    3    0    0 -0.40133706287E+02 -0.36096564424E+02 -0.20581889441E+02  0.57777941435E+02  0.10000000000E+01 0.  0.
    9000005    1    3    3    0    0  0.40133706287E+02  0.36096564424E+02 -0.11261391969E+03  0.12488623324E+03  0.10000000000E+01 0.  0.
<mgrwt>
<rscale>  0 0.12500031E+03</rscale>
<asrwt>0</asrwt>
<pdfrwt beam="2">  1        4 0.24296921E-01 0.12500031E+03</pdfrwt>
<pdfrwt beam="1">  1       -4 0.38052590E-02 0.12500031E+03</pdfrwt>
<totfact> 0.93138986E+03</totfact>
</mgrwt>
</event>
<event>
 5    1  0.3199195E-002  0.1250014E+03  0.7818608E-02  0.1235067E+00
          4   -1    0    0  501    0  0.00000000000E+00  0.00000000000E+00  0.12028050876E+04  0.12028057581E+04  0.12700000000E+01 0.  1.
         -4   -1    0    0    0  501 -0.00000000000E+00 -0.00000000000E+00 -0.31228354229E+01  0.33712017262E+01  0.12700000000E+01 0.  1.
         25    2    1    2    0    0  0.00000000000E+00  0.00000000000E+00  0.11996822522E+04  0.12061769598E+04  0.12500140865E+03 0.  0.
    9000005    1    3    3    0    0  0.20929844589E+02  0.54818863904E+02  0.39239857437E+03  0.39676291082E+03  0.10000000000E+01 0.  0.
    9000005    1    3    3    0    0 -0.20929844589E+02 -0.54818863904E+02  0.80728367782E+03  0.80941404899E+03  0.10000000000E+01 0.  0.
<mgrwt>
<rscale>  0 0.12500141E+03</rscale>
<asrwt>0</asrwt>
<pdfrwt beam="1">  1        4 0.18506617E+00 0.12500141E+03</pdfrwt>
<pdfrwt beam="2">  1       -4 0.49959269E-03 0.12500141E+03</pdfrwt>
<totfact> 0.24550870E+03</totfact>
</mgrwt>
</event>
<event>
 5    1  0.3199195E-002  0.1249977E+03  0.7818608E-02  0.1235073E+00
          4   -1    0    0  501    0  0.00000000000E+00  0.00000000000E+00  0.78470716503E+01  0.79491781641E+01  0.12700000000E+01 0.  1.
         -4   -1    0    0    0  501 -0.00000000000E+00 -0.00000000000E+00 -0.49445836108E+03  0.49445999205E+03  0.12700000000E+01 0.  1.
         25    2    1    2    0    0  0.00000000000E+00  0.00000000000E+00 -0.48661128943E+03  0.50240917021E+03  0.12499770925E+03 0.  0.
    9000005    1    3    3    0    0  0.35808477871E+01  0.13527512104E+02  0.14884536684E+01  0.14107854157E+02  0.10000000000E+01 0.  0.
    9000005    1    3    3    0    0 -0.35808477871E+01 -0.13527512104E+02 -0.48809974309E+03  0.48830131606E+03  0.10000000000E+01 0.  0.
<mgrwt>
<rscale>  0 0.12499771E+03</rscale>
<asrwt>0</asrwt>
<pdfrwt beam="1">  1        4 0.12152220E-02 0.12499771E+03</pdfrwt>
<pdfrwt beam="2">  1       -4 0.76078473E-01 0.12499771E+03</pdfrwt>
<totfact> 0.55680743E+03</totfact>
</mgrwt>
</event>
<event>
 5    1  0.3199195E-002  0.1249949E+03  0.7818608E-02  0.1235077E+00
          4   -1    0    0  501    0  0.00000000000E+00  0.00000000000E+00  0.34891188425E+02  0.34914294060E+02  0.12700000000E+01 0.  1.
         -4   -1    0    0    0  501 -0.00000000000E+00 -0.00000000000E+00 -0.11188228857E+03  0.11188949636E+03  0.12700000000E+01 0.  1.
         25    2    1    2    0    0  0.00000000000E+00  0.00000000000E+00 -0.76991100143E+02  0.14680379042E+03  0.12499489341E+03 0.  0.
    9000005    1    3    3    0    0  0.54964911949E+02  0.24594025444E+01 -0.73291452277E+02  0.91650571102E+02  0.10000000000E+01 0.  0.
    9000005    1    3    3    0    0 -0.54964911949E+02 -0.24594025444E+01 -0.36996478657E+01  0.55153219315E+02  0.10000000000E+01 0.  0.
<mgrwt>
<rscale>  0 0.12499489E+03</rscale>
<asrwt>0</asrwt>
<pdfrwt beam="1">  1        4 0.53702070E-02 0.12499489E+03</pdfrwt>
<pdfrwt beam="2">  1       -4 0.17214991E-01 0.12499489E+03</pdfrwt>
<totfact> 0.99956165E+03</totfact>
</mgrwt>
</event>
<event>
 5    1  0.3199195E-002  0.1250230E+03  0.7818608E-02  0.1235033E+00
         -4   -1    0    0    0  501 -0.00000000000E+00  0.00000000000E+00  0.10246047750E+02  0.10324456135E+02  0.12700000000E+01 0. -1.
          4   -1    0    0  501    0  0.00000000000E+00 -0.00000000000E+00 -0.37985184504E+03  0.37985396809E+03  0.12700000000E+01 0. -1.
         25    2    1    2    0    0  0.00000000000E+00  0.00000000000E+00 -0.36960579729E+03  0.39017842423E+03  0.12502302727E+03 0.  0.
    9000005    1    3    3    0    0 -0.55191144370E+02  0.16521153992E+02 -0.10914694660E+03  0.12342231118E+03  0.10000000000E+01 0.  0.
    9000005    1    3    3    0    0  0.55191144370E+02 -0.16521153992E+02 -0.26045885069E+03  0.26675611305E+03  0.10000000000E+01 0.  0.
<mgrwt>
<rscale>  0 0.12502303E+03</rscale>
<asrwt>0</asrwt>
<pdfrwt beam="2">  1        4 0.58444929E-01 0.12502303E+03</pdfrwt>
<pdfrwt beam="1">  1       -4 0.15825101E-02 0.12502303E+03</pdfrwt>
<totfact> 0.65486059E+03</totfact>
</mgrwt>
</event>
<event>
 5    1  0.3199195E-002  0.1249965E+03  0.7818608E-02  0.1235075E+00
         -4   -1    0    0    0  501 -0.00000000000E+00  0.00000000000E+00  0.60225823082E+01  0.61550302727E+01  0.12700000000E+01 0.  1.
          4   -1    0    0  501    0  0.00000000000E+00 -0.00000000000E+00 -0.64137733541E+03  0.64137859278E+03  0.12700000000E+01 0.  1.
         25    2    1    2    0    0  0.00000000000E+00  0.00000000000E+00 -0.63535475310E+03  0.64753362305E+03  0.12499652274E+03 0.  0.
    9000005    1    3    3    0    0  0.24936328560E+01 -0.14287102761E+02 -0.27912106440E+01  0.14803052623E+02  0.10000000000E+01 0.  0.
    9000005    1    3    3    0    0 -0.24936328560E+01  0.14287102761E+02 -0.63256354246E+03  0.63273057043E+03  0.10000000000E+01 0.  0.
<mgrwt>
<rscale>  0 0.12499652E+03</rscale>
<asrwt>0</asrwt>
<pdfrwt beam="2">  1        4 0.98683668E-01 0.12499652E+03</pdfrwt>
<pdfrwt beam="1">  1       -4 0.93683666E-03 0.12499652E+03</pdfrwt>
<totfact> 0.46001712E+03</totfact>
</mgrwt>
</event>
<event>
 5    1  0.3199195E-002  0.1249994E+03  0.7818608E-02  0.1235070E+00
         -4   -1    0    0    0  501 -0.00000000000E+00  0.00000000000E+00  0.43633131653E+02  0.43651610255E+02  0.12700000000E+01 0. -1.
          4   -1    0    0  501    0  0.00000000000E+00 -0.00000000000E+00 -0.89482022013E+02  0.89491033984E+02  0.12700000000E+01 0. -1.
         25    2    1    2    0    0  0.00000000000E+00  0.00000000000E+00 -0.45848890360E+02  0.13314264424E+03  0.12499937187E+03 0.  0.
    9000005    1    3    3    0    0  0.60131372192E+02  0.35354010074E+01 -0.40649768340E+02  0.72675199677E+02  0.10000000000E+01 0.  0.
    9000005    1    3    3    0    0 -0.60131372192E+02 -0.35354010074E+01 -0.51991220197E+01  0.60467444561E+02  0.10000000000E+01 0.  0.
<mgrwt>
<rscale>  0 0.12499937E+03</rscale>
<asrwt>0</asrwt>
<pdfrwt beam="2">  1        4 0.13768580E-01 0.12499937E+03</pdfrwt>
<pdfrwt beam="1">  1       -4 0.67149042E-02 0.12499937E+03</pdfrwt>
<totfact> 0.10277515E+04</totfact>
</mgrwt>
</event>
<event>
 5    1  0.3199195E-002  0.1249989E+03  0.7818608E-02  0.1235071E+00
         -4   -1    0    0    0  501 -0.00000000000E+00  0.00000000000E+00  0.38070702500E+02  0.38091879566E+02  0.12700000000E+01 0. -1.
          4   -1    0    0  501    0  0.00000000000E+00 -0.00000000000E+00 -0.10254976088E+03  0.10255762456E+03  0.12700000000E+01 0. -1.
         25    2    1    2    0    0  0.00000000000E+00  0.00000000000E+00 -0.64479058379E+02  0.14064950413E+03  0.12499893617E+03 0.  0.
    9000005    1    3    3    0    0 -0.33308913754E+02 -0.23173555624E+02  0.21236583233E+02  0.45809277261E+02  0.10000000000E+01 0.  0.
    9000005    1    3    3    0    0  0.33308913754E+02  0.23173555624E+02 -0.85715641612E+02  0.94840226870E+02  0.10000000000E+01 0.  0.
<mgrwt>
<rscale>  0 0.12499894E+03</rscale>
<asrwt>0</asrwt>
<pdfrwt beam="2">  1        4 0.15779120E-01 0.12499894E+03</pdfrwt>
<pdfrwt beam="1">  1       -4 0.58592651E-02 0.12499894E+03</pdfrwt>
<totfact> 0.10120385E+04</totfact>
</mgrwt>
</event>
<event>
 5    1  0.3199195E-002  0.1249976E+03  0.7818608E-02  0.1235073E+00
         -4   -1    0    0    0  501 -0.00000000000E+00  0.00000000000E+00  0.30456739010E+03  0.30457003794E+03  0.12700000000E+01 0. -1.
          4   -1    0    0  501    0  0.00000000000E+00 -0.00000000000E+00 -0.12790916466E+02  0.12853810487E+02  0.12700000000E+01 0. -1.
         25    2    1    2    0    0  0.00000000000E+00  0.00000000000E+00  0.29177647363E+03  0.31742384843E+03  0.12499755592E+03 0.  0.
    9000005    1    3    3    0    0  0.29853993111E+02 -0.12311245576E+02  0.28174876492E+03  0.28359512374E+03  0.10000000000E+01 0.  0.
    9000005    1    3    3    0    0 -0.29853993111E+02  0.12311245576E+02  0.10027708711E+02  0.33828724692E+02  0.10000000000E+01 0.  0.
<mgrwt>
<rscale>  0 0.12499756E+03</rscale>
<asrwt>0</asrwt>
<pdfrwt beam="2">  1        4 0.19728751E-02 0.12499756E+03</pdfrwt>
<pdfrwt beam="1">  1       -4 0.46861560E-01 0.12499756E+03</pdfrwt>
<totfact> 0.73467557E+03</totfact>
</mgrwt>
</event>
<event>
 5    1  0.3199195E-002  0.1249956E+03  0.7818608E-02  0.1235076E+00
          4   -1    0    0  501    0  0.00000000000E+00  0.00000000000E+00  0.49855650245E+03  0.49855812002E+03  0.12700000000E+01 0. -1.
         -4   -1    0    0    0  501 -0.00000000000E+00 -0.00000000000E+00 -0.77814578020E+01  0.78844140889E+01  0.12700000000E+01 0. -1.
         25    2    1    2    0    0  0.00000000000E+00  0.00000000000E+00  0.49077504465E+03  0.50644253411E+03  0.12499558353E+03 0.  0.
    9000005    1    3    3    0    0  0.37201172223E+02  0.30486750419E+02  0.40702911699E+03  0.40986225887E+03  0.10000000000E+01 0.  0.
    9000005    1    3    3    0    0 -0.37201172223E+02 -0.30486750419E+02  0.83745927653E+02  0.96580275235E+02  0.10000000000E+01 0.  0.
<mgrwt>
<rscale>  0 0.12499558E+03</rscale>
<asrwt>0</asrwt>
<pdfrwt beam="1">  1        4 0.76709062E-01 0.12499558E+03</pdfrwt>
<pdfrwt beam="2">  1       -4 0.12051912E-02 0.12499558E+03</pdfrwt>
<totfact> 0.55373314E+03</totfact>
</mgrwt>
</event>
<event>
 5    1  0.3199195E-002  0.1250108E+03  0.7818608E-02  0.1235052E+00
         -4   -1    0    0    0  501 -0.00000000000E+00  0.00000000000E+00  0.19104443154E+03  0.19104865276E+03  0.12700000000E+01 0. -1.
          4   -1    0    0  501    0  0.00000000000E+00 -0.00000000000E+00 -0.20426189850E+02  0.20465632944E+02  0.12700000000E+01 0. -1.
         25    2    1    2    0    0  0.00000000000E+00  0.00000000000E+00  0.17061824169E+03  0.21151428571E+03  0.12501083417E+03 0.  0.
    9000005    1    3    3    0    0 -0.33456861764E+02 -0.52033947742E+02  0.70267362175E+02  0.93623690932E+02  0.10000000000E+01 0.  0.
    9000005    1    3    3    0    0  0.33456861764E+02  0.52033947742E+02  0.10035087951E+03  0.11789059477E+03  0.10000000000E+01 0.  0.
<mgrwt>
<rscale>  0 0.12501083E+03</rscale>
<asrwt>0</asrwt>
<pdfrwt beam="2">  1        4 0.31458495E-02 0.12501083E+03</pdfrwt>
<pdfrwt beam="1">  1       -4 0.29394810E-01 0.12501083E+03</pdfrwt>
<totfact> 0.88207809E+03</totfact>
</mgrwt>
</event>
<event>
 5    1  0.3199195E-002  0.1250037E+03  0.7818608E-02  0.1235064E+00
         -4   -1    0    0    0  501 -0.00000000000E+00  0.00000000000E+00  0.27157583245E+03  0.27157880195E+03  0.12700000000E+01 0.  1.
          4   -1    0    0  501    0  0.00000000000E+00 -0.00000000000E+00 -0.14353406817E+02  0.14409482546E+02  0.12700000000E+01 0.  1.
         25    2    1    2    0    0  0.00000000000E+00  0.00000000000E+00  0.25722242563E+03  0.28598828450E+03  0.12500369044E+03 0.  0.
    9000005    1    3    3    0    0 -0.11240461979E+02 -0.51242908031E+02  0.50915689203E+02  0.73113548786E+02  0.10000000000E+01 0.  0.
    9000005    1    3    3    0    0  0.11240461979E+02  0.51242908031E+02  0.20630673643E+03  0.21287473572E+03  0.10000000000E+01 0.  0.
<mgrwt>
<rscale>  0 0.12500369E+03</rscale>
<asrwt>0</asrwt>
<pdfrwt beam="2">  1        4 0.22127584E-02 0.12500369E+03</pdfrwt>
<pdfrwt beam="1">  1       -4 0.41785439E-01 0.12500369E+03</pdfrwt>
<totfact> 0.77384397E+03</totfact>
</mgrwt>
</event>
<event>
 5    1  0.3199195E-002  0.1250042E+03  0.7818608E-02  0.1235063E+00
          4   -1    0    0  501    0  0.00000000000E+00  0.00000000000E+00  0.19518768136E+02  0.19560041144E+02  0.12700000000E+01 0.  1.
         -4   -1    0    0    0  501 -0.00000000000E+00 -0.00000000000E+00 -0.19988669925E+03  0.19989073375E+03  0.12700000000E+01 0.  1.
         25    2    1    2    0    0  0.00000000000E+00  0.00000000000E+00 -0.18036793112E+03  0.21945077489E+03  0.12500420803E+03 0.  0.
    9000005    1    3    3    0    0 -0.36092210495E+02 -0.94710630609E+01 -0.17819212283E+03  0.18205982899E+03  0.10000000000E+01 0.  0.
    9000005    1    3    3    0    0  0.36092210495E+02  0.94710630609E+01 -0.21758082925E+01  0.37390945905E+02  0.10000000000E+01 0.  0.
<mgrwt>
<rscale>  0 0.12500421E+03</rscale>
<asrwt>0</asrwt>
<pdfrwt beam="1">  1        4 0.30063727E-02 0.12500421E+03</pdfrwt>
<pdfrwt beam="2">  1       -4 0.30755284E-01 0.12500421E+03</pdfrwt>
<totfact> 0.86947159E+03</totfact>
</mgrwt>
</event>
<event>
 5    1  0.3199195E-002  0.1249612E+03  0.7818608E-02  0.1235130E+00
         -4   -1    0    0    0  501 -0.00000000000E+00  0.00000000000E+00  0.19340665538E+03  0.19341082504E+03  0.12700000000E+01 0.  1.
          4   -1    0    0  501    0  0.00000000000E+00 -0.00000000000E+00 -0.20160192045E+02  0.20200154537E+02  0.12700000000E+01 0.  1.
         25    2    1    2    0    0  0.00000000000E+00  0.00000000000E+00  0.17324646333E+03  0.21361097958E+03  0.12496124815E+03 0.  0.
    9000005    1    3    3    0    0 -0.30552509957E+01  0.36820715594E+02  0.50981607677E+00  0.36964301264E+02  0.10000000000E+01 0.  0.
    9000005    1    3    3    0    0  0.30552509957E+01 -0.36820715594E+02  0.17273664725E+03  0.17664667832E+03  0.10000000000E+01 0.  0.
<mgrwt>
<rscale>  0 0.12496125E+03</rscale>
<asrwt>0</asrwt>
<pdfrwt beam="2">  1        4 0.31049628E-02 0.12496125E+03</pdfrwt>
<pdfrwt beam="1">  1       -4 0.29758265E-01 0.12496125E+03</pdfrwt>
<totfact> 0.87965697E+03</totfact>
</mgrwt>
</event>
<event>
 5    1  0.3199195E-002  0.1250033E+03  0.7818608E-02  0.1235064E+00
          4   -1    0    0  501    0  0.00000000000E+00  0.00000000000E+00  0.41961436181E+03  0.41961628369E+03  0.12700000000E+01 0.  1.
         -4   -1    0    0    0  501 -0.00000000000E+00 -0.00000000000E+00 -0.92643707350E+01  0.93510141223E+01  0.12700000000E+01 0.  1.
         25    2    1    2    0    0  0.00000000000E+00  0.00000000000E+00  0.41034999107E+03  0.42896729781E+03  0.12500330962E+03 0.  0.
    9000005    1    3    3    0    0  0.10199603881E+02  0.35283847064E+02  0.31665417122E+02  0.48504437163E+02  0.10000000000E+01 0.  0.
    9000005    1    3    3    0    0 -0.10199603881E+02 -0.35283847064E+02  0.37868457395E+03  0.38046286065E+03  0.10000000000E+01 0.  0.
<mgrwt>
<rscale>  0 0.12500331E+03</rscale>
<asrwt>0</asrwt>
<pdfrwt beam="1">  1        4 0.64562871E-01 0.12500331E+03</pdfrwt>
<pdfrwt beam="2">  1       -4 0.14321005E-02 0.12500331E+03</pdfrwt>
<totfact> 0.61825196E+03</totfact>
</mgrwt>
</event>
<event>
 5    1  0.3199195E-002  0.1249939E+03  0.7818608E-02  0.1235079E+00
         -4   -1    0    0    0  501 -0.00000000000E+00  0.00000000000E+00  0.46128238424E+01  0.47844585693E+01  0.12700000000E+01 0. -1.
          4   -1    0    0  501    0  0.00000000000E+00 -0.00000000000E+00 -0.83110466302E+03  0.83110563336E+03  0.12700000000E+01 0. -1.
         25    2    1    2    0    0  0.00000000000E+00  0.00000000000E+00 -0.82649183918E+03  0.83589009193E+03  0.12499394205E+03 0.  0.
    9000005    1    3    3    0    0 -0.38618032536E+02  0.75850467670E+00 -0.74174472889E+03  0.74275040936E+03  0.10000000000E+01 0.  0.
    9000005    1    3    3    0    0  0.38618032536E+02 -0.75850467670E+00 -0.84747110290E+02  0.93139682567E+02  0.10000000000E+01 0.  0.
<mgrwt>
<rscale>  0 0.12499394E+03</rscale>
<asrwt>0</asrwt>
<pdfrwt beam="2">  1        4 0.12787542E+00 0.12499394E+03</pdfrwt>
<pdfrwt beam="1">  1       -4 0.72294318E-03 0.12499394E+03</pdfrwt>
<totfact> 0.36716661E+03</totfact>
</mgrwt>
</event>
<event>
 5    1  0.3199195E-002  0.1250073E+03  0.7818608E-02  0.1235058E+00
          4   -1    0    0  501    0  0.00000000000E+00  0.00000000000E+00  0.17483893199E+03  0.17484354446E+03  0.12700000000E+01 0.  1.
         -4   -1    0    0    0  501 -0.00000000000E+00 -0.00000000000E+00 -0.22321651689E+02  0.22357751097E+02  0.12700000000E+01 0.  1.
         25    2    1    2    0    0  0.00000000000E+00  0.00000000000E+00  0.15251728031E+03  0.19720129556E+03  0.12500732050E+03 0.  0.
    9000005    1    3    3    0    0  0.57348140401E+02  0.73220067070E+01  0.11369891345E+03  0.12755729657E+03  0.10000000000E+01 0.  0.
    9000005    1    3    3    0    0 -0.57348140401E+02 -0.73220067070E+01  0.38818366857E+02  0.69643998988E+02  0.10000000000E+01 0.  0.
<mgrwt>
<rscale>  0 0.12500732E+03</rscale>
<asrwt>0</asrwt>
<pdfrwt beam="1">  1        4 0.26901427E-01 0.12500732E+03</pdfrwt>
<pdfrwt beam="2">  1       -4 0.34372321E-02 0.12500732E+03</pdfrwt>
<totfact> 0.90594345E+03</totfact>
</mgrwt>
</event>
<event>
 5    1  0.3199195E-002  0.1250002E+03  0.7818608E-02  0.1235069E+00
          4   -1    0    0  501    0  0.00000000000E+00  0.00000000000E+00  0.30859358356E+02  0.30885480377E+02  0.12700000000E+01 0.  1.
         -4   -1    0    0    0  501 -0.00000000000E+00 -0.00000000000E+00 -0.12649992310E+03  0.12650629804E+03  0.12700000000E+01 0.  1.
         25    2    1    2    0    0  0.00000000000E+00  0.00000000000E+00 -0.95640564743E+02  0.15739177842E+03  0.12500021716E+03 0.  0.
    9000005    1    3    3    0    0  0.13001995135E+02  0.55289931403E+02 -0.80635958812E+02  0.98636637441E+02  0.10000000000E+01 0.  0.
    9000005    1    3    3    0    0 -0.13001995135E+02 -0.55289931403E+02 -0.15004605930E+02  0.58755140977E+02  0.10000000000E+01 0.  0.
<mgrwt>
<rscale>  0 0.12500022E+03</rscale>
<asrwt>0</asrwt>
<pdfrwt beam="1">  1        4 0.47500934E-02 0.12500022E+03</pdfrwt>
<pdfrwt beam="2">  1       -4 0.19464026E-01 0.12500022E+03</pdfrwt>
<totfact> 0.97847521E+03</totfact>
</mgrwt>
</event>
<event>
 5    1  0.3199195E-002  0.1250001E+03  0.7818608E-02  0.1235069E+00
         -4   -1    0    0    0  501 -0.00000000000E+00  0.00000000000E+00  0.40994245962E+02  0.41013913518E+02  0.12700000000E+01 0.  1.
          4   -1    0    0  501    0  0.00000000000E+00 -0.00000000000E+00 -0.95241150980E+02  0.95249618057E+02  0.12700000000E+01 0.  1.
         25    2    1    2    0    0  0.00000000000E+00  0.00000000000E+00 -0.54246905017E+02  0.13626353157E+03  0.12500009333E+03 0.  0.
    9000005    1    3    3    0    0  0.30089187913E+02 -0.30659242072E+02 -0.76599290694E+02  0.87828239698E+02  0.10000000000E+01 0.  0.
    9000005    1    3    3    0    0 -0.30089187913E+02  0.30659242072E+02  0.22352385677E+02  0.48435291876E+02  0.10000000000E+01 0.  0.
<mgrwt>
<rscale>  0 0.12500009E+03</rscale>
<asrwt>0</asrwt>
<pdfrwt beam="2">  1        4 0.14654649E-01 0.12500009E+03</pdfrwt>
<pdfrwt beam="1">  1       -4 0.63089713E-02 0.12500009E+03</pdfrwt>
<totfact> 0.10211486E+04</totfact>
</mgrwt>
</event>
<event>
 5    1  0.3199195E-002  0.1250033E+03  0.7818608E-02  0.1235064E+00
         -4   -1    0    0    0  501 -0.00000000000E+00  0.00000000000E+00  0.12209031400E+04  0.12209038006E+04  0.12700000000E+01 0.  1.
          4   -1    0    0  501    0  0.00000000000E+00 -0.00000000000E+00 -0.30729372101E+01  0.33250327964E+01  0.12700000000E+01 0.  1.
         25    2    1    2    0    0  0.00000000000E+00  0.00000000000E+00  0.12178302028E+04  0.12242288334E+04  0.12500333409E+03 0.  0.
    9000005    1    3    3    0    0  0.23713764869E+02  0.22936744476E+02  0.11287148767E+04  0.11291973742E+04  0.10000000000E+01 0.  0.
    9000005    1    3    3    0    0 -0.23713764869E+02 -0.22936744476E+02  0.89115326111E+02  0.95031459209E+02  0.10000000000E+01 0.  0.
<mgrwt>
<rscale>  0 0.12500333E+03</rscale>
<asrwt>0</asrwt>
<pdfrwt beam="2">  1        4 0.49220259E-03 0.12500333E+03</pdfrwt>
<pdfrwt beam="1">  1       -4 0.18785060E+00 0.12500333E+03</pdfrwt>
<totfact> 0.24085495E+03</totfact>
</mgrwt>
</event>
<event>
 5    1  0.3199195E-002  0.1249996E+03  0.7818608E-02  0.1235070E+00
          4   -1    0    0  501    0  0.00000000000E+00  0.00000000000E+00  0.11702019123E+02  0.11770732839E+02  0.12700000000E+01 0. -1.
         -4   -1    0    0    0  501 -0.00000000000E+00 -0.00000000000E+00 -0.33276085510E+03  0.33276327860E+03  0.12700000000E+01 0. -1.
         25    2    1    2    0    0  0.00000000000E+00  0.00000000000E+00 -0.32105883598E+03  0.34453401144E+03  0.12499963553E+03 0.  0.
    9000005    1    3    3    0    0 -0.40297416322E+02  0.34685123219E+02 -0.70020645116E+02  0.87925140190E+02  0.10000000000E+01 0.  0.
    9000005    1    3    3    0    0  0.40297416322E+02 -0.34685123219E+02 -0.25103819086E+03  0.25660887125E+03  0.10000000000E+01 0.  0.
<mgrwt>
<rscale>  0 0.12499964E+03</rscale>
<asrwt>0</asrwt>
<pdfrwt beam="1">  1        4 0.18057830E-02 0.12499964E+03</pdfrwt>
<pdfrwt beam="2">  1       -4 0.51199442E-01 0.12499964E+03</pdfrwt>
<totfact> 0.70330667E+03</totfact>
</mgrwt>
</event>
<event>
 5    1  0.3199195E-002  0.1250003E+03  0.7818608E-02  0.1235069E+00
          4   -1    0    0  501    0  0.00000000000E+00  0.00000000000E+00  0.68521442538E+03  0.68521560231E+03  0.12700000000E+01 0. -1.
         -4   -1    0    0    0  501 -0.00000000000E+00 -0.00000000000E+00 -0.56288659671E+01  0.57703580543E+01  0.12700000000E+01 0. -1.
         25    2    1    2    0    0  0.00000000000E+00  0.00000000000E+00  0.67958555941E+03  0.69098596036E+03  0.12500025943E+03 0.  0.
    9000005    1    3    3    0    0  0.41609161326E+02 -0.12735095756E+02  0.58773274021E+03  0.58934224258E+03  0.10000000000E+01 0.  0.
    9000005    1    3    3    0    0 -0.41609161326E+02  0.12735095756E+02  0.91852819201E+02  0.10164371779E+03  0.10000000000E+01 0.  0.
<mgrwt>
<rscale>  0 0.12500026E+03</rscale>
<asrwt>0</asrwt>
<pdfrwt beam="1">  1        4 0.10542857E+00 0.12500026E+03</pdfrwt>
<pdfrwt beam="2">  1       -4 0.87695401E-03 0.12500026E+03</pdfrwt>
<totfact> 0.43566574E+03</totfact>
</mgrwt>
</event>
<event>
 5    1  0.3199195E-002  0.1249990E+03  0.7818608E-02  0.1235071E+00
          4   -1    0    0  501    0  0.00000000000E+00  0.00000000000E+00  0.12219542156E+03  0.12220202106E+03  0.12700000000E+01 0.  1.
         -4   -1    0    0    0  501 -0.00000000000E+00 -0.00000000000E+00 -0.31946624943E+02  0.31971858645E+02  0.12700000000E+01 0.  1.
         25    2    1    2    0    0  0.00000000000E+00  0.00000000000E+00  0.90248796620E+02  0.15417387970E+03  0.12499895956E+03 0.  0.
    9000005    1    3    3    0    0  0.27770412244E+02 -0.53547011171E+02  0.65267271762E+02  0.88877977952E+02  0.10000000000E+01 0.  0.
    9000005    1    3    3    0    0 -0.27770412244E+02  0.53547011171E+02  0.24981524858E+02  0.65295901753E+02  0.10000000000E+01 0.  0.
<mgrwt>
<rscale>  0 0.12499896E+03</rscale>
<asrwt>0</asrwt>
<pdfrwt beam="1">  1        4 0.18801745E-01 0.12499896E+03</pdfrwt>
<pdfrwt beam="2">  1       -4 0.49173140E-02 0.12499896E+03</pdfrwt>
<totfact> 0.98480225E+03</totfact>
</mgrwt>
</event>
<event>
 5    1  0.3199195E-002  0.1250000E+03  0.7818608E-02  0.1235069E+00
          4   -1    0    0  501    0  0.00000000000E+00  0.00000000000E+00  0.35323708497E+01  0.37537373137E+01  0.12700000000E+01 0. -1.
         -4   -1    0    0    0  501 -0.00000000000E+00 -0.00000000000E+00 -0.10720235207E+04  0.10720242729E+04  0.12700000000E+01 0. -1.
         25    2    1    2    0    0  0.00000000000E+00  0.00000000000E+00 -0.10684911498E+04  0.10757780103E+04  0.12499996039E+03 0.  0.
    9000005    1    3    3    0    0 -0.39155593869E+02  0.30098909444E+02 -0.20471106643E+03  0.21058662256E+03  0.10000000000E+01 0.  0.
    9000005    1    3    3    0    0  0.39155593869E+02 -0.30098909444E+02 -0.86378008339E+03  0.86519138770E+03  0.10000000000E+01 0.  0.
<mgrwt>
<rscale>  0 0.12499996E+03</rscale>
<asrwt>0</asrwt>
<pdfrwt beam="1">  1        4 0.56052858E-03 0.12499996E+03</pdfrwt>
<pdfrwt beam="2">  1       -4 0.16494353E+00 0.12499996E+03</pdfrwt>
<totfact> 0.28203408E+03</totfact>
</mgrwt>
</event>
<event>
 5    1  0.3199195E-002  0.1250020E+03  0.7818608E-02  0.1235066E+00
         -4   -1    0    0    0  501 -0.00000000000E+00  0.00000000000E+00  0.57185190295E+01  0.58578460112E+01  0.12700000000E+01 0.  1.
          4   -1    0    0  501    0  0.00000000000E+00 -0.00000000000E+00 -0.67474811934E+03  0.67474931452E+03  0.12700000000E+01 0.  1.
         25    2    1    2    0    0  0.00000000000E+00  0.00000000000E+00 -0.66902960031E+03  0.68060716054E+03  0.12500200351E+03 0.  0.
    9000005    1    3    3    0    0 -0.23277688954E+02  0.41424019875E+02 -0.55551981891E+03  0.55754916324E+03  0.10000000000E+01 0.  0.
    9000005    1    3    3    0    0  0.23277688954E+02 -0.41424019875E+02 -0.11350978140E+03  0.12305799730E+03  0.10000000000E+01 0.  0.
<mgrwt>
<rscale>  0 0.12500200E+03</rscale>
<asrwt>0</asrwt>
<pdfrwt beam="2">  1        4 0.10381815E+00 0.12500200E+03</pdfrwt>
<pdfrwt beam="1">  1       -4 0.89058209E-03 0.12500200E+03</pdfrwt>
<totfact> 0.44128468E+03</totfact>
</mgrwt>
</event>
<event>
 5    1  0.3199195E-002  0.1250015E+03  0.7818608E-02  0.1235067E+00
          4   -1    0    0  501    0  0.00000000000E+00  0.00000000000E+00  0.42664403750E+03  0.42664592771E+03  0.12700000000E+01 0.  1.
         -4   -1    0    0    0  501 -0.00000000000E+00 -0.00000000000E+00 -0.91100134836E+01  0.91981109839E+01  0.12700000000E+01 0.  1.
         25    2    1    2    0    0  0.00000000000E+00  0.00000000000E+00  0.41753402402E+03  0.43584403870E+03  0.12500145942E+03 0.  0.
    9000005    1    3    3    0    0 -0.97969772405E+01  0.59729727778E+02  0.26297613522E+03  0.26985379160E+03  0.10000000000E+01 0.  0.
    9000005    1    3    3    0    0  0.97969772405E+01 -0.59729727778E+02  0.15455788879E+03  0.16599024710E+03  0.10000000000E+01 0.  0.
<mgrwt>
<rscale>  0 0.12500146E+03</rscale>
<asrwt>0</asrwt>
<pdfrwt beam="1">  1        4 0.65644449E-01 0.12500146E+03</pdfrwt>
<pdfrwt beam="2">  1       -4 0.14084630E-02 0.12500146E+03</pdfrwt>
<totfact> 0.61207853E+03</totfact>
</mgrwt>
</event>
<event>
 5    1  0.3199195E-002  0.1249993E+03  0.7818608E-02  0.1235070E+00
         -4   -1    0    0    0  501 -0.00000000000E+00  0.00000000000E+00  0.15748016489E+02  0.15799143121E+02  0.12700000000E+01 0. -1.
          4   -1    0    0  501    0  0.00000000000E+00 -0.00000000000E+00 -0.24758955631E+03  0.24759281350E+03  0.12700000000E+01 0. -1.
         25    2    1    2    0    0  0.00000000000E+00  0.00000000000E+00 -0.23184153982E+03  0.26339195662E+03  0.12499929289E+03 0.  0.
    9000005    1    3    3    0    0  0.27731568476E+02 -0.54558102613E+02 -0.14253925313E+03  0.15512596538E+03  0.10000000000E+01 0.  0.
    9000005    1    3    3    0    0 -0.27731568476E+02  0.54558102613E+02 -0.89302286689E+02  0.10826599124E+03  0.10000000000E+01 0.  0.
<mgrwt>
<rscale>  0 0.12499929E+03</rscale>
<asrwt>0</asrwt>
<pdfrwt beam="2">  1        4 0.38094882E-01 0.12499929E+03</pdfrwt>
<pdfrwt beam="1">  1       -4 0.24269553E-02 0.12499929E+03</pdfrwt>
<totfact> 0.80433659E+03</totfact>
</mgrwt>
</event>
<event>
 5    1  0.3199195E-002  0.1249987E+03  0.7818608E-02  0.1235071E+00
          4   -1    0    0  501    0  0.00000000000E+00  0.00000000000E+00  0.15590188260E+03  0.15590705532E+03  0.12700000000E+01 0.  1.
         -4   -1    0    0    0  501 -0.00000000000E+00 -0.00000000000E+00 -0.25033607783E+02  0.25065801775E+02  0.12700000000E+01 0.  1.
         25    2    1    2    0    0  0.00000000000E+00  0.00000000000E+00  0.13086827482E+03  0.18097285710E+03  0.12499867860E+03 0.  0.
    9000005    1    3    3    0    0 -0.28425733497E+02 -0.40848379012E+02  0.12015545007E+03  0.13005746643E+03  0.10000000000E+01 0.  0.
    9000005    1    3    3    0    0  0.28425733497E+02  0.40848379012E+02  0.10712824751E+02  0.50915390668E+02  0.10000000000E+01 0.  0.
<mgrwt>
<rscale>  0 0.12499868E+03</rscale>
<asrwt>0</asrwt>
<pdfrwt beam="1">  1        4 0.23987780E-01 0.12499868E+03</pdfrwt>
<pdfrwt beam="2">  1       -4 0.38541986E-02 0.12499868E+03</pdfrwt>
<totfact> 0.93444946E+03</totfact>
</mgrwt>
</event>
<event>
 5    1  0.3199195E-002  0.1250001E+03  0.7818608E-02  0.1235069E+00
         -4   -1    0    0    0  501 -0.00000000000E+00  0.00000000000E+00  0.41287428875E+02  0.41306956837E+02  0.12700000000E+01 0.  1.
          4   -1    0    0  501    0  0.00000000000E+00 -0.00000000000E+00 -0.94565078286E+02  0.94573605891E+02  0.12700000000E+01 0.  1.
         25    2    1    2    0    0  0.00000000000E+00  0.00000000000E+00 -0.53277649411E+02  0.13588056273E+03  0.12500007760E+03 0.  0.
    9000005    1    3    3    0    0  0.46139860027E+02 -0.27486831060E+02  0.80929023690E+01  0.54322257260E+02  0.10000000000E+01 0.  0.
    9000005    1    3    3    0    0 -0.46139860027E+02  0.27486831060E+02 -0.61370551780E+02  0.81558305468E+02  0.10000000000E+01 0.  0.
<mgrwt>
<rscale>  0 0.12500008E+03</rscale>
<asrwt>0</asrwt>
<pdfrwt beam="2">  1        4 0.14550632E-01 0.12500008E+03</pdfrwt>
<pdfrwt beam="1">  1       -4 0.63540703E-02 0.12500008E+03</pdfrwt>
<totfact> 0.10219526E+04</totfact>
</mgrwt>
</event>
<event>
 5    1  0.3199195E-002  0.1249982E+03  0.7818608E-02  0.1235072E+00
          4   -1    0    0  501    0  0.00000000000E+00  0.00000000000E+00  0.49903450728E+02  0.49919608317E+02  0.12700000000E+01 0.  1.
         -4   -1    0    0    0  501 -0.00000000000E+00 -0.00000000000E+00 -0.78239956036E+02  0.78250262751E+02  0.12700000000E+01 0.  1.
         25    2    1    2    0    0  0.00000000000E+00  0.00000000000E+00 -0.28336505308E+02  0.12816987107E+03  0.12499823325E+03 0.  0.
    9000005    1    3    3    0    0  0.61099099326E+02  0.50959405534E+01 -0.26560900806E+02  0.66824770857E+02  0.10000000000E+01 0.  0.
    9000005    1    3    3    0    0 -0.61099099326E+02 -0.50959405534E+01 -0.17756045028E+01  0.61345100211E+02  0.10000000000E+01 0.  0.
<mgrwt>
<rscale>  0 0.12499823E+03</rscale>
<asrwt>0</asrwt>
<pdfrwt beam="1">  1        4 0.76794896E-02 0.12499823E+03</pdfrwt>
<pdfrwt beam="2">  1       -4 0.12038952E-01 0.12499823E+03</pdfrwt>
<totfact> 0.10384235E+04</totfact>
</mgrwt>
</event>
<event>
 5    1  0.3199195E-002  0.1250215E+03  0.7818608E-02  0.1235036E+00
          4   -1    0    0  501    0  0.00000000000E+00  0.00000000000E+00  0.53759971400E+02  0.53774970246E+02  0.12700000000E+01 0.  1.
         -4   -1    0    0    0  501 -0.00000000000E+00 -0.00000000000E+00 -0.72655266056E+02  0.72666364885E+02  0.12700000000E+01 0.  1.
         25    2    1    2    0    0  0.00000000000E+00  0.00000000000E+00 -0.18895294656E+02  0.12644133513E+03  0.12502151443E+03 0.  0.
    9000005    1    3    3    0    0 -0.29021876847E+02 -0.45815712063E+02 -0.40868886895E+02  0.67916233137E+02  0.10000000000E+01 0.  0.
    9000005    1    3    3    0    0  0.29021876847E+02  0.45815712063E+02  0.21973592239E+02  0.58525101994E+02  0.10000000000E+01 0.  0.
<mgrwt>
<rscale>  0 0.12502151E+03</rscale>
<asrwt>0</asrwt>
<pdfrwt beam="1">  1        4 0.82727724E-02 0.12502151E+03</pdfrwt>
<pdfrwt beam="2">  1       -4 0.11179741E-01 0.12502151E+03</pdfrwt>
<totfact> 0.10416249E+04</totfact>
</mgrwt>
</event>
<event>
 5    1  0.3199195E-002  0.1250023E+03  0.7818608E-02  0.1235066E+00
         -4   -1    0    0    0  501 -0.00000000000E+00  0.00000000000E+00  0.17798573135E+02  0.17843825421E+02  0.12700000000E+01 0.  1.
          4   -1    0    0  501    0  0.00000000000E+00 -0.00000000000E+00 -0.21915211237E+03  0.21915579220E+03  0.12700000000E+01 0.  1.
         25    2    1    2    0    0  0.00000000000E+00  0.00000000000E+00 -0.20135353923E+03  0.23699961762E+03  0.12500228394E+03 0.  0.
    9000005    1    3    3    0    0 -0.44821705600E+02 -0.36328312032E+02 -0.14620597417E+03  0.15718116436E+03  0.10000000000E+01 0.  0.
    9000005    1    3    3    0    0  0.44821705600E+02  0.36328312032E+02 -0.55147565063E+02  0.79818453257E+02  0.10000000000E+01 0.  0.
<mgrwt>
<rscale>  0 0.12500228E+03</rscale>
<asrwt>0</asrwt>
<pdfrwt beam="2">  1        4 0.33719472E-01 0.12500228E+03</pdfrwt>
<pdfrwt beam="1">  1       -4 0.27420062E-02 0.12500228E+03</pdfrwt>
<totfact> 0.84241970E+03</totfact>
</mgrwt>
</event>
<event>
 5    1  0.3199195E-002  0.1249971E+03  0.7818608E-02  0.1235074E+00
         -4   -1    0    0    0  501 -0.00000000000E+00  0.00000000000E+00  0.14262212574E+03  0.14262778008E+03  0.12700000000E+01 0. -1.
          4   -1    0    0  501    0  0.00000000000E+00 -0.00000000000E+00 -0.27366600296E+02  0.27396052850E+02  0.12700000000E+01 0. -1.
         25    2    1    2    0    0  0.00000000000E+00  0.00000000000E+00  0.11525552545E+03  0.17002383293E+03  0.12499707044E+03 0.  0.
    9000005    1    3    3    0    0 -0.36701732581E+02  0.49611664900E+02  0.44249613669E+02  0.75943154915E+02  0.10000000000E+01 0.  0.
    9000005    1    3    3    0    0  0.36701732581E+02 -0.49611664900E+02  0.71005911776E+02  0.94080678015E+02  0.10000000000E+01 0.  0.
<mgrwt>
<rscale>  0 0.12499707E+03</rscale>
<asrwt>0</asrwt>
<pdfrwt beam="2">  1        4 0.42129468E-02 0.12499707E+03</pdfrwt>
<pdfrwt beam="1">  1       -4 0.21944566E-01 0.12499707E+03</pdfrwt>
<totfact> 0.95450471E+03</totfact>
</mgrwt>
</event>
<event>
 5    1  0.3199195E-002  0.1250022E+03  0.7818608E-02  0.1235066E+00
         -4   -1    0    0    0  501 -0.00000000000E+00  0.00000000000E+00  0.35468388053E+03  0.35468615424E+03  0.12700000000E+01 0. -1.
          4   -1    0    0  501    0  0.00000000000E+00 -0.00000000000E+00 -0.10974796564E+02  0.11048034198E+02  0.12700000000E+01 0. -1.
         25    2    1    2    0    0  0.00000000000E+00  0.00000000000E+00  0.34370908397E+03  0.36573418844E+03  0.12500224874E+03 0.  0.
    9000005    1    3    3    0    0 -0.52423976466E+01 -0.35525201291E+02  0.32149727694E+03  0.32349810160E+03  0.10000000000E+01 0.  0.
    9000005    1    3    3    0    0  0.52423976466E+01  0.35525201291E+02  0.22211807030E+02  0.42236086838E+02  0.10000000000E+01 0.  0.
<mgrwt>
<rscale>  0 0.12500225E+03</rscale>
<asrwt>0</asrwt>
<pdfrwt beam="2">  1        4 0.16942387E-02 0.12500225E+03</pdfrwt>
<pdfrwt beam="1">  1       -4 0.54572561E-01 0.12500225E+03</pdfrwt>
<totfact> 0.68024209E+03</totfact>
</mgrwt>
</event>
<event>
 5    1  0.3199195E-002  0.1249959E+03  0.7818608E-02  0.1235076E+00
          4   -1    0    0  501    0  0.00000000000E+00  0.00000000000E+00  0.11191140971E+04  0.11191148177E+04  0.12700000000E+01 0. -1.
         -4   -1    0    0    0  501 -0.00000000000E+00 -0.00000000000E+00 -0.33739787431E+01  0.36050842652E+01  0.12700000000E+01 0. -1.
         25    2    1    2    0    0  0.00000000000E+00  0.00000000000E+00  0.11157401184E+04  0.11227199020E+04  0.12499586629E+03 0.  0.
    9000005    1    3    3    0    0  0.26666444407E+02 -0.27476759716E+02  0.10014527120E+04  0.10021849161E+04  0.10000000000E+01 0.  0.
    9000005    1    3    3    0    0 -0.26666444407E+02  0.27476759716E+02  0.11428740636E+03  0.12053498593E+03  0.10000000000E+01 0.  0.
<mgrwt>
<rscale>  0 0.12499587E+03</rscale>
<asrwt>0</asrwt>
<pdfrwt beam="1">  1        4 0.17218954E+00 0.12499587E+03</pdfrwt>
<pdfrwt beam="2">  1       -4 0.53690548E-03 0.12499587E+03</pdfrwt>
<totfact> 0.26830143E+03</totfact>
</mgrwt>
</event>
<event>
 5    1  0.3199195E-002  0.1250039E+03  0.7818608E-02  0.1235063E+00
          4   -1    0    0  501    0  0.00000000000E+00  0.00000000000E+00  0.11793568775E+02  0.11861752166E+02  0.12700000000E+01 0. -1.
         -4   -1    0    0    0  501 -0.00000000000E+00 -0.00000000000E+00 -0.33021526999E+03  0.33021771217E+03  0.12700000000E+01 0. -1.
         25    2    1    2    0    0  0.00000000000E+00  0.00000000000E+00 -0.31842170121E+03  0.34207946434E+03  0.12500392042E+03 0.  0.
    9000005    1    3    3    0    0  0.37488478374E+02 -0.11569841776E+02 -0.29232783773E+03  0.29495052460E+03  0.10000000000E+01 0.  0.
    9000005    1    3    3    0    0 -0.37488478374E+02  0.11569841776E+02 -0.26093863481E+02  0.47128939739E+02  0.10000000000E+01 0.  0.
<mgrwt>
<rscale>  0 0.12500392E+03</rscale>
<asrwt>0</asrwt>
<pdfrwt beam="1">  1        4 0.18198282E-02 0.12500392E+03</pdfrwt>
<pdfrwt beam="2">  1       -4 0.50807775E-01 0.12500392E+03</pdfrwt>
<totfact> 0.70598667E+03</totfact>
</mgrwt>
</event>
<event>
 5    1  0.3199195E-002  0.1249947E+03  0.7818608E-02  0.1235078E+00
         -4   -1    0    0    0  501 -0.00000000000E+00  0.00000000000E+00  0.64087957200E+02  0.64100539452E+02  0.12700000000E+01 0. -1.
          4   -1    0    0  501    0  0.00000000000E+00 -0.00000000000E+00 -0.60921042660E+02  0.60934278848E+02  0.12700000000E+01 0. -1.
         25    2    1    2    0    0  0.00000000000E+00  0.00000000000E+00  0.31669145396E+01  0.12503481830E+03  0.12499470565E+03 0.  0.
    9000005    1    3    3    0    0  0.22325231617E+02  0.50240675058E+02  0.31297833250E+02  0.63270022627E+02  0.10000000000E+01 0.  0.
    9000005    1    3    3    0    0 -0.22325231617E+02 -0.50240675058E+02 -0.28130918711E+02  0.61764795673E+02  0.10000000000E+01 0.  0.
<mgrwt>
<rscale>  0 0.12499471E+03</rscale>
<asrwt>0</asrwt>
<pdfrwt beam="2">  1        4 0.93744541E-02 0.12499471E+03</pdfrwt>
<pdfrwt beam="1">  1       -4 0.98616717E-02 0.12499471E+03</pdfrwt>
<totfact> 0.10453357E+04</totfact>
</mgrwt>
</event>
<event>
 5    1  0.3199195E-002  0.1249995E+03  0.7818608E-02  0.1235070E+00
         -4   -1    0    0    0  501 -0.00000000000E+00  0.00000000000E+00  0.40891663627E+03  0.40891860843E+03  0.12700000000E+01 0.  1.
          4   -1    0    0  501    0  0.00000000000E+00 -0.00000000000E+00 -0.95083889211E+01  0.95928285648E+01  0.12700000000E+01 0.  1.
         25    2    1    2    0    0  0.00000000000E+00  0.00000000000E+00  0.39940824735E+03  0.41851143699E+03  0.12499949937E+03 0.  0.
    9000005    1    3    3    0    0  0.57529824798E+02  0.12935211591E+02  0.26898791640E+03  0.27537701358E+03  0.10000000000E+01 0.  0.
    9000005    1    3    3    0    0 -0.57529824798E+02 -0.12935211591E+02  0.13042033095E+03  0.14313442341E+03  0.10000000000E+01 0.  0.
<mgrwt>
<rscale>  0 0.12499950E+03</rscale>
<asrwt>0</asrwt>
<pdfrwt beam="2">  1        4 0.14694764E-02 0.12499950E+03</pdfrwt>
<pdfrwt beam="1">  1       -4 0.62916888E-01 0.12499950E+03</pdfrwt>
<totfact> 0.62792045E+03</totfact>
</mgrwt>
</event>
<event>
 5    1  0.3199195E-002  0.1249971E+03  0.7818608E-02  0.1235074E+00
         -4   -1    0    0    0  501 -0.00000000000E+00  0.00000000000E+00  0.46476928310E+03  0.46477101826E+03  0.12700000000E+01 0. -1.
          4   -1    0    0  501    0  0.00000000000E+00 -0.00000000000E+00 -0.83545838944E+01  0.84505604577E+01  0.12700000000E+01 0. -1.
         25    2    1    2    0    0  0.00000000000E+00  0.00000000000E+00  0.45641469921E+03  0.47322157872E+03  0.12499713962E+03 0.  0.
    9000005    1    3    3    0    0  0.32968318788E+02  0.49691127281E+02  0.15748641900E+03  0.16840157464E+03  0.10000000000E+01 0.  0.
    9000005    1    3    3    0    0 -0.32968318788E+02 -0.49691127281E+02  0.29892828021E+03  0.30482000407E+03  0.10000000000E+01 0.  0.
<mgrwt>
<rscale>  0 0.12499714E+03</rscale>
<asrwt>0</asrwt>
<pdfrwt beam="2">  1        4 0.12928362E-02 0.12499714E+03</pdfrwt>
<pdfrwt beam="1">  1       -4 0.71510520E-01 0.12499714E+03</pdfrwt>
<totfact> 0.58007229E+03</totfact>
</mgrwt>
</event>
<event>
 5    1  0.3199195E-002  0.1249796E+03  0.7818608E-02  0.1235101E+00
         -4   -1    0    0    0  501 -0.00000000000E+00  0.00000000000E+00  0.10037007169E+04  0.10037015204E+04  0.12700000000E+01 0. -1.
          4   -1    0    0  501    0  0.00000000000E+00 -0.00000000000E+00 -0.37861095267E+01  0.39934352816E+01  0.12700000000E+01 0. -1.
         25    2    1    2    0    0  0.00000000000E+00  0.00000000000E+00  0.99991460739E+03  0.10076949557E+04  0.12497960482E+03 0.  0.
    9000005    1    3    3    0    0 -0.28164145639E+02 -0.51427117745E+02  0.67401232676E+03  0.67655863321E+03  0.10000000000E+01 0.  0.
    9000005    1    3    3    0    0  0.28164145639E+02  0.51427117745E+02  0.32590228062E+03  0.33113632246E+03  0.10000000000E+01 0.  0.
<mgrwt>
<rscale>  0 0.12497960E+03</rscale>
<asrwt>0</asrwt>
<pdfrwt beam="2">  1        4 0.59848861E-03 0.12497960E+03</pdfrwt>
<pdfrwt beam="1">  1       -4 0.15443143E+00 0.12497960E+03</pdfrwt>
<totfact> 0.30365272E+03</totfact>
</mgrwt>
</event>
<event>
 5    1  0.3199195E-002  0.1250101E+03  0.7818608E-02  0.1235053E+00
         -4   -1    0    0    0  501 -0.00000000000E+00  0.00000000000E+00  0.50972880699E+03  0.50973038911E+03  0.12700000000E+01 0.  1.
          4   -1    0    0  501    0  0.00000000000E+00 -0.00000000000E+00 -0.76104170828E+01  0.77156560430E+01  0.12700000000E+01 0.  1.
         25    2    1    2    0    0  0.00000000000E+00  0.00000000000E+00  0.50211838991E+03  0.51744604515E+03  0.12501012821E+03 0.  0.
    9000005    1    3    3    0    0 -0.28307782578E+02 -0.23939095069E+02  0.42798912250E+02  0.56631773034E+02  0.10000000000E+01 0.  0.
    9000005    1    3    3    0    0  0.28307782578E+02  0.23939095069E+02  0.45931947766E+03  0.46081427212E+03  0.10000000000E+01 0.  0.
<mgrwt>
<rscale>  0 0.12501013E+03</rscale>
<asrwt>0</asrwt>
<pdfrwt beam="2">  1        4 0.11790506E-02 0.12501013E+03</pdfrwt>
<pdfrwt beam="1">  1       -4 0.78428019E-01 0.12501013E+03</pdfrwt>
<totfact> 0.54523596E+03</totfact>
</mgrwt>
</event>
<event>
 5    1  0.3199195E-002  0.1249996E+03  0.7818608E-02  0.1235070E+00
          4   -1    0    0  501    0  0.00000000000E+00  0.00000000000E+00  0.26873985529E+02  0.26903977368E+02  0.12700000000E+01 0. -1.
         -4   -1    0    0    0  501 -0.00000000000E+00 -0.00000000000E+00 -0.14523948335E+03  0.14524503580E+03  0.12700000000E+01 0. -1.
         25    2    1    2    0    0  0.00000000000E+00  0.00000000000E+00 -0.11836549782E+03  0.17214901316E+03  0.12499956664E+03 0.  0.
    9000005    1    3    3    0    0 -0.22540341034E+02 -0.54972459881E+02 -0.85858615051E+02  0.10441618695E+03  0.10000000000E+01 0.  0.
    9000005    1    3    3    0    0  0.22540341034E+02  0.54972459881E+02 -0.32506882767E+02  0.67732826211E+02  0.10000000000E+01 0.  0.
<mgrwt>
<rscale>  0 0.12499957E+03</rscale>
<asrwt>0</asrwt>
<pdfrwt beam="1">  1        4 0.41371936E-02 0.12499957E+03</pdfrwt>
<pdfrwt beam="2">  1       -4 0.22347270E-01 0.12499957E+03</pdfrwt>
<totfact> 0.95050525E+03</totfact>
</mgrwt>
</event>
<event>
 5    1  0.3199195E-002  0.1250048E+03  0.7818608E-02  0.1235062E+00
          4   -1    0    0  501    0  0.00000000000E+00  0.00000000000E+00  0.14069475941E+02  0.14126678777E+02  0.12700000000E+01 0.  1.
         -4   -1    0    0    0  501 -0.00000000000E+00 -0.00000000000E+00 -0.27703962145E+03  0.27704253239E+03  0.12700000000E+01 0.  1.
         25    2    1    2    0    0  0.00000000000E+00  0.00000000000E+00 -0.26297014551E+03  0.29116921117E+03  0.12500484832E+03 0.  0.
    9000005    1    3    3    0    0 -0.58327658055E+02  0.21880798715E+02 -0.11991635091E+03  0.13513628773E+03  0.10000000000E+01 0.  0.
    9000005    1    3    3    0    0  0.58327658055E+02 -0.21880798715E+02 -0.14305379460E+03  0.15603292344E+03  0.10000000000E+01 0.  0.
<mgrwt>
<rscale>  0 0.12500485E+03</rscale>
<asrwt>0</asrwt>
<pdfrwt beam="1">  1        4 0.21691591E-02 0.12500485E+03</pdfrwt>
<pdfrwt beam="2">  1       -4 0.42626101E-01 0.12500485E+03</pdfrwt>
<totfact> 0.76711819E+03</totfact>
</mgrwt>
</event>
<event>
 5    1  0.3199195E-002  0.1250005E+03  0.7818608E-02  0.1235068E+00
          4   -1    0    0  501    0  0.00000000000E+00  0.00000000000E+00  0.12457330497E+02  0.12521900140E+02  0.12700000000E+01 0. -1.
         -4   -1    0    0    0  501 -0.00000000000E+00 -0.00000000000E+00 -0.31269667566E+03  0.31269925466E+03  0.12700000000E+01 0. -1.
         25    2    1    2    0    0  0.00000000000E+00  0.00000000000E+00 -0.30023934516E+03  0.32522115480E+03  0.12500054060E+03 0.  0.
    9000005    1    3    3    0    0  0.10170556982E+02 -0.61383966002E+02 -0.16525740526E+03  0.17658550763E+03  0.10000000000E+01 0.  0.
    9000005    1    3    3    0    0 -0.10170556982E+02  0.61383966002E+02 -0.13498193990E+03  0.14863564718E+03  0.10000000000E+01 0.  0.
<mgrwt>
<rscale>  0 0.12500054E+03</rscale>
<asrwt>0</asrwt>
<pdfrwt beam="1">  1        4 0.19216779E-02 0.12500054E+03</pdfrwt>
<pdfrwt beam="2">  1       -4 0.48112340E-01 0.12500054E+03</pdfrwt>
<totfact> 0.72538545E+03</totfact>
</mgrwt>
</event>
<event>
 4    1  0.3199195E-002  0.1250973E+03  0.7818608E-02  0.1234917E+00
         -4   -1    0    0    0  501 -0.00000000000E+00  0.00000000000E+00  0.18541836334E+03  0.18542271264E+03  0.12700000000E+01 0.  1.
          4   -1    0    0  501    0  0.00000000000E+00 -0.00000000000E+00 -0.21076323539E+02  0.21114552183E+02  0.12700000000E+01 0.  1.
    9000005    1    1    2    0    0  0.29115696136E+02  0.52800627515E+02  0.54757050506E+02  0.81455292078E+02  0.10000000000E+01 0.  0.
    9000005    1    1    2    0    0 -0.29115696136E+02 -0.52800627515E+02  0.10958498929E+03  0.12508197274E+03  0.10000000000E+01 0.  0.
<mgrwt>
<rscale>  0 0.12509730E+03</rscale>
<asrwt>0</asrwt>
<pdfrwt beam="2">  1        4 0.32457864E-02 0.12509730E+03</pdfrwt>
<pdfrwt beam="1">  1       -4 0.28529178E-01 0.12509730E+03</pdfrwt>
<totfact> 0.88851037E+03</totfact>
</mgrwt>
</event>
<event>
 5    1  0.3199195E-002  0.1249994E+03  0.7818608E-02  0.1235070E+00
          4   -1    0    0  501    0  0.00000000000E+00  0.00000000000E+00  0.18933074827E+03  0.18933500770E+03  0.12700000000E+01 0.  1.
         -4   -1    0    0    0  501 -0.00000000000E+00 -0.00000000000E+00 -0.20607649758E+02  0.20646746198E+02  0.12700000000E+01 0.  1.
         25    2    1    2    0    0  0.00000000000E+00  0.00000000000E+00  0.16872309851E+03  0.20998175390E+03  0.12499941199E+03 0.  0.
    9000005    1    3    3    0    0  0.53675359086E+02  0.81238597451E+01  0.13636058880E+03  0.14677278851E+03  0.10000000000E+01 0.  0.
    9000005    1    3    3    0    0 -0.53675359086E+02 -0.81238597451E+01  0.32362509714E+02  0.63208965386E+02  0.10000000000E+01 0.  0.
<mgrwt>
<rscale>  0 0.12499941E+03</rscale>
<asrwt>0</asrwt>
<pdfrwt beam="1">  1        4 0.29131143E-01 0.12499941E+03</pdfrwt>
<pdfrwt beam="2">  1       -4 0.31737427E-02 0.12499941E+03</pdfrwt>
<totfact> 0.88480023E+03</totfact>
</mgrwt>
</event>
<event>
 5    1  0.3199195E-002  0.1249966E+03  0.7818608E-02  0.1235075E+00
         -4   -1    0    0    0  501 -0.00000000000E+00  0.00000000000E+00  0.30802924088E+01  0.33318315269E+01  0.12700000000E+01 0.  1.
          4   -1    0    0  501    0  0.00000000000E+00 -0.00000000000E+00 -0.12180762436E+04  0.12180769057E+04  0.12700000000E+01 0.  1.
         25    2    1    2    0    0  0.00000000000E+00  0.00000000000E+00 -0.12149959512E+04  0.12214087372E+04  0.12499656750E+03 0.  0.
    9000005    1    3    3    0    0 -0.53174520537E+02 -0.22754454500E+02 -0.37631473115E+03  0.38073491003E+03  0.10000000000E+01 0.  0.
    9000005    1    3    3    0    0  0.53174520537E+02  0.22754454500E+02 -0.83868122008E+03  0.84067382720E+03  0.10000000000E+01 0.  0.
<mgrwt>
<rscale>  0 0.12499657E+03</rscale>
<asrwt>0</asrwt>
<pdfrwt beam="2">  1        4 0.18741538E+00 0.12499657E+03</pdfrwt>
<pdfrwt beam="1">  1       -4 0.49329220E-03 0.12499657E+03</pdfrwt>
<totfact> 0.24161031E+03</totfact>
</mgrwt>
</event>
<event>
 5    1  0.3199195E-002  0.1249977E+03  0.7818608E-02  0.1235073E+00
          4   -1    0    0  501    0  0.00000000000E+00  0.00000000000E+00  0.10808934511E+03  0.10809680581E+03  0.12700000000E+01 0. -1.
         -4   -1    0    0    0  501 -0.00000000000E+00 -0.00000000000E+00 -0.36117885273E+02  0.36140206648E+02  0.12700000000E+01 0. -1.
         25    2    1    2    0    0  0.00000000000E+00  0.00000000000E+00  0.71971459842E+02  0.14423701246E+03  0.12499769891E+03 0.  0.
    9000005    1    3    3    0    0  0.38965129041E+02 -0.41251696703E+01  0.92159202157E+02  0.10014797476E+03  0.10000000000E+01 0.  0.
    9000005    1    3    3    0    0 -0.38965129041E+02  0.41251696703E+01 -0.20187742315E+02  0.44089037705E+02  0.10000000000E+01 0.  0.
<mgrwt>
<rscale>  0 0.12499770E+03</rscale>
<asrwt>0</asrwt>
<pdfrwt beam="1">  1        4 0.16631421E-01 0.12499770E+03</pdfrwt>
<pdfrwt beam="2">  1       -4 0.55588888E-02 0.12499770E+03</pdfrwt>
<totfact> 0.10047034E+04</totfact>
</mgrwt>
</event>
<event>
 5    1  0.3199195E-002  0.1249955E+03  0.7818608E-02  0.1235076E+00
         -4   -1    0    0    0  501 -0.00000000000E+00  0.00000000000E+00  0.11597332090E+03  0.11598027445E+03  0.12700000000E+01 0. -1.
          4   -1    0    0  501    0  0.00000000000E+00 -0.00000000000E+00 -0.33659957569E+02  0.33683907783E+02  0.12700000000E+01 0. -1.
         25    2    1    2    0    0  0.00000000000E+00  0.00000000000E+00  0.82313363331E+02  0.14966418223E+03  0.12499551056E+03 0.  0.
    9000005    1    3    3    0    0 -0.22016562125E+02  0.23786787947E+02 -0.22814311650E+02  0.39648872679E+02  0.10000000000E+01 0.  0.
    9000005    1    3    3    0    0  0.22016562125E+02 -0.23786787947E+02  0.10512767498E+03  0.11001530955E+03  0.10000000000E+01 0.  0.
<mgrwt>
<rscale>  0 0.12499551E+03</rscale>
<asrwt>0</asrwt>
<pdfrwt beam="2">  1        4 0.51808323E-02 0.12499551E+03</pdfrwt>
<pdfrwt beam="1">  1       -4 0.17844426E-01 0.12499551E+03</pdfrwt>
<totfact> 0.99380722E+03</totfact>
</mgrwt>
</event>
<event>
 5    1  0.3199195E-002  0.1249490E+03  0.7818608E-02  0.1235149E+00
          4   -1    0    0  501    0  0.00000000000E+00  0.00000000000E+00  0.17543573283E+03  0.17544032961E+03  0.12700000000E+01 0.  1.
         -4   -1    0    0    0  501 -0.00000000000E+00 -0.00000000000E+00 -0.22224790304E+02  0.22261046787E+02  0.12700000000E+01 0.  1.
         25    2    1    2    0    0  0.00000000000E+00  0.00000000000E+00  0.15321094253E+03  0.19770137640E+03  0.12494895486E+03 0.  0.
    9000005    1    3    3    0    0 -0.48200897470E+02 -0.37583250707E+02  0.56205207150E+02  0.83041270230E+02  0.10000000000E+01 0.  0.
    9000005    1    3    3    0    0  0.48200897470E+02  0.37583250707E+02  0.97005735376E+02  0.11466010617E+03  0.10000000000E+01 0.  0.
<mgrwt>
<rscale>  0 0.12494895E+03</rscale>
<asrwt>0</asrwt>
<pdfrwt beam="1">  1        4 0.26993254E-01 0.12494895E+03</pdfrwt>
<pdfrwt beam="2">  1       -4 0.34223412E-02 0.12494895E+03</pdfrwt>
<totfact> 0.90627806E+03</totfact>
</mgrwt>
</event>
<event>
 5    1  0.3199195E-002  0.1250036E+03  0.7818608E-02  0.1235064E+00
          4   -1    0    0  501    0  0.00000000000E+00  0.00000000000E+00  0.77220508951E+02  0.77230951714E+02  0.12700000000E+01 0. -1.
         -4   -1    0    0    0  501 -0.00000000000E+00 -0.00000000000E+00 -0.50566734162E+02  0.50582679880E+02  0.12700000000E+01 0. -1.
         25    2    1    2    0    0  0.00000000000E+00  0.00000000000E+00  0.26653774788E+02  0.12781363159E+03  0.12500360279E+03 0.  0.
    9000005    1    3    3    0    0 -0.51727535850E+02  0.59711588408E+01  0.48659179046E+02  0.71274879224E+02  0.10000000000E+01 0.  0.
    9000005    1    3    3    0    0  0.51727535850E+02 -0.59711588408E+01 -0.22005404257E+02  0.56538752370E+02  0.10000000000E+01 0.  0.
<mgrwt>
<rscale>  0 0.12500360E+03</rscale>
<asrwt>0</asrwt>
<pdfrwt beam="1">  1        4 0.11882108E-01 0.12500360E+03</pdfrwt>
<pdfrwt beam="2">  1       -4 0.77815275E-02 0.12500360E+03</pdfrwt>
<totfact> 0.10390669E+04</totfact>
</mgrwt>
</event>
<event>
 5    1  0.3199195E-002  0.1249810E+03  0.7818608E-02  0.1235099E+00
          4   -1    0    0  501    0  0.00000000000E+00  0.00000000000E+00  0.22773647751E+03  0.22774001864E+03  0.12700000000E+01 0.  1.
         -4   -1    0    0    0  501 -0.00000000000E+00 -0.00000000000E+00 -0.17120100291E+02  0.17167141113E+02  0.12700000000E+01 0.  1.
         25    2    1    2    0    0  0.00000000000E+00  0.00000000000E+00  0.21061637722E+03  0.24490715975E+03  0.12498103274E+03 0.  0.
    9000005    1    3    3    0    0 -0.40932487711E+02 -0.20066499398E+02  0.21574613278E+02  0.50443997526E+02  0.10000000000E+01 0.  0.
    9000005    1    3    3    0    0  0.40932487711E+02  0.20066499398E+02  0.18904176394E+03  0.19446316223E+03  0.10000000000E+01 0.  0.
<mgrwt>
<rscale>  0 0.12498103E+03</rscale>
<asrwt>0</asrwt>
<pdfrwt beam="1">  1        4 0.35040274E-01 0.12498103E+03</pdfrwt>
<pdfrwt beam="2">  1       -4 0.26377524E-02 0.12498103E+03</pdfrwt>
<totfact> 0.83107039E+03</totfact>
</mgrwt>
</event>
<event>
 5    1  0.3199195E-002  0.1250023E+03  0.7818608E-02  0.1235066E+00
          4   -1    0    0  501    0  0.00000000000E+00  0.00000000000E+00  0.27927196834E+02  0.27956058789E+02  0.12700000000E+01 0. -1.
         -4   -1    0    0    0  501 -0.00000000000E+00 -0.00000000000E+00 -0.13977382132E+03  0.13977959088E+03  0.12700000000E+01 0. -1.
         25    2    1    2    0    0  0.00000000000E+00  0.00000000000E+00 -0.11184662448E+03  0.16773564967E+03  0.12500232302E+03 0.  0.
    9000005    1    3    3    0    0  0.56715607313E+02  0.13985875047E+02 -0.26125239984E+02  0.63998382620E+02  0.10000000000E+01 0.  0.
    9000005    1    3    3    0    0 -0.56715607313E+02 -0.13985875047E+02 -0.85721384499E+02  0.10373726705E+03  0.10000000000E+01 0.  0.
<mgrwt>
<rscale>  0 0.12500232E+03</rscale>
<asrwt>0</asrwt>
<pdfrwt beam="1">  1        4 0.42991559E-02 0.12500232E+03</pdfrwt>
<pdfrwt beam="2">  1       -4 0.21506328E-01 0.12500232E+03</pdfrwt>
<totfact> 0.95866796E+03</totfact>
</mgrwt>
</event>
<event>
 5    1  0.3199195E-002  0.1250028E+03  0.7818608E-02  0.1235065E+00
         -4   -1    0    0    0  501 -0.00000000000E+00  0.00000000000E+00  0.18441683190E+02  0.18485361205E+02  0.12700000000E+01 0.  1.
          4   -1    0    0  501    0  0.00000000000E+00 -0.00000000000E+00 -0.21152983156E+03  0.21153364399E+03  0.12700000000E+01 0.  1.
         25    2    1    2    0    0  0.00000000000E+00  0.00000000000E+00 -0.19308814837E+03  0.23001900520E+03  0.12500283881E+03 0.  0.
    9000005    1    3    3    0    0  0.31067634940E+02 -0.54200602667E+02 -0.93620581219E+02  0.11255539302E+03  0.10000000000E+01 0.  0.
    9000005    1    3    3    0    0 -0.31067634940E+02  0.54200602667E+02 -0.99467567156E+02  0.11746361218E+03  0.10000000000E+01 0.  0.
<mgrwt>
<rscale>  0 0.12500284E+03</rscale>
<asrwt>0</asrwt>
<pdfrwt beam="2">  1        4 0.32546702E-01 0.12500284E+03</pdfrwt>
<pdfrwt beam="1">  1       -4 0.28408353E-02 0.12500284E+03</pdfrwt>
<totfact> 0.85301276E+03</totfact>
</mgrwt>
</event>
<event>
 5    1  0.3199195E-002  0.1250002E+03  0.7818608E-02  0.1235069E+00
          4   -1    0    0  501    0  0.00000000000E+00  0.00000000000E+00  0.59305679551E+01  0.60650256611E+01  0.12700000000E+01 0.  1.
         -4   -1    0    0    0  501 -0.00000000000E+00 -0.00000000000E+00 -0.65114831808E+03  0.65114955659E+03  0.12700000000E+01 0.  1.
         25    2    1    2    0    0  0.00000000000E+00  0.00000000000E+00 -0.64521775013E+03  0.65721458225E+03  0.12500024815E+03 0.  0.
    9000005    1    3    3    0    0 -0.20541156660E+02 -0.57991246208E+02 -0.38028611740E+03  0.38523168982E+03  0.10000000000E+01 0.  0.
    9000005    1    3    3    0    0  0.20541156660E+02  0.57991246208E+02 -0.26493163273E+03  0.27198289243E+03  0.10000000000E+01 0.  0.
<mgrwt>
<rscale>  0 0.12500025E+03</rscale>
<asrwt>0</asrwt>
<pdfrwt beam="1">  1        4 0.92283375E-03 0.12500025E+03</pdfrwt>
<pdfrwt beam="2">  1       -4 0.10018705E+00 0.12500025E+03</pdfrwt>
<totfact> 0.45443081E+03</totfact>
</mgrwt>
</event>
<event>
 5    1  0.3199195E-002  0.1249982E+03  0.7818608E-02  0.1235072E+00
          4   -1    0    0  501    0  0.00000000000E+00  0.00000000000E+00  0.40631750279E+03  0.40631948756E+03  0.12700000000E+01 0.  1.
         -4   -1    0    0    0  501 -0.00000000000E+00 -0.00000000000E+00 -0.95695424948E+01  0.96534472372E+01  0.12700000000E+01 0.  1.
         25    2    1    2    0    0  0.00000000000E+00  0.00000000000E+00  0.39674796030E+03  0.41597293480E+03  0.12499815394E+03 0.  0.
    9000005    1    3    3    0    0 -0.28729172142E+02 -0.20798771308E+02  0.27154472196E+02  0.44680192257E+02  0.10000000000E+01 0.  0.
    9000005    1    3    3    0    0  0.28729172142E+02  0.20798771308E+02  0.36959348810E+03  0.37129274254E+03  0.10000000000E+01 0.  0.
<mgrwt>
<rscale>  0 0.12499815E+03</rscale>
<asrwt>0</asrwt>
<pdfrwt beam="1">  1        4 0.62516977E-01 0.12499815E+03</pdfrwt>
<pdfrwt beam="2">  1       -4 0.14788445E-02 0.12499815E+03</pdfrwt>
<totfact> 0.63030947E+03</totfact>
</mgrwt>
</event>
<event>
 5    1  0.3199195E-002  0.1250001E+03  0.7818608E-02  0.1235069E+00
          4   -1    0    0  501    0  0.00000000000E+00  0.00000000000E+00  0.30197701507E+01  0.32759596705E+01  0.12700000000E+01 0.  1.
         -4   -1    0    0    0  501 -0.00000000000E+00 -0.00000000000E+00 -0.12406653432E+04  0.12406659932E+04  0.12700000000E+01 0.  1.
         25    2    1    2    0    0  0.00000000000E+00  0.00000000000E+00 -0.12376455731E+04  0.12439419529E+04  0.12500007063E+03 0.  0.
    9000005    1    3    3    0    0 -0.54957040261E+02 -0.28317095177E+02 -0.70955119770E+03  0.71224015354E+03  0.10000000000E+01 0.  0.
    9000005    1    3    3    0    0  0.54957040261E+02  0.28317095177E+02 -0.52809437536E+03  0.53170179936E+03  0.10000000000E+01 0.  0.
<mgrwt>
<rscale>  0 0.12500007E+03</rscale>
<asrwt>0</asrwt>
<pdfrwt beam="1">  1        4 0.48433790E-03 0.12500007E+03</pdfrwt>
<pdfrwt beam="2">  1       -4 0.19089096E+00 0.12500007E+03</pdfrwt>
<totfact> 0.23590683E+03</totfact>
</mgrwt>
</event>
<event>
 5    1  0.3199195E-002  0.1249999E+03  0.7818608E-02  0.1235069E+00
         -4   -1    0    0    0  501 -0.00000000000E+00  0.00000000000E+00  0.11355295946E+03  0.11356006121E+03  0.12700000000E+01 0. -1.
          4   -1    0    0  501    0  0.00000000000E+00 -0.00000000000E+00 -0.34380309064E+02  0.34403757808E+02  0.12700000000E+01 0. -1.
         25    2    1    2    0    0  0.00000000000E+00  0.00000000000E+00  0.79172650392E+02  0.14796381902E+03  0.12499993267E+03 0.  0.
    9000005    1    3    3    0    0  0.53298045919E+02  0.39681433295E+01  0.12512954139E+01  0.53469557698E+02  0.10000000000E+01 0.  0.
    9000005    1    3    3    0    0 -0.53298045919E+02 -0.39681433295E+01  0.77921354978E+02  0.94494261317E+02  0.10000000000E+01 0.  0.
<mgrwt>
<rscale>  0 0.12499993E+03</rscale>
<asrwt>0</asrwt>
<pdfrwt beam="2">  1        4 0.52916283E-02 0.12499993E+03</pdfrwt>
<pdfrwt beam="1">  1       -4 0.17472036E-01 0.12499993E+03</pdfrwt>
<totfact> 0.99711290E+03</totfact>
</mgrwt>
</event>
<event>
 5    1  0.3199195E-002  0.1250025E+03  0.7818608E-02  0.1235065E+00
         -4   -1    0    0    0  501 -0.00000000000E+00  0.00000000000E+00  0.12975605430E+02  0.13037608533E+02  0.12700000000E+01 0. -1.
          4   -1    0    0  501    0  0.00000000000E+00 -0.00000000000E+00 -0.30027696124E+03  0.30027964692E+03  0.12700000000E+01 0. -1.
         25    2    1    2    0    0  0.00000000000E+00  0.00000000000E+00 -0.28730135581E+03  0.31331725545E+03  0.12500253402E+03 0.  0.
    9000005    1    3    3    0    0 -0.56347623901E+02  0.19075778104E+02 -0.95668082884E+02  0.11266020643E+03  0.10000000000E+01 0.  0.
    9000005    1    3    3    0    0  0.56347623901E+02 -0.19075778104E+02 -0.19163327293E+03  0.20065704902E+03  0.10000000000E+01 0.  0.
<mgrwt>
<rscale>  0 0.12500253E+03</rscale>
<asrwt>0</asrwt>
<pdfrwt beam="2">  1        4 0.46201427E-01 0.12500253E+03</pdfrwt>
<pdfrwt beam="1">  1       -4 0.20012233E-02 0.12500253E+03</pdfrwt>
<totfact> 0.73953909E+03</totfact>
</mgrwt>
</event>
<event>
 5    1  0.3199195E-002  0.1250055E+03  0.7818608E-02  0.1235061E+00
         -4   -1    0    0    0  501 -0.00000000000E+00  0.00000000000E+00  0.20968592540E+02  0.21007017235E+02  0.12700000000E+01 0. -1.
          4   -1    0    0  501    0  0.00000000000E+00 -0.00000000000E+00 -0.18609579637E+03  0.18610012984E+03  0.12700000000E+01 0. -1.
         25    2    1    2    0    0  0.00000000000E+00  0.00000000000E+00 -0.16512720383E+03  0.20710714708E+03  0.12500550758E+03 0.  0.
    9000005    1    3    3    0    0 -0.49692628480E+02 -0.37251746723E+02 -0.94107033551E+02  0.11275718923E+03  0.10000000000E+01 0.  0.
    9000005    1    3    3    0    0  0.49692628480E+02  0.37251746723E+02 -0.71020170280E+02  0.94349957847E+02  0.10000000000E+01 0.  0.
<mgrwt>
<rscale>  0 0.12500551E+03</rscale>
<asrwt>0</asrwt>
<pdfrwt beam="2">  1        4 0.28633411E-01 0.12500551E+03</pdfrwt>
<pdfrwt beam="1">  1       -4 0.32292265E-02 0.12500551E+03</pdfrwt>
<totfact> 0.88939557E+03</totfact>
</mgrwt>
</event>
<event>
 5    1  0.3199195E-002  0.1249967E+03  0.7818608E-02  0.1235074E+00
          4   -1    0    0  501    0  0.00000000000E+00  0.00000000000E+00  0.11700641328E+02  0.11769363088E+02  0.12700000000E+01 0.  1.
         -4   -1    0    0    0  501 -0.00000000000E+00 -0.00000000000E+00 -0.33278444204E+03  0.33278686538E+03  0.12700000000E+01 0.  1.
         25    2    1    2    0    0  0.00000000000E+00  0.00000000000E+00 -0.32108380072E+03  0.34455622846E+03  0.12499674992E+03 0.  0.
    9000005    1    3    3    0    0 -0.49202000468E+02 -0.36412685173E+02 -0.12585719364E+03  0.13995625632E+03  0.10000000000E+01 0.  0.
    9000005    1    3    3    0    0  0.49202000468E+02  0.36412685173E+02 -0.19522660707E+03  0.20459997214E+03  0.10000000000E+01 0.  0.
<mgrwt>
<rscale>  0 0.12499675E+03</rscale>
<asrwt>0</asrwt>
<pdfrwt beam="1">  1        4 0.18055716E-02 0.12499675E+03</pdfrwt>
<pdfrwt beam="2">  1       -4 0.51203072E-01 0.12499675E+03</pdfrwt>
<totfact> 0.70332681E+03</totfact>
</mgrwt>
</event>
<event>
 5    1  0.3199195E-002  0.1250006E+03  0.7818608E-02  0.1235068E+00
          4   -1    0    0  501    0  0.00000000000E+00  0.00000000000E+00  0.11717551042E+03  0.11718239262E+03  0.12700000000E+01 0.  1.
         -4   -1    0    0    0  501 -0.00000000000E+00 -0.00000000000E+00 -0.33317130423E+02  0.33341326902E+02  0.12700000000E+01 0.  1.
         25    2    1    2    0    0  0.00000000000E+00  0.00000000000E+00  0.83858379992E+02  0.15052371953E+03  0.12500064898E+03 0.  0.
    9000005    1    3    3    0    0  0.40476994989E+02  0.42760760499E+02  0.16715393195E+02  0.61214982900E+02  0.10000000000E+01 0.  0.
    9000005    1    3    3    0    0 -0.40476994989E+02 -0.42760760499E+02  0.67142986797E+02  0.89308736626E+02  0.10000000000E+01 0.  0.
<mgrwt>
<rscale>  0 0.12500065E+03</rscale>
<asrwt>0</asrwt>
<pdfrwt beam="1">  1        4 0.18029392E-01 0.12500065E+03</pdfrwt>
<pdfrwt beam="2">  1       -4 0.51281031E-02 0.12500065E+03</pdfrwt>
<totfact> 0.99197956E+03</totfact>
</mgrwt>
</event>
<event>
 5    1  0.3199195E-002  0.1249966E+03  0.7818608E-02  0.1235075E+00
          4   -1    0    0  501    0  0.00000000000E+00  0.00000000000E+00  0.19439257409E+02  0.19480698874E+02  0.12700000000E+01 0. -1.
         -4   -1    0    0    0  501 -0.00000000000E+00 -0.00000000000E+00 -0.20067815393E+03  0.20068217251E+03  0.12700000000E+01 0. -1.
         25    2    1    2    0    0  0.00000000000E+00  0.00000000000E+00 -0.18123889652E+03  0.22016287138E+03  0.12499660925E+03 0.  0.
    9000005    1    3    3    0    0 -0.55287517263E+02  0.23923625322E+02 -0.11988060385E+03  0.13416932807E+03  0.10000000000E+01 0.  0.
    9000005    1    3    3    0    0  0.55287517263E+02 -0.23923625322E+02 -0.61358292666E+02  0.85993543319E+02  0.10000000000E+01 0.  0.
<mgrwt>
<rscale>  0 0.12499661E+03</rscale>
<asrwt>0</asrwt>
<pdfrwt beam="1">  1        4 0.29941521E-02 0.12499661E+03</pdfrwt>
<pdfrwt beam="2">  1       -4 0.30877058E-01 0.12499661E+03</pdfrwt>
<totfact> 0.86849162E+03</totfact>
</mgrwt>
</event>
<event>
 5    1  0.3199195E-002  0.1250013E+03  0.7818608E-02  0.1235067E+00
         -4   -1    0    0    0  501 -0.00000000000E+00  0.00000000000E+00  0.58786829010E+03  0.58786966192E+03  0.12700000000E+01 0. -1.
          4   -1    0    0  501    0  0.00000000000E+00 -0.00000000000E+00 -0.65828298311E+01  0.67042187155E+01  0.12700000000E+01 0. -1.
         25    2    1    2    0    0  0.00000000000E+00  0.00000000000E+00  0.58128546027E+03  0.59457388063E+03  0.12500125285E+03 0.  0.
    9000005    1    3    3    0    0 -0.28352437726E+02  0.26723590872E+02  0.52304829930E+03  0.52449836457E+03  0.10000000000E+01 0.  0.
    9000005    1    3    3    0    0  0.28352437726E+02 -0.26723590872E+02  0.58237160961E+02  0.70075516059E+02  0.10000000000E+01 0.  0.
<mgrwt>
<rscale>  0 0.12500125E+03</rscale>
<asrwt>0</asrwt>
<pdfrwt beam="2">  1        4 0.10221860E-02 0.12500125E+03</pdfrwt>
<pdfrwt beam="1">  1       -4 0.90450738E-01 0.12500125E+03</pdfrwt>
<totfact> 0.49210563E+03</totfact>
</mgrwt>
</event>
<event>
 5    1  0.3199195E-002  0.1249939E+03  0.7818608E-02  0.1235079E+00
         -4   -1    0    0    0  501 -0.00000000000E+00  0.00000000000E+00  0.11725197246E+02  0.11793775920E+02  0.12700000000E+01 0. -1.
          4   -1    0    0  501    0  0.00000000000E+00 -0.00000000000E+00 -0.33207638643E+03  0.33207881493E+03  0.12700000000E+01 0. -1.
         25    2    1    2    0    0  0.00000000000E+00  0.00000000000E+00 -0.32035118919E+03  0.34387259085E+03  0.12499389715E+03 0.  0.
    9000005    1    3    3    0    0 -0.58299417053E+02 -0.16909675706E+01 -0.98463038329E+02  0.11444497069E+03  0.10000000000E+01 0.  0.
    9000005    1    3    3    0    0  0.58299417053E+02  0.16909675706E+01 -0.22188815086E+03  0.22942762016E+03  0.10000000000E+01 0.  0.
<mgrwt>
<rscale>  0 0.12499390E+03</rscale>
<asrwt>0</asrwt>
<pdfrwt beam="2">  1        4 0.51094130E-01 0.12499390E+03</pdfrwt>
<pdfrwt beam="1">  1       -4 0.18093388E-02 0.12499390E+03</pdfrwt>
<totfact> 0.70413463E+03</totfact>
</mgrwt>
</event>
<event>
 5    1  0.3199195E-002  0.1249947E+03  0.7818608E-02  0.1235078E+00
         -4   -1    0    0    0  501 -0.00000000000E+00  0.00000000000E+00  0.59700561433E+02  0.59714068153E+02  0.12700000000E+01 0. -1.
          4   -1    0    0  501    0  0.00000000000E+00 -0.00000000000E+00 -0.65398118253E+02  0.65410448485E+02  0.12700000000E+01 0. -1.
         25    2    1    2    0    0  0.00000000000E+00  0.00000000000E+00 -0.56975568207E+01  0.12512451664E+03  0.12499472993E+03 0.  0.
    9000005    1    3    3    0    0  0.79564419402E+01 -0.16198116047E+02 -0.62737620991E+02  0.65289302488E+02  0.10000000000E+01 0.  0.
    9000005    1    3    3    0    0 -0.79564419402E+01  0.16198116047E+02  0.57040064170E+02  0.59835214150E+02  0.10000000000E+01 0.  0.
<mgrwt>
<rscale>  0 0.12499473E+03</rscale>
<asrwt>0</asrwt>
<pdfrwt beam="2">  1        4 0.10063236E-01 0.12499473E+03</pdfrwt>
<pdfrwt beam="1">  1       -4 0.91866892E-02 0.12499473E+03</pdfrwt>
<totfact> 0.10451403E+04</totfact>
</mgrwt>
</event>
<event>
 5    1  0.3199195E-002  0.1249988E+03  0.7818608E-02  0.1235071E+00
          4   -1    0    0  501    0  0.00000000000E+00  0.00000000000E+00  0.17672537703E+03  0.17672994027E+03  0.12700000000E+01 0. -1.
         -4   -1    0    0    0  501 -0.00000000000E+00 -0.00000000000E+00 -0.22079970933E+02  0.22116464827E+02  0.12700000000E+01 0. -1.
         25    2    1    2    0    0  0.00000000000E+00  0.00000000000E+00  0.15464540610E+03  0.19884640510E+03  0.12499876476E+03 0.  0.
    9000005    1    3    3    0    0 -0.33333878532E+02  0.25052217989E+02  0.32799564976E+01  0.41839206479E+02  0.10000000000E+01 0.  0.
    9000005    1    3    3    0    0  0.33333878532E+02 -0.25052217989E+02  0.15136544960E+03  0.15700719862E+03  0.10000000000E+01 0.  0.
<mgrwt>
<rscale>  0 0.12499876E+03</rscale>
<asrwt>0</asrwt>
<pdfrwt beam="1">  1        4 0.27191678E-01 0.12499876E+03</pdfrwt>
<pdfrwt beam="2">  1       -4 0.34000768E-02 0.12499876E+03</pdfrwt>
<totfact> 0.90332931E+03</totfact>
</mgrwt>
</event>
<event>
 5    1  0.3199195E-002  0.1249988E+03  0.7818608E-02  0.1235071E+00
         -4   -1    0    0    0  501 -0.00000000000E+00  0.00000000000E+00  0.11426639078E+02  0.11496998766E+02  0.12700000000E+01 0.  1.
          4   -1    0    0  501    0  0.00000000000E+00 -0.00000000000E+00 -0.34072752688E+03  0.34072989372E+03  0.12700000000E+01 0.  1.
         25    2    1    2    0    0  0.00000000000E+00  0.00000000000E+00 -0.32930088780E+03  0.35222689248E+03  0.12499883632E+03 0.  0.
    9000005    1    3    3    0    0 -0.37154725116E+02  0.16321612625E+02 -0.30741930507E+02  0.50920869282E+02  0.10000000000E+01 0.  0.
    9000005    1    3    3    0    0  0.37154725116E+02 -0.16321612625E+02 -0.29855895729E+03  0.30130602320E+03  0.10000000000E+01 0.  0.
<mgrwt>
<rscale>  0 0.12499884E+03</rscale>
<asrwt>0</asrwt>
<pdfrwt beam="2">  1        4 0.52425206E-01 0.12499884E+03</pdfrwt>
<pdfrwt beam="1">  1       -4 0.17635391E-02 0.12499884E+03</pdfrwt>
<totfact> 0.69482056E+03</totfact>
</mgrwt>
</event>
<event>
 5    1  0.3199195E-002  0.1250037E+03  0.7818608E-02  0.1235064E+00
          4   -1    0    0  501    0  0.00000000000E+00  0.00000000000E+00  0.22482764138E+01  0.25821786989E+01  0.12700000000E+01 0.  1.
         -4   -1    0    0    0  501 -0.00000000000E+00 -0.00000000000E+00 -0.16171027193E+04  0.16171032180E+04  0.12700000000E+01 0.  1.
         25    2    1    2    0    0  0.00000000000E+00  0.00000000000E+00 -0.16148544429E+04  0.16196853967E+04  0.12500365023E+03 0.  0.
    9000005    1    3    3    0    0  0.35914641866E+02 -0.41783129382E+02 -0.42529438039E+03  0.42884962562E+03  0.10000000000E+01 0.  0.
    9000005    1    3    3    0    0 -0.35914641866E+02  0.41783129382E+02 -0.11895600625E+04  0.11908357711E+04  0.10000000000E+01 0.  0.
<mgrwt>
<rscale>  0 0.12500365E+03</rscale>
<asrwt>0</asrwt>
<pdfrwt beam="1">  1        4 0.37161312E-03 0.12500365E+03</pdfrwt>
<pdfrwt beam="2">  1       -4 0.24880989E+00 0.12500365E+03</pdfrwt>
<totfact> 0.15691745E+03</totfact>
</mgrwt>
</event>
<event>
 5    1  0.3199195E-002  0.1250044E+03  0.7818608E-02  0.1235062E+00
          4   -1    0    0  501    0  0.00000000000E+00  0.00000000000E+00  0.11648077518E+02  0.11717107572E+02  0.12700000000E+01 0. -1.
         -4   -1    0    0    0  501 -0.00000000000E+00 -0.00000000000E+00 -0.33431821012E+03  0.33432062233E+03  0.12700000000E+01 0. -1.
         25    2    1    2    0    0  0.00000000000E+00  0.00000000000E+00 -0.32267013260E+03  0.34603772990E+03  0.12500438410E+03 0.  0.
    9000005    1    3    3    0    0 -0.62136791444E+02  0.19587197019E+01 -0.17899668499E+03  0.18948781141E+03  0.10000000000E+01 0.  0.
    9000005    1    3    3    0    0  0.62136791444E+02 -0.19587197019E+01 -0.14367344761E+03  0.15654991849E+03  0.10000000000E+01 0.  0.
<mgrwt>
<rscale>  0 0.12500438E+03</rscale>
<asrwt>0</asrwt>
<pdfrwt beam="1">  1        4 0.17975077E-02 0.12500438E+03</pdfrwt>
<pdfrwt beam="2">  1       -4 0.51439059E-01 0.12500438E+03</pdfrwt>
<totfact> 0.70155859E+03</totfact>
</mgrwt>
</event>
<event>
 5    1  0.3199195E-002  0.1249984E+03  0.7818608E-02  0.1235072E+00
          4   -1    0    0  501    0  0.00000000000E+00  0.00000000000E+00  0.14393125924E+02  0.14449047507E+02  0.12700000000E+01 0. -1.
         -4   -1    0    0    0  501 -0.00000000000E+00 -0.00000000000E+00 -0.27080630103E+03  0.27080927897E+03  0.12700000000E+01 0. -1.
         25    2    1    2    0    0  0.00000000000E+00  0.00000000000E+00 -0.25641317510E+03  0.28525832648E+03  0.12499838582E+03 0.  0.
    9000005    1    3    3    0    0 -0.45656922126E+02 -0.41860993966E+02 -0.10935313664E+03  0.12568216201E+03  0.10000000000E+01 0.  0.
    9000005    1    3    3    0    0  0.45656922126E+02  0.41860993966E+02 -0.14706003846E+03  0.15957616447E+03  0.10000000000E+01 0.  0.
<mgrwt>
<rscale>  0 0.12499839E+03</rscale>
<asrwt>0</asrwt>
<pdfrwt beam="1">  1        4 0.22188580E-02 0.12499839E+03</pdfrwt>
<pdfrwt beam="2">  1       -4 0.41667035E-01 0.12499839E+03</pdfrwt>
<totfact> 0.77488797E+03</totfact>
</mgrwt>
</event>
<event>
 5    1  0.3199195E-002  0.1249989E+03  0.7818608E-02  0.1235071E+00
          4   -1    0    0  501    0  0.00000000000E+00  0.00000000000E+00  0.62186065694E+01  0.63469652327E+01  0.12700000000E+01 0.  1.
         -4   -1    0    0    0  501 -0.00000000000E+00 -0.00000000000E+00 -0.62159902652E+03  0.62160032390E+03  0.12700000000E+01 0.  1.
         25    2    1    2    0    0  0.00000000000E+00  0.00000000000E+00 -0.61538041995E+03  0.62794728913E+03  0.12499894667E+03 0.  0.
    9000005    1    3    3    0    0  0.40763502113E+01 -0.42099694902E+02 -0.76593655571E+02  0.87501937210E+02  0.10000000000E+01 0.  0.
    9000005    1    3    3    0    0 -0.40763502113E+01  0.42099694902E+02 -0.53878676438E+03  0.54044535192E+03  0.10000000000E+01 0.  0.
<mgrwt>
<rscale>  0 0.12499895E+03</rscale>
<asrwt>0</asrwt>
<pdfrwt beam="1">  1        4 0.96668273E-03 0.12499895E+03</pdfrwt>
<pdfrwt beam="2">  1       -4 0.95640545E-01 0.12499895E+03</pdfrwt>
<totfact> 0.47150823E+03</totfact>
</mgrwt>
</event>
<event>
 5    1  0.3199195E-002  0.1249897E+03  0.7818608E-02  0.1235085E+00
         -4   -1    0    0    0  501 -0.00000000000E+00  0.00000000000E+00  0.53041916129E+02  0.53057117964E+02  0.12700000000E+01 0.  1.
          4   -1    0    0  501    0  0.00000000000E+00 -0.00000000000E+00 -0.73601276432E+02  0.73612232627E+02  0.12700000000E+01 0.  1.
         25    2    1    2    0    0  0.00000000000E+00  0.00000000000E+00 -0.20559360303E+02  0.12666935059E+03  0.12498974791E+03 0.  0.
    9000005    1    3    3    0    0  0.20247686283E+02  0.44569440850E+02  0.29077810366E+02  0.56946667270E+02  0.10000000000E+01 0.  0.
    9000005    1    3    3    0    0 -0.20247686283E+02 -0.44569440850E+02 -0.49637170669E+02  0.69722683321E+02  0.10000000000E+01 0.  0.
<mgrwt>
<rscale>  0 0.12498975E+03</rscale>
<asrwt>0</asrwt>
<pdfrwt beam="2">  1        4 0.11325285E-01 0.12498975E+03</pdfrwt>
<pdfrwt beam="1">  1       -4 0.81623070E-02 0.12498975E+03</pdfrwt>
<totfact> 0.10418748E+04</totfact>
</mgrwt>
</event>
<event>
 5    1  0.3199195E-002  0.1250001E+03  0.7818608E-02  0.1235069E+00
         -4   -1    0    0    0  501 -0.00000000000E+00  0.00000000000E+00  0.77067677305E+02  0.77078140774E+02  0.12700000000E+01 0. -1.
          4   -1    0    0  501    0  0.00000000000E+00 -0.00000000000E+00 -0.50664196305E+02  0.50680111358E+02  0.12700000000E+01 0. -1.
         25    2    1    2    0    0  0.00000000000E+00  0.00000000000E+00  0.26403481000E+02  0.12775825213E+03  0.12500010872E+03 0.  0.
    9000005    1    3    3    0    0 -0.50140069297E+02 -0.73287393032E+01  0.50580827122E+02  0.71604169161E+02  0.10000000000E+01 0.  0.
    9000005    1    3    3    0    0  0.50140069297E+02  0.73287393032E+01 -0.24177346123E+02  0.56154082972E+02  0.10000000000E+01 0.  0.
<mgrwt>
<rscale>  0 0.12500011E+03</rscale>
<asrwt>0</asrwt>
<pdfrwt beam="2">  1        4 0.77965209E-02 0.12500011E+03</pdfrwt>
<pdfrwt beam="1">  1       -4 0.11858595E-01 0.12500011E+03</pdfrwt>
<totfact> 0.10392686E+04</totfact>
</mgrwt>
</event>
<event>
 5    1  0.3199195E-002  0.1249992E+03  0.7818608E-02  0.1235071E+00
          4   -1    0    0  501    0  0.00000000000E+00  0.00000000000E+00  0.14688184797E+03  0.14688733834E+03  0.12700000000E+01 0. -1.
         -4   -1    0    0    0  501 -0.00000000000E+00 -0.00000000000E+00 -0.26572994983E+02  0.26603326153E+02  0.12700000000E+01 0. -1.
         25    2    1    2    0    0  0.00000000000E+00  0.00000000000E+00  0.12030885299E+03  0.17349066449E+03  0.12499916223E+03 0.  0.
    9000005    1    3    3    0    0 -0.53669865795E+02 -0.24464812591E+02  0.31500514123E+02  0.66874987399E+02  0.10000000000E+01 0.  0.
    9000005    1    3    3    0    0  0.53669865795E+02  0.24464812591E+02  0.88808338868E+02  0.10661567709E+03  0.10000000000E+01 0.  0.
<mgrwt>
<rscale>  0 0.12499916E+03</rscale>
<asrwt>0</asrwt>
<pdfrwt beam="1">  1        4 0.22599963E-01 0.12499916E+03</pdfrwt>
<pdfrwt beam="2">  1       -4 0.40909086E-02 0.12499916E+03</pdfrwt>
<totfact> 0.94803783E+03</totfact>
</mgrwt>
</event>
<event>
 5    1  0.3199195E-002  0.1249933E+03  0.7818608E-02  0.1235080E+00
         -4   -1    0    0    0  501 -0.00000000000E+00  0.00000000000E+00  0.13021721707E+02  0.13083506266E+02  0.12700000000E+01 0. -1.
          4   -1    0    0  501    0  0.00000000000E+00 -0.00000000000E+00 -0.29917443026E+03  0.29917712584E+03  0.12700000000E+01 0. -1.
         25    2    1    2    0    0  0.00000000000E+00  0.00000000000E+00 -0.28615270856E+03  0.31226063210E+03  0.12499331881E+03 0.  0.
    9000005    1    3    3    0    0 -0.24843834277E+02  0.46897795868E+02 -0.60664932758E+02  0.80609263893E+02  0.10000000000E+01 0.  0.
    9000005    1    3    3    0    0  0.24843834277E+02 -0.46897795868E+02 -0.22548777580E+03  0.23165136821E+03  0.10000000000E+01 0.  0.
<mgrwt>
<rscale>  0 0.12499332E+03</rscale>
<asrwt>0</asrwt>
<pdfrwt beam="2">  1        4 0.46031790E-01 0.12499332E+03</pdfrwt>
<pdfrwt beam="1">  1       -4 0.20083020E-02 0.12499332E+03</pdfrwt>
<totfact> 0.74097156E+03</totfact>
</mgrwt>
</event>
<event>
 5    1  0.3199195E-002  0.1250020E+03  0.7818608E-02  0.1235066E+00
          4   -1    0    0  501    0  0.00000000000E+00  0.00000000000E+00  0.15970321639E+03  0.15970826599E+03  0.12700000000E+01 0. -1.
         -4   -1    0    0    0  501 -0.00000000000E+00 -0.00000000000E+00 -0.24438275000E+02  0.24471252216E+02  0.12700000000E+01 0. -1.
         25    2    1    2    0    0  0.00000000000E+00  0.00000000000E+00  0.13526494139E+03  0.18417951821E+03  0.12500196221E+03 0.  0.
    9000005    1    3    3    0    0  0.26929960985E+02  0.15504467618E+02 -0.12255343422E+02  0.33418628894E+02  0.10000000000E+01 0.  0.
    9000005    1    3    3    0    0 -0.26929960985E+02 -0.15504467618E+02  0.14752028482E+03  0.15076088932E+03  0.10000000000E+01 0.  0.
<mgrwt>
<rscale>  0 0.12500196E+03</rscale>
<asrwt>0</asrwt>
<pdfrwt beam="1">  1        4 0.24572650E-01 0.12500196E+03</pdfrwt>
<pdfrwt beam="2">  1       -4 0.37626599E-02 0.12500196E+03</pdfrwt>
<totfact> 0.92865957E+03</totfact>
</mgrwt>
</event>
<event>
 5    1  0.3199195E-002  0.1249987E+03  0.7818608E-02  0.1235071E+00
         -4   -1    0    0    0  501 -0.00000000000E+00  0.00000000000E+00  0.25418502182E+03  0.25418819448E+03  0.12700000000E+01 0. -1.
          4   -1    0    0  501    0  0.00000000000E+00 -0.00000000000E+00 -0.15337911909E+02  0.15390400960E+02  0.12700000000E+01 0. -1.
         25    2    1    2    0    0  0.00000000000E+00  0.00000000000E+00  0.23884710991E+03  0.26957859545E+03  0.12499870884E+03 0.  0.
    9000005    1    3    3    0    0 -0.42555102093E+02 -0.26358222556E+02  0.20010296506E+03  0.20627139703E+03  0.10000000000E+01 0.  0.
    9000005    1    3    3    0    0  0.42555102093E+02  0.26358222556E+02  0.38744144852E+02  0.63307198412E+02  0.10000000000E+01 0.  0.
<mgrwt>
<rscale>  0 0.12499871E+03</rscale>
<asrwt>0</asrwt>
<pdfrwt beam="2">  1        4 0.23639605E-02 0.12499871E+03</pdfrwt>
<pdfrwt beam="1">  1       -4 0.39109669E-01 0.12499871E+03</pdfrwt>
<totfact> 0.79582639E+03</totfact>
</mgrwt>
</event>
<event>
 5    1  0.3199195E-002  0.1249997E+03  0.7818608E-02  0.1235070E+00
         -4   -1    0    0    0  501 -0.00000000000E+00  0.00000000000E+00  0.21391004244E+03  0.21391381245E+03  0.12700000000E+01 0. -1.
          4   -1    0    0  501    0  0.00000000000E+00 -0.00000000000E+00 -0.18235062332E+02  0.18279234072E+02  0.12700000000E+01 0. -1.
         25    2    1    2    0    0  0.00000000000E+00  0.00000000000E+00  0.19567498011E+03  0.23219304653E+03  0.12499965205E+03 0.  0.
    9000005    1    3    3    0    0 -0.70883455416E+01  0.51395422867E+02  0.33129301301E+02  0.61565288425E+02  0.10000000000E+01 0.  0.
    9000005    1    3    3    0    0  0.70883455416E+01 -0.51395422867E+02  0.16254567881E+03  0.17062775810E+03  0.10000000000E+01 0.  0.
<mgrwt>
<rscale>  0 0.12499965E+03</rscale>
<asrwt>0</asrwt>
<pdfrwt beam="2">  1        4 0.28090822E-02 0.12499965E+03</pdfrwt>
<pdfrwt beam="1">  1       -4 0.32912924E-01 0.12499965E+03</pdfrwt>
<totfact> 0.84974646E+03</totfact>
</mgrwt>
</event>
<event>
 5    1  0.3199195E-002  0.1249815E+03  0.7818608E-02  0.1235098E+00
         -4   -1    0    0    0  501 -0.00000000000E+00  0.00000000000E+00  0.20992644579E+02  0.21031025330E+02  0.12700000000E+01 0.  1.
          4   -1    0    0  501    0  0.00000000000E+00 -0.00000000000E+00 -0.18581150218E+03  0.18581584228E+03  0.12700000000E+01 0.  1.
         25    2    1    2    0    0  0.00000000000E+00  0.00000000000E+00 -0.16481885760E+03  0.20684686761E+03  0.12498148191E+03 0.  0.
    9000005    1    3    3    0    0  0.36009700423E+02  0.29222516293E+02 -0.13106980866E+02  0.48202146534E+02  0.10000000000E+01 0.  0.
    9000005    1    3    3    0    0 -0.36009700423E+02 -0.29222516293E+02 -0.15171187674E+03  0.15864472108E+03  0.10000000000E+01 0.  0.
<mgrwt>
<rscale>  0 0.12498148E+03</rscale>
<asrwt>0</asrwt>
<pdfrwt beam="2">  1        4 0.28589670E-01 0.12498148E+03</pdfrwt>
<pdfrwt beam="1">  1       -4 0.32329240E-02 0.12498148E+03</pdfrwt>
<totfact> 0.89030296E+03</totfact>
</mgrwt>
</event>
<event>
 5    1  0.3199195E-002  0.1249982E+03  0.7818608E-02  0.1235072E+00
          4   -1    0    0  501    0  0.00000000000E+00  0.00000000000E+00  0.39575801394E+03  0.39576005167E+03  0.12700000000E+01 0.  1.
         -4   -1    0    0    0  501 -0.00000000000E+00 -0.00000000000E+00 -0.98270923226E+01  0.99088164539E+01  0.12700000000E+01 0.  1.
         25    2    1    2    0    0  0.00000000000E+00  0.00000000000E+00  0.38593092162E+03  0.40566886813E+03  0.12499821721E+03 0.  0.
    9000005    1    3    3    0    0 -0.17996127961E+02  0.52636537277E+02  0.28536944317E+03  0.29074247156E+03  0.10000000000E+01 0.  0.
    9000005    1    3    3    0    0  0.17996127961E+02 -0.52636537277E+02  0.10056147846E+03  0.11492639656E+03  0.10000000000E+01 0.  0.
<mgrwt>
<rscale>  0 0.12499822E+03</rscale>
<asrwt>0</asrwt>
<pdfrwt beam="1">  1        4 0.60892306E-01 0.12499822E+03</pdfrwt>
<pdfrwt beam="2">  1       -4 0.15183032E-02 0.12499822E+03</pdfrwt>
<totfact> 0.64007659E+03</totfact>
</mgrwt>
</event>
<event>
 5    1  0.3199195E-002  0.1249941E+03  0.7818608E-02  0.1235078E+00
         -4   -1    0    0    0  501 -0.00000000000E+00  0.00000000000E+00  0.28459564200E+01  0.31164672218E+01  0.12700000000E+01 0. -1.
          4   -1    0    0  501    0  0.00000000000E+00 -0.00000000000E+00 -0.13098953500E+04  0.13098959656E+04  0.12700000000E+01 0. -1.
         25    2    1    2    0    0  0.00000000000E+00  0.00000000000E+00 -0.13070493935E+04  0.13130124328E+04  0.12499412643E+03 0.  0.
    9000005    1    3    3    0    0  0.38558721043E+02  0.23217257229E+02 -0.19816943953E+03  0.20321895277E+03  0.10000000000E+01 0.  0.
    9000005    1    3    3    0    0 -0.38558721043E+02 -0.23217257229E+02 -0.11088799540E+04  0.11097934801E+04  0.10000000000E+01 0.  0.
<mgrwt>
<rscale>  0 0.12499413E+03</rscale>
<asrwt>0</asrwt>
<pdfrwt beam="2">  1        4 0.20154276E+00 0.12499413E+03</pdfrwt>
<pdfrwt beam="1">  1       -4 0.45869638E-03 0.12499413E+03</pdfrwt>
<totfact> 0.21926350E+03</totfact>
</mgrwt>
</event>
<event>
 5    1  0.3199195E-002  0.1249987E+03  0.7818608E-02  0.1235071E+00
         -4   -1    0    0    0  501 -0.00000000000E+00  0.00000000000E+00  0.36087675391E+03  0.36087898860E+03  0.12700000000E+01 0.  1.
          4   -1    0    0  501    0  0.00000000000E+00 -0.00000000000E+00 -0.10784572626E+02  0.10859093274E+02  0.12700000000E+01 0.  1.
         25    2    1    2    0    0  0.00000000000E+00  0.00000000000E+00  0.35009218129E+03  0.37173808188E+03  0.12499866447E+03 0.  0.
    9000005    1    3    3    0    0  0.28948478143E+02 -0.55358818703E+02  0.17029399079E+03  0.18139365064E+03  0.10000000000E+01 0.  0.
    9000005    1    3    3    0    0 -0.28948478143E+02  0.55358818703E+02  0.17979819050E+03  0.19034443123E+03  0.10000000000E+01 0.  0.
<mgrwt>
<rscale>  0 0.12499866E+03</rscale>
<asrwt>0</asrwt>
<pdfrwt beam="2">  1        4 0.16650693E-02 0.12499866E+03</pdfrwt>
<pdfrwt beam="1">  1       -4 0.55525403E-01 0.12499866E+03</pdfrwt>
<totfact> 0.67399482E+03</totfact>
</mgrwt>
</event>
<event>
 5    1  0.3199195E-002  0.1249983E+03  0.7818608E-02  0.1235072E+00
         -4   -1    0    0    0  501 -0.00000000000E+00  0.00000000000E+00  0.51217006655E+02  0.51232749982E+02  0.12700000000E+01 0.  1.
          4   -1    0    0  501    0  0.00000000000E+00 -0.00000000000E+00 -0.76233781398E+02  0.76244359307E+02  0.12700000000E+01 0.  1.
         25    2    1    2    0    0  0.00000000000E+00  0.00000000000E+00 -0.25016774743E+02  0.12747710929E+03  0.12499829749E+03 0.  0.
    9000005    1    3    3    0    0  0.11487149797E+02  0.58387918972E+02  0.69498099352E+01  0.59919976222E+02  0.10000000000E+01 0.  0.
    9000005    1    3    3    0    0 -0.11487149797E+02 -0.58387918972E+02 -0.31966584678E+02  0.67557133067E+02  0.10000000000E+01 0.  0.
<mgrwt>
<rscale>  0 0.12499830E+03</rscale>
<asrwt>0</asrwt>
<pdfrwt beam="2">  1        4 0.11730299E-01 0.12499830E+03</pdfrwt>
<pdfrwt beam="1">  1       -4 0.78815642E-02 0.12499830E+03</pdfrwt>
<totfact> 0.10399196E+04</totfact>
</mgrwt>
</event>
<event>
 5    1  0.3199195E-002  0.1249977E+03  0.7818608E-02  0.1235073E+00
         -4   -1    0    0    0  501 -0.00000000000E+00  0.00000000000E+00  0.13319926548E+02  0.13380334198E+02  0.12700000000E+01 0. -1.
          4   -1    0    0  501    0  0.00000000000E+00 -0.00000000000E+00 -0.29252757930E+03  0.29253033613E+03  0.12700000000E+01 0. -1.
         25    2    1    2    0    0  0.00000000000E+00  0.00000000000E+00 -0.27920765276E+03  0.30591067032E+03  0.12499769942E+03 0.  0.
    9000005    1    3    3    0    0 -0.17562587812E+02  0.46379419039E+02 -0.46553401604E+02  0.68027304826E+02  0.10000000000E+01 0.  0.
    9000005    1    3    3    0    0  0.17562587812E+02 -0.46379419039E+02 -0.23265425115E+03  0.23788336550E+03  0.10000000000E+01 0.  0.
<mgrwt>
<rscale>  0 0.12499770E+03</rscale>
<asrwt>0</asrwt>
<pdfrwt beam="2">  1        4 0.45009097E-01 0.12499770E+03</pdfrwt>
<pdfrwt beam="1">  1       -4 0.20540785E-02 0.12499770E+03</pdfrwt>
<totfact> 0.74867171E+03</totfact>
</mgrwt>
</event>
<event>
 5    1  0.3199195E-002  0.1250015E+03  0.7818608E-02  0.1235067E+00
          4   -1    0    0  501    0  0.00000000000E+00  0.00000000000E+00  0.13636355804E+02  0.13695367816E+02  0.12700000000E+01 0. -1.
         -4   -1    0    0    0  501 -0.00000000000E+00 -0.00000000000E+00 -0.28578648694E+03  0.28578930878E+03  0.12700000000E+01 0. -1.
         25    2    1    2    0    0  0.00000000000E+00  0.00000000000E+00 -0.27215013113E+03  0.29948467660E+03  0.12500151056E+03 0.  0.
    9000005    1    3    3    0    0 -0.32539817024E+02  0.48960920707E+02 -0.85289126832E+02  0.10359173039E+03  0.10000000000E+01 0.  0.
    9000005    1    3    3    0    0  0.32539817024E+02 -0.48960920707E+02 -0.18686100430E+03  0.19589294621E+03  0.10000000000E+01 0.  0.
<mgrwt>
<rscale>  0 0.12500151E+03</rscale>
<asrwt>0</asrwt>
<pdfrwt beam="1">  1        4 0.21026576E-02 0.12500151E+03</pdfrwt>
<pdfrwt beam="2">  1       -4 0.43971904E-01 0.12500151E+03</pdfrwt>
<totfact> 0.75660990E+03</totfact>
</mgrwt>
</event>
<event>
 5    1  0.3199195E-002  0.1249980E+03  0.7818608E-02  0.1235072E+00
          4   -1    0    0  501    0  0.00000000000E+00  0.00000000000E+00  0.21567860895E+02  0.21605219822E+02  0.12700000000E+01 0. -1.
         -4   -1    0    0    0  501 -0.00000000000E+00 -0.00000000000E+00 -0.18091240339E+03  0.18091686102E+03  0.12700000000E+01 0. -1.
         25    2    1    2    0    0  0.00000000000E+00  0.00000000000E+00 -0.15934454249E+03  0.20252208084E+03  0.12499804000E+03 0.  0.
    9000005    1    3    3    0    0 -0.39980190921E+02 -0.60451804967E+01 -0.24756769387E+01  0.40522695488E+02  0.10000000000E+01 0.  0.
    9000005    1    3    3    0    0  0.39980190921E+02  0.60451804967E+01 -0.15686886555E+03  0.16199938535E+03  0.10000000000E+01 0.  0.
<mgrwt>
<rscale>  0 0.12499804E+03</rscale>
<asrwt>0</asrwt>
<pdfrwt beam="1">  1        4 0.33213492E-02 0.12499804E+03</pdfrwt>
<pdfrwt beam="2">  1       -4 0.27835893E-01 0.12499804E+03</pdfrwt>
<totfact> 0.89715808E+03</totfact>
</mgrwt>
</event>
<event>
 5    1  0.3199195E-002  0.1250019E+03  0.7818608E-02  0.1235066E+00
         -4   -1    0    0    0  501 -0.00000000000E+00  0.00000000000E+00  0.91714710001E+02  0.91723502607E+02  0.12700000000E+01 0. -1.
          4   -1    0    0  501    0  0.00000000000E+00 -0.00000000000E+00 -0.42572302556E+02  0.42591241411E+02  0.12700000000E+01 0. -1.
         25    2    1    2    0    0  0.00000000000E+00  0.00000000000E+00  0.49142407444E+02  0.13431474402E+03  0.12500189699E+03 0.  0.
    9000005    1    3    3    0    0 -0.43071725309E+01 -0.34945325288E+02  0.80047558940E+02  0.87454783671E+02  0.10000000000E+01 0.  0.
    9000005    1    3    3    0    0  0.43071725309E+01  0.34945325288E+02 -0.30905151496E+02  0.46859960347E+02  0.10000000000E+01 0.  0.
<mgrwt>
<rscale>  0 0.12500190E+03</rscale>
<asrwt>0</asrwt>
<pdfrwt beam="2">  1        4 0.65517183E-02 0.12500190E+03</pdfrwt>
<pdfrwt beam="1">  1       -4 0.14112088E-01 0.12500190E+03</pdfrwt>
<totfact> 0.10252096E+04</totfact>
</mgrwt>
</event>
<event>
 5    1  0.3199195E-002  0.1249997E+03  0.7818608E-02  0.1235070E+00
         -4   -1    0    0    0  501 -0.00000000000E+00  0.00000000000E+00  0.86921692731E+03  0.86921785510E+03  0.12700000000E+01 0.  1.
          4   -1    0    0  501    0  0.00000000000E+00 -0.00000000000E+00 -0.44032945336E+01  0.45827832973E+01  0.12700000000E+01 0.  1.
         25    2    1    2    0    0  0.00000000000E+00  0.00000000000E+00  0.86481363278E+03  0.87380063840E+03  0.12499974490E+03 0.  0.
    9000005    1    3    3    0    0  0.59170549895E+02  0.17358844992E+02  0.50326587465E+03  0.50703059480E+03  0.10000000000E+01 0.  0.
    9000005    1    3    3    0    0 -0.59170549895E+02 -0.17358844992E+02  0.36154775813E+03  0.36677004360E+03  0.10000000000E+01 0.  0.
<mgrwt>
<rscale>  0 0.12499974E+03</rscale>
<asrwt>0</asrwt>
<pdfrwt beam="2">  1        4 0.69130919E-03 0.12499974E+03</pdfrwt>
<pdfrwt beam="1">  1       -4 0.13373935E+00 0.12499974E+03</pdfrwt>
<totfact> 0.35172929E+03</totfact>
</mgrwt>
</event>
<event>
 5    1  0.3199195E-002  0.1250016E+03  0.7818608E-02  0.1235067E+00
          4   -1    0    0  501    0  0.00000000000E+00  0.00000000000E+00  0.99320096815E+02  0.99328216189E+02  0.12700000000E+01 0. -1.
         -4   -1    0    0    0  501 -0.00000000000E+00 -0.00000000000E+00 -0.39310931854E+02  0.39331441154E+02  0.12700000000E+01 0. -1.
         25    2    1    2    0    0  0.00000000000E+00  0.00000000000E+00  0.60009164961E+02  0.13865965734E+03  0.12500160277E+03 0.  0.
    9000005    1    3    3    0    0  0.47129449646E+02  0.31952506008E+02  0.14380437926E+01  0.56966794136E+02  0.10000000000E+01 0.  0.
    9000005    1    3    3    0    0 -0.47129449646E+02 -0.31952506008E+02  0.58571121168E+02  0.81692863208E+02  0.10000000000E+01 0.  0.
<mgrwt>
<rscale>  0 0.12500160E+03</rscale>
<asrwt>0</asrwt>
<pdfrwt beam="1">  1        4 0.15282217E-01 0.12500160E+03</pdfrwt>
<pdfrwt beam="2">  1       -4 0.60500379E-02 0.12500160E+03</pdfrwt>
<totfact> 0.10161074E+04</totfact>
</mgrwt>
</event>
<event>
 5    1  0.3199195E-002  0.1250002E+03  0.7818608E-02  0.1235069E+00
         -4   -1    0    0    0  501 -0.00000000000E+00  0.00000000000E+00  0.88909432242E+03  0.88909522946E+03  0.12700000000E+01 0.  1.
          4   -1    0    0  501    0  0.00000000000E+00 -0.00000000000E+00 -0.43008212758E+01  0.44844134116E+01  0.12700000000E+01 0.  1.
         25    2    1    2    0    0  0.00000000000E+00  0.00000000000E+00  0.88479350114E+03  0.89357964288E+03  0.12500015399E+03 0.  0.
    9000005    1    3    3    0    0  0.15536549989E+02 -0.26765971166E+02  0.83049933332E+03  0.83107637690E+03  0.10000000000E+01 0.  0.
    9000005    1    3    3    0    0 -0.15536549989E+02  0.26765971166E+02  0.54294167825E+02  0.62503265977E+02  0.10000000000E+01 0.  0.
<mgrwt>
<rscale>  0 0.12500015E+03</rscale>
<asrwt>0</asrwt>
<pdfrwt beam="2">  1        4 0.67585708E-03 0.12500015E+03</pdfrwt>
<pdfrwt beam="1">  1       -4 0.13679793E+00 0.12500015E+03</pdfrwt>
<totfact> 0.34406839E+03</totfact>
</mgrwt>
</event>
<event>
 5    1  0.3199195E-002  0.1250008E+03  0.7818608E-02  0.1235068E+00
          4   -1    0    0  501    0  0.00000000000E+00  0.00000000000E+00  0.22842981089E+03  0.22843334126E+03  0.12700000000E+01 0. -1.
         -4   -1    0    0    0  501 -0.00000000000E+00 -0.00000000000E+00 -0.17073409281E+02  0.17120578392E+02  0.12700000000E+01 0. -1.
         25    2    1    2    0    0  0.00000000000E+00  0.00000000000E+00  0.21135640160E+03  0.24555391966E+03  0.12500079584E+03 0.  0.
    9000005    1    3    3    0    0  0.57224650486E+02 -0.24061104746E+02  0.11980322681E+03  0.13493483812E+03  0.10000000000E+01 0.  0.
    9000005    1    3    3    0    0 -0.57224650486E+02  0.24061104746E+02  0.91553174794E+02  0.11061908153E+03  0.10000000000E+01 0.  0.
<mgrwt>
<rscale>  0 0.12500080E+03</rscale>
<asrwt>0</asrwt>
<pdfrwt beam="1">  1        4 0.35146948E-01 0.12500080E+03</pdfrwt>
<pdfrwt beam="2">  1       -4 0.26305783E-02 0.12500080E+03</pdfrwt>
<totfact> 0.82975628E+03</totfact>
</mgrwt>
</event>
<event>
 5    1  0.3199195E-002  0.1249995E+03  0.7818608E-02  0.1235070E+00
         -4   -1    0    0    0  501 -0.00000000000E+00  0.00000000000E+00  0.53941714156E+02  0.53956662481E+02  0.12700000000E+01 0. -1.
          4   -1    0    0  501    0  0.00000000000E+00 -0.00000000000E+00 -0.72384945474E+02  0.72396085745E+02  0.12700000000E+01 0. -1.
         25    2    1    2    0    0  0.00000000000E+00  0.00000000000E+00 -0.18443231318E+02  0.12635274823E+03  0.12499945681E+03 0.  0.
    9000005    1    3    3    0    0 -0.37273857199E+02  0.34332186141E+02 -0.46184934044E+02  0.68571769471E+02  0.10000000000E+01 0.  0.
    9000005    1    3    3    0    0  0.37273857199E+02 -0.34332186141E+02  0.27741702727E+02  0.57780978755E+02  0.10000000000E+01 0.  0.
<mgrwt>
<rscale>  0 0.12499946E+03</rscale>
<asrwt>0</asrwt>
<pdfrwt beam="2">  1        4 0.11138152E-01 0.12499946E+03</pdfrwt>
<pdfrwt beam="1">  1       -4 0.83007321E-02 0.12499946E+03</pdfrwt>
<totfact> 0.10423369E+04</totfact>
</mgrwt>
</event>
<event>
 5    1  0.3199195E-002  0.1250011E+03  0.7818608E-02  0.1235068E+00
          4   -1    0    0  501    0  0.00000000000E+00  0.00000000000E+00  0.20047740287E+03  0.20048142548E+03  0.12700000000E+01 0.  1.
         -4   -1    0    0    0  501 -0.00000000000E+00 -0.00000000000E+00 -0.19460150625E+02  0.19501547691E+02  0.12700000000E+01 0.  1.
         25    2    1    2    0    0  0.00000000000E+00  0.00000000000E+00  0.18101725224E+03  0.21998297317E+03  0.12500105149E+03 0.  0.
    9000005    1    3    3    0    0 -0.45457815525E+01 -0.57544224271E+02  0.48370849673E+02  0.75317600698E+02  0.10000000000E+01 0.  0.
    9000005    1    3    3    0    0  0.45457815525E+01  0.57544224271E+02  0.13264640257E+03  0.14466537247E+03  0.10000000000E+01 0.  0.
<mgrwt>
<rscale>  0 0.12500105E+03</rscale>
<asrwt>0</asrwt>
<pdfrwt beam="1">  1        4 0.30846170E-01 0.12500105E+03</pdfrwt>
<pdfrwt beam="2">  1       -4 0.29973632E-02 0.12500105E+03</pdfrwt>
<totfact> 0.86869004E+03</totfact>
</mgrwt>
</event>
<event>
 5    1  0.3199195E-002  0.1250038E+03  0.7818608E-02  0.1235063E+00
         -4   -1    0    0    0  501 -0.00000000000E+00  0.00000000000E+00  0.20331598873E+03  0.20331995518E+03  0.12700000000E+01 0. -1.
          4   -1    0    0  501    0  0.00000000000E+00 -0.00000000000E+00 -0.19188735756E+02  0.19230717093E+02  0.12700000000E+01 0. -1.
         25    2    1    2    0    0  0.00000000000E+00  0.00000000000E+00  0.18412725298E+03  0.22255067227E+03  0.12500382570E+03 0.  0.
    9000005    1    3    3    0    0  0.55324046113E+02  0.21936574346E+02  0.12600842132E+03  0.13935955516E+03  0.10000000000E+01 0.  0.
    9000005    1    3    3    0    0 -0.55324046113E+02 -0.21936574346E+02  0.58118831657E+02  0.83191117107E+02  0.10000000000E+01 0.  0.
<mgrwt>
<rscale>  0 0.12500383E+03</rscale>
<asrwt>0</asrwt>
<pdfrwt beam="2">  1        4 0.29556478E-02 0.12500383E+03</pdfrwt>
<pdfrwt beam="1">  1       -4 0.31282916E-01 0.12500383E+03</pdfrwt>
<totfact> 0.86458955E+03</totfact>
</mgrwt>
</event>
<event>
 5    1  0.3199195E-002  0.1250006E+03  0.7818608E-02  0.1235068E+00
          4   -1    0    0  501    0  0.00000000000E+00  0.00000000000E+00  0.63799514707E+01  0.65051272677E+01  0.12700000000E+01 0. -1.
         -4   -1    0    0    0  501 -0.00000000000E+00 -0.00000000000E+00 -0.60620187685E+03  0.60620320718E+03  0.12700000000E+01 0. -1.
         25    2    1    2    0    0  0.00000000000E+00  0.00000000000E+00 -0.59982192538E+03  0.61270833445E+03  0.12500064375E+03 0.  0.
    9000005    1    3    3    0    0 -0.26412308711E+02  0.87481787760E+01 -0.25631402862E+02  0.37843222590E+02  0.10000000000E+01 0.  0.
    9000005    1    3    3    0    0  0.26412308711E+02 -0.87481787760E+01 -0.57419052252E+03  0.57486511186E+03  0.10000000000E+01 0.  0.
<mgrwt>
<rscale>  0 0.12500064E+03</rscale>
<asrwt>0</asrwt>
<pdfrwt beam="1">  1        4 0.99126272E-03 0.12500064E+03</pdfrwt>
<pdfrwt beam="2">  1       -4 0.93271513E-01 0.12500064E+03</pdfrwt>
<totfact> 0.48074464E+03</totfact>
</mgrwt>
</event>
<event>
 5    1  0.3199195E-002  0.1250023E+03  0.7818608E-02  0.1235066E+00
         -4   -1    0    0    0  501 -0.00000000000E+00  0.00000000000E+00  0.75137472741E+02  0.75148204967E+02  0.12700000000E+01 0.  1.
          4   -1    0    0  501    0  0.00000000000E+00 -0.00000000000E+00 -0.51967723826E+02  0.51983239795E+02  0.12700000000E+01 0.  1.
         25    2    1    2    0    0  0.00000000000E+00  0.00000000000E+00  0.23169748915E+02  0.12713144476E+03  0.12500226791E+03 0.  0.
    9000005    1    3    3    0    0  0.27203588499E+02  0.55992548802E+02  0.59966503017E+01  0.62547266634E+02  0.10000000000E+01 0.  0.
    9000005    1    3    3    0    0 -0.27203588499E+02 -0.55992548802E+02  0.17173098613E+02  0.64584178129E+02  0.10000000000E+01 0.  0.
<mgrwt>
<rscale>  0 0.12500227E+03</rscale>
<asrwt>0</asrwt>
<pdfrwt beam="2">  1        4 0.79970535E-02 0.12500227E+03</pdfrwt>
<pdfrwt beam="1">  1       -4 0.11561630E-01 0.12500227E+03</pdfrwt>
<totfact> 0.10405758E+04</totfact>
</mgrwt>
</event>
<event>
 5    1  0.3199195E-002  0.1250012E+03  0.7818608E-02  0.1235067E+00
         -4   -1    0    0    0  501 -0.00000000000E+00  0.00000000000E+00  0.12692017088E+03  0.12692652471E+03  0.12700000000E+01 0.  1.
          4   -1    0    0  501    0  0.00000000000E+00 -0.00000000000E+00 -0.30757564960E+02  0.30783773359E+02  0.12700000000E+01 0.  1.
         25    2    1    2    0    0  0.00000000000E+00  0.00000000000E+00  0.96162605916E+02  0.15771029807E+03  0.12500116536E+03 0.  0.
    9000005    1    3    3    0    0 -0.17630180647E+02 -0.41785158658E+02 -0.61631992012E+01  0.45779993207E+02  0.10000000000E+01 0.  0.
    9000005    1    3    3    0    0  0.17630180647E+02  0.41785158658E+02  0.10232580512E+03  0.11193030486E+03  0.10000000000E+01 0.  0.
<mgrwt>
<rscale>  0 0.12500117E+03</rscale>
<asrwt>0</asrwt>
<pdfrwt beam="2">  1        4 0.47344379E-02 0.12500117E+03</pdfrwt>
<pdfrwt beam="1">  1       -4 0.19528685E-01 0.12500117E+03</pdfrwt>
<totfact> 0.97783484E+03</totfact>
</mgrwt>
</event>
<event>
 5    1  0.3199195E-002  0.1250072E+03  0.7818608E-02  0.1235058E+00
         -4   -1    0    0    0  501 -0.00000000000E+00  0.00000000000E+00  0.21670659388E+03  0.21671031524E+03  0.12700000000E+01 0.  1.
          4   -1    0    0  501    0  0.00000000000E+00 -0.00000000000E+00 -0.18001357150E+02  0.18046100943E+02  0.12700000000E+01 0.  1.
         25    2    1    2    0    0  0.00000000000E+00  0.00000000000E+00  0.19870523673E+03  0.23475641618E+03  0.12500721513E+03 0.  0.
    9000005    1    3    3    0    0  0.39722875439E+02  0.16796957036E+02  0.18428997302E+03  0.18927186467E+03  0.10000000000E+01 0.  0.
    9000005    1    3    3    0    0 -0.39722875439E+02 -0.16796957036E+02  0.14415263711E+02  0.45484551517E+02  0.10000000000E+01 0.  0.
<mgrwt>
<rscale>  0 0.12500722E+03</rscale>
<asrwt>0</asrwt>
<pdfrwt beam="2">  1        4 0.27731676E-02 0.12500722E+03</pdfrwt>
<pdfrwt beam="1">  1       -4 0.33343204E-01 0.12500722E+03</pdfrwt>
<totfact> 0.84570945E+03</totfact>
</mgrwt>
</event>
<event>
 5    1  0.3199195E-002  0.1249955E+03  0.7818608E-02  0.1235076E+00
         -4   -1    0    0    0  501 -0.00000000000E+00  0.00000000000E+00  0.87438441181E+02  0.87447663755E+02  0.12700000000E+01 0.  1.
          4   -1    0    0  501    0  0.00000000000E+00 -0.00000000000E+00 -0.44650466193E+02  0.44668523943E+02  0.12700000000E+01 0.  1.
         25    2    1    2    0    0  0.00000000000E+00  0.00000000000E+00  0.42787974988E+02  0.13211618770E+03  0.12499550491E+03 0.  0.
    9000005    1    3    3    0    0  0.11604622133E+02 -0.61007178658E+02  0.14038681329E+02  0.63675958384E+02  0.10000000000E+01 0.  0.
    9000005    1    3    3    0    0 -0.11604622133E+02  0.61007178658E+02  0.28749293659E+02  0.68440229314E+02  0.10000000000E+01 0.  0.
<mgrwt>
<rscale>  0 0.12499550E+03</rscale>
<asrwt>0</asrwt>
<pdfrwt beam="2">  1        4 0.68714011E-02 0.12499550E+03</pdfrwt>
<pdfrwt beam="1">  1       -4 0.13454166E-01 0.12499550E+03</pdfrwt>
<totfact> 0.10300264E+04</totfact>
</mgrwt>
</event>
<event>
 5    1  0.3199195E-002  0.1249970E+03  0.7818608E-02  0.1235074E+00
          4   -1    0    0  501    0  0.00000000000E+00  0.00000000000E+00  0.11396627045E+03  0.11397334645E+03  0.12700000000E+01 0. -1.
         -4   -1    0    0    0  501 -0.00000000000E+00 -0.00000000000E+00 -0.34253956075E+02  0.34277491256E+02  0.12700000000E+01 0. -1.
         25    2    1    2    0    0  0.00000000000E+00  0.00000000000E+00  0.79712314376E+02  0.14825083770E+03  0.12499703123E+03 0.  0.
    9000005    1    3    3    0    0 -0.34142086590E+02  0.11968469302E+02 -0.20575061813E+02  0.41632433303E+02  0.10000000000E+01 0.  0.
    9000005    1    3    3    0    0  0.34142086590E+02 -0.11968469302E+02  0.10028737619E+03  0.10661840440E+03  0.10000000000E+01 0.  0.
<mgrwt>
<rscale>  0 0.12499703E+03</rscale>
<asrwt>0</asrwt>
<pdfrwt beam="1">  1        4 0.17535627E-01 0.12499703E+03</pdfrwt>
<pdfrwt beam="2">  1       -4 0.52721941E-02 0.12499703E+03</pdfrwt>
<totfact> 0.99660176E+03</totfact>
</mgrwt>
</event>
<event>
 5    1  0.3199195E-002  0.1250019E+03  0.7818608E-02  0.1235066E+00
          4   -1    0    0  501    0  0.00000000000E+00  0.00000000000E+00  0.28043507009E+02  0.28072249382E+02  0.12700000000E+01 0.  1.
         -4   -1    0    0    0  501 -0.00000000000E+00 -0.00000000000E+00 -0.13919380158E+03  0.13919959518E+03  0.12700000000E+01 0.  1.
         25    2    1    2    0    0  0.00000000000E+00  0.00000000000E+00 -0.11115029457E+03  0.16727184456E+03  0.12500192798E+03 0.  0.
    9000005    1    3    3    0    0 -0.28225514514E+02  0.49064582346E+02 -0.20136602096E+02  0.60087400129E+02  0.10000000000E+01 0.  0.
    9000005    1    3    3    0    0  0.28225514514E+02 -0.49064582346E+02 -0.91013692474E+02  0.10718444443E+03  0.10000000000E+01 0.  0.
<mgrwt>
<rscale>  0 0.12500193E+03</rscale>
<asrwt>0</asrwt>
<pdfrwt beam="1">  1        4 0.43170424E-02 0.12500193E+03</pdfrwt>
<pdfrwt beam="2">  1       -4 0.21417087E-01 0.12500193E+03</pdfrwt>
<totfact> 0.95954708E+03</totfact>
</mgrwt>
</event>
<event>
 5    1  0.3199195E-002  0.1249974E+03  0.7818608E-02  0.1235073E+00
          4   -1    0    0  501    0  0.00000000000E+00  0.00000000000E+00  0.28380917950E+02  0.28409318959E+02  0.12700000000E+01 0. -1.
         -4   -1    0    0    0  501 -0.00000000000E+00 -0.00000000000E+00 -0.13753058808E+03  0.13753645174E+03  0.12700000000E+01 0. -1.
         25    2    1    2    0    0  0.00000000000E+00  0.00000000000E+00 -0.10914967013E+03  0.16594577070E+03  0.12499739327E+03 0.  0.
    9000005    1    3    3    0    0  0.75706920191E+00  0.21147849782E+02 -0.13263557406E+03  0.13431679050E+03  0.10000000000E+01 0.  0.
    9000005    1    3    3    0    0 -0.75706920191E+00 -0.21147849782E+02  0.23485903938E+02  0.31628980192E+02  0.10000000000E+01 0.  0.
<mgrwt>
<rscale>  0 0.12499739E+03</rscale>
<asrwt>0</asrwt>
<pdfrwt beam="1">  1        4 0.43689309E-02 0.12499739E+03</pdfrwt>
<pdfrwt beam="2">  1       -4 0.21161187E-01 0.12499739E+03</pdfrwt>
<totfact> 0.96214211E+03</totfact>
</mgrwt>
</event>
<event>
 5    1  0.3199195E-002  0.1249971E+03  0.7818608E-02  0.1235074E+00
          4   -1    0    0  501    0  0.00000000000E+00  0.00000000000E+00  0.11515917547E+04  0.11515924550E+04  0.12700000000E+01 0.  1.
         -4   -1    0    0    0  501 -0.00000000000E+00 -0.00000000000E+00 -0.32722789466E+01  0.35100868229E+01  0.12700000000E+01 0.  1.
         25    2    1    2    0    0  0.00000000000E+00  0.00000000000E+00  0.11483194757E+04  0.11551025418E+04  0.12499705481E+03 0.  0.
    9000005    1    3    3    0    0 -0.56829371384E+01 -0.42238729053E+02  0.99649235716E+03  0.99740384192E+03  0.10000000000E+01 0.  0.
    9000005    1    3    3    0    0  0.56829371384E+01  0.42238729053E+02  0.15182711858E+03  0.15769869988E+03  0.10000000000E+01 0.  0.
<mgrwt>
<rscale>  0 0.12499705E+03</rscale>
<asrwt>0</asrwt>
<pdfrwt beam="1">  1        4 0.17718639E+00 0.12499705E+03</pdfrwt>
<pdfrwt beam="2">  1       -4 0.52177408E-03 0.12499705E+03</pdfrwt>
<totfact> 0.25920730E+03</totfact>
</mgrwt>
</event>
<event>
 5    1  0.3199195E-002  0.1249994E+03  0.7818608E-02  0.1235070E+00
         -4   -1    0    0    0  501 -0.00000000000E+00  0.00000000000E+00  0.56595999565E+02  0.56610247012E+02  0.12700000000E+01 0. -1.
          4   -1    0    0  501    0  0.00000000000E+00 -0.00000000000E+00 -0.68990499327E+02  0.69002187628E+02  0.12700000000E+01 0. -1.
         25    2    1    2    0    0  0.00000000000E+00  0.00000000000E+00 -0.12394499762E+02  0.12561243464E+03  0.12499944045E+03 0.  0.
    9000005    1    3    3    0    0  0.17931704953E+02  0.57132819114E+02 -0.24159749358E+02  0.64578623023E+02  0.10000000000E+01 0.  0.
    9000005    1    3    3    0    0 -0.17931704953E+02 -0.57132819114E+02  0.11765249596E+02  0.61033811617E+02  0.10000000000E+01 0.  0.
<mgrwt>
<rscale>  0 0.12499944E+03</rscale>
<asrwt>0</asrwt>
<pdfrwt beam="2">  1        4 0.10615918E-01 0.12499944E+03</pdfrwt>
<pdfrwt beam="1">  1       -4 0.87090719E-02 0.12499944E+03</pdfrwt>
<totfact> 0.10439605E+04</totfact>
</mgrwt>
</event>
<event>
 5    1  0.3199195E-002  0.1249956E+03  0.7818608E-02  0.1235076E+00
         -4   -1    0    0    0  501 -0.00000000000E+00  0.00000000000E+00  0.16368963248E+02  0.16418156347E+02  0.12700000000E+01 0. -1.
          4   -1    0    0  501    0  0.00000000000E+00 -0.00000000000E+00 -0.23821201355E+03  0.23821539896E+03  0.12700000000E+01 0. -1.
         25    2    1    2    0    0  0.00000000000E+00  0.00000000000E+00 -0.22184305030E+03  0.25463355530E+03  0.12499563400E+03 0.  0.
    9000005    1    3    3    0    0  0.24538129585E+02 -0.24077850715E+02 -0.21722653598E+03  0.21993233194E+03  0.10000000000E+01 0.  0.
    9000005    1    3    3    0    0 -0.24538129585E+02  0.24077850715E+02 -0.46165143254E+01  0.34701223366E+02  0.10000000000E+01 0.  0.
<mgrwt>
<rscale>  0 0.12499563E+03</rscale>
<asrwt>0</asrwt>
<pdfrwt beam="2">  1        4 0.36652044E-01 0.12499563E+03</pdfrwt>
<pdfrwt beam="1">  1       -4 0.25223467E-02 0.12499563E+03</pdfrwt>
<totfact> 0.81673055E+03</totfact>
</mgrwt>
</event>
<event>
 5    1  0.3199195E-002  0.1249967E+03  0.7818608E-02  0.1235074E+00
         -4   -1    0    0    0  501 -0.00000000000E+00  0.00000000000E+00  0.20856075055E+02  0.20894706666E+02  0.12700000000E+01 0. -1.
          4   -1    0    0  501    0  0.00000000000E+00 -0.00000000000E+00 -0.18707152010E+03  0.18707583097E+03  0.12700000000E+01 0. -1.
         25    2    1    2    0    0  0.00000000000E+00  0.00000000000E+00 -0.16621544504E+03  0.20797053763E+03  0.12499668137E+03 0.  0.
    9000005    1    3    3    0    0 -0.11673922938E+01  0.20619535744E+02  0.15021925846E+02  0.25557509957E+02  0.10000000000E+01 0.  0.
    9000005    1    3    3    0    0  0.11673922938E+01 -0.20619535744E+02 -0.18123737089E+03  0.18241302768E+03  0.10000000000E+01 0.  0.
<mgrwt>
<rscale>  0 0.12499668E+03</rscale>
<asrwt>0</asrwt>
<pdfrwt beam="2">  1        4 0.28783536E-01 0.12499668E+03</pdfrwt>
<pdfrwt beam="1">  1       -4 0.32119303E-02 0.12499668E+03</pdfrwt>
<totfact> 0.88814986E+03</totfact>
</mgrwt>
</event>
<event>
 5    1  0.3199195E-002  0.1249998E+03  0.7818608E-02  0.1235070E+00
          4   -1    0    0  501    0  0.00000000000E+00  0.00000000000E+00  0.69635358728E+02  0.69646938807E+02  0.12700000000E+01 0. -1.
         -4   -1    0    0    0  501 -0.00000000000E+00 -0.00000000000E+00 -0.56072154806E+02  0.56086535324E+02  0.12700000000E+01 0. -1.
         25    2    1    2    0    0  0.00000000000E+00  0.00000000000E+00  0.13563203921E+02  0.12573347413E+03  0.12499978407E+03 0.  0.
    9000005    1    3    3    0    0 -0.35666668229E+02  0.32891662648E+02 -0.32835662382E+02  0.58593117500E+02  0.10000000000E+01 0.  0.
    9000005    1    3    3    0    0  0.35666668229E+02 -0.32891662648E+02  0.46398866303E+02  0.67140356631E+02  0.10000000000E+01 0.  0.
<mgrwt>
<rscale>  0 0.12499978E+03</rscale>
<asrwt>0</asrwt>
<pdfrwt beam="1">  1        4 0.10715129E-01 0.12499978E+03</pdfrwt>
<pdfrwt beam="2">  1       -4 0.86284823E-02 0.12499978E+03</pdfrwt>
<totfact> 0.10436859E+04</totfact>
</mgrwt>
</event>
<event>
 5    1  0.3199195E-002  0.1250024E+03  0.7818608E-02  0.1235066E+00
          4   -1    0    0  501    0  0.00000000000E+00  0.00000000000E+00  0.24344660306E+03  0.24344991567E+03  0.12700000000E+01 0. -1.
         -4   -1    0    0    0  501 -0.00000000000E+00 -0.00000000000E+00 -0.16017673237E+02  0.16067941869E+02  0.12700000000E+01 0. -1.
         25    2    1    2    0    0  0.00000000000E+00  0.00000000000E+00  0.22742892982E+03  0.25951785754E+03  0.12500240103E+03 0.  0.
    9000005    1    3    3    0    0 -0.35006435367E+02 -0.41786725248E+02  0.50271966387E+02  0.74160983869E+02  0.10000000000E+01 0.  0.
    9000005    1    3    3    0    0  0.35006435367E+02  0.41786725248E+02  0.17715696343E+03  0.18535687367E+03  0.10000000000E+01 0.  0.
<mgrwt>
<rscale>  0 0.12500240E+03</rscale>
<asrwt>0</asrwt>
<pdfrwt beam="1">  1        4 0.37457445E-01 0.12500240E+03</pdfrwt>
<pdfrwt beam="2">  1       -4 0.24683791E-02 0.12500240E+03</pdfrwt>
<totfact> 0.80969441E+03</totfact>
</mgrwt>
</event>
<event>
 5    1  0.3199195E-002  0.1250013E+03  0.7818608E-02  0.1235067E+00
         -4   -1    0    0    0  501 -0.00000000000E+00  0.00000000000E+00  0.92539614901E+02  0.92548329137E+02  0.12700000000E+01 0. -1.
          4   -1    0    0  501    0  0.00000000000E+00 -0.00000000000E+00 -0.42192263417E+02  0.42211372783E+02  0.12700000000E+01 0. -1.
         25    2    1    2    0    0  0.00000000000E+00  0.00000000000E+00  0.50347351484E+02  0.13475970192E+03  0.12500128583E+03 0.  0.
    9000005    1    3    3    0    0  0.39204851056E+02 -0.44935312523E+02  0.50300464972E+01  0.59854022635E+02  0.10000000000E+01 0.  0.
    9000005    1    3    3    0    0 -0.39204851056E+02  0.44935312523E+02  0.45317304987E+02  0.74905679285E+02  0.10000000000E+01 0.  0.
<mgrwt>
<rscale>  0 0.12500129E+03</rscale>
<asrwt>0</asrwt>
<pdfrwt beam="2">  1        4 0.64932579E-02 0.12500129E+03</pdfrwt>
<pdfrwt beam="1">  1       -4 0.14239004E-01 0.12500129E+03</pdfrwt>
<totfact> 0.10242841E+04</totfact>
</mgrwt>
</event>
<event>
 5    1  0.3199195E-002  0.1249982E+03  0.7818608E-02  0.1235072E+00
         -4   -1    0    0    0  501 -0.00000000000E+00  0.00000000000E+00  0.54330776054E+03  0.54330924487E+03  0.12700000000E+01 0.  1.
          4   -1    0    0  501    0  0.00000000000E+00 -0.00000000000E+00 -0.71319580258E+01  0.72441511085E+01  0.12700000000E+01 0.  1.
         25    2    1    2    0    0  0.00000000000E+00  0.00000000000E+00  0.53617580251E+03  0.55055339598E+03  0.12499820248E+03 0.  0.
    9000005    1    3    3    0    0 -0.57920750482E+02  0.48720683398E+01  0.36915990041E+03  0.37370922180E+03  0.10000000000E+01 0.  0.
    9000005    1    3    3    0    0  0.57920750482E+02 -0.48720683398E+01  0.16701590210E+03  0.17684417418E+03  0.10000000000E+01 0.  0.
<mgrwt>
<rscale>  0 0.12499820E+03</rscale>
<asrwt>0</asrwt>
<pdfrwt beam="2">  1        4 0.11059687E-02 0.12499820E+03</pdfrwt>
<pdfrwt beam="1">  1       -4 0.83594555E-01 0.12499820E+03</pdfrwt>
<totfact> 0.52147436E+03</totfact>
</mgrwt>
</event>
<event>
 5    1  0.3199195E-002  0.1249956E+03  0.7818608E-02  0.1235076E+00
         -4   -1    0    0    0  501 -0.00000000000E+00  0.00000000000E+00  0.20230295562E+02  0.20270119845E+02  0.12700000000E+01 0. -1.
          4   -1    0    0  501    0  0.00000000000E+00 -0.00000000000E+00 -0.19284373696E+03  0.19284791880E+03  0.12700000000E+01 0. -1.
         25    2    1    2    0    0  0.00000000000E+00  0.00000000000E+00 -0.17261344140E+03  0.21311803865E+03  0.12499559290E+03 0.  0.
    9000005    1    3    3    0    0  0.38985761302E+02  0.48226397298E+02 -0.73177126000E+02  0.95924797369E+02  0.10000000000E+01 0.  0.
    9000005    1    3    3    0    0 -0.38985761302E+02 -0.48226397298E+02 -0.99436315402E+02  0.11719324128E+03  0.10000000000E+01 0.  0.
<mgrwt>
<rscale>  0 0.12499559E+03</rscale>
<asrwt>0</asrwt>
<pdfrwt beam="2">  1        4 0.29671651E-01 0.12499559E+03</pdfrwt>
<pdfrwt beam="1">  1       -4 0.31157384E-02 0.12499559E+03</pdfrwt>
<totfact> 0.87977849E+03</totfact>
</mgrwt>
</event>
<event>
 5    1  0.3199195E-002  0.1250008E+03  0.7818608E-02  0.1235068E+00
          4   -1    0    0  501    0  0.00000000000E+00  0.00000000000E+00  0.32773264120E+03  0.32773510189E+03  0.12700000000E+01 0. -1.
         -4   -1    0    0    0  501 -0.00000000000E+00 -0.00000000000E+00 -0.11882831338E+02  0.11950505454E+02  0.12700000000E+01 0. -1.
         25    2    1    2    0    0  0.00000000000E+00  0.00000000000E+00  0.31584980986E+03  0.33968560734E+03  0.12500083777E+03 0.  0.
    9000005    1    3    3    0    0 -0.31474899550E+02 -0.49304391012E+02  0.98158546667E+02  0.11427026104E+03  0.10000000000E+01 0.  0.
    9000005    1    3    3    0    0  0.31474899550E+02  0.49304391012E+02  0.21769126320E+03  0.22541534630E+03  0.10000000000E+01 0.  0.
<mgrwt>
<rscale>  0 0.12500084E+03</rscale>
<asrwt>0</asrwt>
<pdfrwt beam="1">  1        4 0.50425796E-01 0.12500084E+03</pdfrwt>
<pdfrwt beam="2">  1       -4 0.18335231E-02 0.12500084E+03</pdfrwt>
<totfact> 0.70873059E+03</totfact>
</mgrwt>
</event>
<event>
 5    1  0.3199195E-002  0.1249964E+03  0.7818608E-02  0.1235075E+00
         -4   -1    0    0    0  501 -0.00000000000E+00  0.00000000000E+00  0.23725308459E+02  0.23759275273E+02  0.12700000000E+01 0. -1.
          4   -1    0    0  501    0  0.00000000000E+00 -0.00000000000E+00 -0.16448119156E+03  0.16448609448E+03  0.12700000000E+01 0. -1.
         25    2    1    2    0    0  0.00000000000E+00  0.00000000000E+00 -0.14075588310E+03  0.18824536975E+03  0.12499640237E+03 0.  0.
    9000005    1    3    3    0    0 -0.36703091853E+02  0.85406664372E+01  0.46956073340E+01  0.37988270071E+02  0.10000000000E+01 0.  0.
    9000005    1    3    3    0    0  0.36703091853E+02 -0.85406664372E+01 -0.14545149044E+03  0.15025709968E+03  0.10000000000E+01 0.  0.
<mgrwt>
<rscale>  0 0.12499640E+03</rscale>
<asrwt>0</asrwt>
<pdfrwt beam="2">  1        4 0.25307788E-01 0.12499640E+03</pdfrwt>
<pdfrwt beam="1">  1       -4 0.36530375E-02 0.12499640E+03</pdfrwt>
<totfact> 0.92160942E+03</totfact>
</mgrwt>
</event>
<event>
 5    1  0.3199195E-002  0.1250012E+03  0.7818608E-02  0.1235067E+00
         -4   -1    0    0    0  501 -0.00000000000E+00  0.00000000000E+00  0.18695969603E+03  0.18696400948E+03  0.12700000000E+01 0.  1.
          4   -1    0    0  501    0  0.00000000000E+00 -0.00000000000E+00 -0.20870096003E+02  0.20908701710E+02  0.12700000000E+01 0.  1.
         25    2    1    2    0    0  0.00000000000E+00  0.00000000000E+00  0.16608960003E+03  0.20787271119E+03  0.12500123527E+03 0.  0.
    9000005    1    3    3    0    0  0.14082866433E+02 -0.28159811120E+02 -0.67249097205E+01  0.32210658175E+02  0.10000000000E+01 0.  0.
    9000005    1    3    3    0    0 -0.14082866433E+02  0.28159811120E+02  0.17281450975E+03  0.17566205301E+03  0.10000000000E+01 0.  0.
<mgrwt>
<rscale>  0 0.12500124E+03</rscale>
<asrwt>0</asrwt>
<pdfrwt beam="2">  1        4 0.32140853E-02 0.12500124E+03</pdfrwt>
<pdfrwt beam="1">  1       -4 0.28766333E-01 0.12500124E+03</pdfrwt>
<totfact> 0.88822022E+03</totfact>
</mgrwt>
</event>
<event>
 5    1  0.3199195E-002  0.1249979E+03  0.7818608E-02  0.1235073E+00
         -4   -1    0    0    0  501 -0.00000000000E+00  0.00000000000E+00  0.62445007985E+03  0.62445137130E+03  0.12700000000E+01 0. -1.
          4   -1    0    0  501    0  0.00000000000E+00 -0.00000000000E+00 -0.61895186839E+01  0.63184682905E+01  0.12700000000E+01 0. -1.
         25    2    1    2    0    0  0.00000000000E+00  0.00000000000E+00  0.61826056116E+03  0.63076983959E+03  0.12499787618E+03 0.  0.
    9000005    1    3    3    0    0 -0.34888492297E+02  0.30786772082E+02  0.51963096921E+03  0.52171100850E+03  0.10000000000E+01 0.  0.
    9000005    1    3    3    0    0  0.34888492297E+02 -0.30786772082E+02  0.98629591953E+02  0.10905883109E+03  0.10000000000E+01 0.  0.
<mgrwt>
<rscale>  0 0.12499788E+03</rscale>
<asrwt>0</asrwt>
<pdfrwt beam="2">  1        4 0.96225225E-03 0.12499788E+03</pdfrwt>
<pdfrwt beam="1">  1       -4 0.96079255E-01 0.12499788E+03</pdfrwt>
<totfact> 0.46983391E+03</totfact>
</mgrwt>
</event>
<event>
 5    1  0.3199195E-002  0.1250030E+03  0.7818608E-02  0.1235065E+00
          4   -1    0    0  501    0  0.00000000000E+00  0.00000000000E+00  0.14642790245E+02  0.14697761944E+02  0.12700000000E+01 0.  1.
         -4   -1    0    0    0  501 -0.00000000000E+00 -0.00000000000E+00 -0.26622612780E+03  0.26622915698E+03  0.12700000000E+01 0.  1.
         25    2    1    2    0    0  0.00000000000E+00  0.00000000000E+00 -0.25158333756E+03  0.28092691892E+03  0.12500303211E+03 0.  0.
    9000005    1    3    3    0    0 -0.60543533726E+02  0.98412230118E+01 -0.15267280663E+03  0.16453678929E+03  0.10000000000E+01 0.  0.
    9000005    1    3    3    0    0  0.60543533726E+02 -0.98412230118E+01 -0.98910530930E+02  0.11639012963E+03  0.10000000000E+01 0.  0.
<mgrwt>
<rscale>  0 0.12500303E+03</rscale>
<asrwt>0</asrwt>
<pdfrwt beam="1">  1        4 0.22571988E-02 0.12500303E+03</pdfrwt>
<pdfrwt beam="2">  1       -4 0.40962324E-01 0.12500303E+03</pdfrwt>
<totfact> 0.78050104E+03</totfact>
</mgrwt>
</event>
<event>
 4    1  0.3199195E-002  0.1247574E+03  0.7818608E-02  0.1235449E+00
          4   -1    0    0  501    0  0.00000000000E+00  0.00000000000E+00  0.65740258347E+03  0.65740381019E+03  0.12700000000E+01 0. -1.
         -4   -1    0    0    0  501 -0.00000000000E+00 -0.00000000000E+00 -0.58495327553E+01  0.59858110106E+01  0.12700000000E+01 0. -1.
    9000005    1    1    2    0    0  0.69261704595E+01  0.58370793039E+02  0.21487493960E+03  0.22277199327E+03  0.10000000000E+01 0.  0.
    9000005    1    1    2    0    0 -0.69261704595E+01 -0.58370793039E+02  0.43667811112E+03  0.44061762794E+03  0.10000000000E+01 0.  0.
<mgrwt>
<rscale>  0 0.12475741E+03</rscale>
<asrwt>0</asrwt>
<pdfrwt beam="1">  1        4 0.10114940E+00 0.12475741E+03</pdfrwt>
<pdfrwt beam="2">  1       -4 0.91050571E-03 0.12475741E+03</pdfrwt>
<totfact> 0.45331279E+03</totfact>
</mgrwt>
</event>
<event>
 5    1  0.3199195E-002  0.1250014E+03  0.7818608E-02  0.1235067E+00
          4   -1    0    0  501    0  0.00000000000E+00  0.00000000000E+00  0.72351968663E+02  0.72363114011E+02  0.12700000000E+01 0. -1.
         -4   -1    0    0    0  501 -0.00000000000E+00 -0.00000000000E+00 -0.53968019828E+02  0.53982960869E+02  0.12700000000E+01 0. -1.
         25    2    1    2    0    0  0.00000000000E+00  0.00000000000E+00  0.18383948834E+02  0.12634607488E+03  0.12500144424E+03 0.  0.
    9000005    1    3    3    0    0 -0.60573931086E+02  0.10038471375E+02  0.20951914268E+02  0.64884164064E+02  0.10000000000E+01 0.  0.
    9000005    1    3    3    0    0  0.60573931086E+02 -0.10038471375E+02 -0.25679654338E+01  0.61461910816E+02  0.10000000000E+01 0.  0.
<mgrwt>
<rscale>  0 0.12500144E+03</rscale>
<asrwt>0</asrwt>
<pdfrwt beam="1">  1        4 0.11133079E-01 0.12500144E+03</pdfrwt>
<pdfrwt beam="2">  1       -4 0.83047789E-02 0.12500144E+03</pdfrwt>
<totfact> 0.10423047E+04</totfact>
</mgrwt>
</event>
<event>
 5    1  0.3199195E-002  0.1250025E+03  0.7818608E-02  0.1235065E+00
         -4   -1    0    0    0  501 -0.00000000000E+00  0.00000000000E+00  0.75297794669E+02  0.75308504049E+02  0.12700000000E+01 0.  1.
          4   -1    0    0  501    0  0.00000000000E+00 -0.00000000000E+00 -0.51857230944E+02  0.51872779964E+02  0.12700000000E+01 0.  1.
         25    2    1    2    0    0  0.00000000000E+00  0.00000000000E+00  0.23440563725E+02  0.12718128401E+03  0.12500247588E+03 0.  0.
    9000005    1    3    3    0    0 -0.41752338088E+02  0.46444622863E+02  0.14005316462E+02  0.64011792803E+02  0.10000000000E+01 0.  0.
    9000005    1    3    3    0    0  0.41752338088E+02 -0.46444622863E+02  0.94352472632E+01  0.63169491209E+02  0.10000000000E+01 0.  0.
<mgrwt>
<rscale>  0 0.12500248E+03</rscale>
<asrwt>0</asrwt>
<pdfrwt beam="2">  1        4 0.79800555E-02 0.12500248E+03</pdfrwt>
<pdfrwt beam="1">  1       -4 0.11586296E-01 0.12500248E+03</pdfrwt>
<totfact> 0.10404628E+04</totfact>
</mgrwt>
</event>
<event>
 5    1  0.3199195E-002  0.1250028E+03  0.7818608E-02  0.1235065E+00
         -4   -1    0    0    0  501 -0.00000000000E+00  0.00000000000E+00  0.41097835837E+02  0.41117453843E+02  0.12700000000E+01 0. -1.
          4   -1    0    0  501    0  0.00000000000E+00 -0.00000000000E+00 -0.95005349268E+02  0.95013837358E+02  0.12700000000E+01 0. -1.
         25    2    1    2    0    0  0.00000000000E+00  0.00000000000E+00 -0.53907513430E+02  0.13613129120E+03  0.12500283373E+03 0.  0.
    9000005    1    3    3    0    0 -0.29067993275E+02 -0.51427675243E+02 -0.49156879653E+02  0.76858004340E+02  0.10000000000E+01 0.  0.
    9000005    1    3    3    0    0  0.29067993275E+02  0.51427675243E+02 -0.47506337775E+01  0.59273286861E+02  0.10000000000E+01 0.  0.
<mgrwt>
<rscale>  0 0.12500283E+03</rscale>
<asrwt>0</asrwt>
<pdfrwt beam="2">  1        4 0.14618370E-01 0.12500283E+03</pdfrwt>
<pdfrwt beam="1">  1       -4 0.63249060E-02 0.12500283E+03</pdfrwt>
<totfact> 0.10213628E+04</totfact>
</mgrwt>
</event>
<event>
 5    1  0.3199195E-002  0.1250003E+03  0.7818608E-02  0.1235069E+00
          4   -1    0    0  501    0  0.00000000000E+00  0.00000000000E+00  0.57074182305E+03  0.57074323603E+03  0.12700000000E+01 0.  1.
         -4   -1    0    0    0  501 -0.00000000000E+00 -0.00000000000E+00 -0.67838521437E+01  0.69017063040E+01  0.12700000000E+01 0.  1.
         25    2    1    2    0    0  0.00000000000E+00  0.00000000000E+00  0.56395797090E+03  0.57764494233E+03  0.12500034584E+03 0.  0.
    9000005    1    3    3    0    0 -0.51879480907E+02 -0.20409785890E+02  0.15149955738E+03  0.16143467963E+03  0.10000000000E+01 0.  0.
    9000005    1    3    3    0    0  0.51879480907E+02  0.20409785890E+02  0.41245841352E+03  0.41621026271E+03  0.10000000000E+01 0.  0.
<mgrwt>
<rscale>  0 0.12500035E+03</rscale>
<asrwt>0</asrwt>
<pdfrwt beam="1">  1        4 0.87815605E-01 0.12500035E+03</pdfrwt>
<pdfrwt beam="2">  1       -4 0.10528440E-02 0.12500035E+03</pdfrwt>
<totfact> 0.50309450E+03</totfact>
</mgrwt>
</event>
<event>
 5    1  0.3199195E-002  0.1250041E+03  0.7818608E-02  0.1235063E+00
          4   -1    0    0  501    0  0.00000000000E+00  0.00000000000E+00  0.28343321676E+02  0.28371760320E+02  0.12700000000E+01 0. -1.
         -4   -1    0    0    0  501 -0.00000000000E+00 -0.00000000000E+00 -0.13772756081E+03  0.13773341609E+03  0.12700000000E+01 0. -1.
         25    2    1    2    0    0  0.00000000000E+00  0.00000000000E+00 -0.10938423913E+03  0.16610517641E+03  0.12500407136E+03 0.  0.
    9000005    1    3    3    0    0 -0.15110153167E+02 -0.58157876986E+02 -0.77509138212E+02  0.98078141757E+02  0.10000000000E+01 0.  0.
    9000005    1    3    3    0    0  0.15110153167E+02  0.58157876986E+02 -0.31875100921E+02  0.68027034648E+02  0.10000000000E+01 0.  0.
<mgrwt>
<rscale>  0 0.12500407E+03</rscale>
<asrwt>0</asrwt>
<pdfrwt beam="1">  1        4 0.43631491E-02 0.12500407E+03</pdfrwt>
<pdfrwt beam="2">  1       -4 0.21191493E-01 0.12500407E+03</pdfrwt>
<totfact> 0.96169703E+03</totfact>
</mgrwt>
</event>
<event>
 5    1  0.3199195E-002  0.1249967E+03  0.7818608E-02  0.1235074E+00
         -4   -1    0    0    0  501 -0.00000000000E+00  0.00000000000E+00  0.50466275097E+02  0.50482252547E+02  0.12700000000E+01 0.  1.
          4   -1    0    0  501    0  0.00000000000E+00 -0.00000000000E+00 -0.77365635935E+02  0.77376059111E+02  0.12700000000E+01 0.  1.
         25    2    1    2    0    0  0.00000000000E+00  0.00000000000E+00 -0.26899360837E+02  0.12785831166E+03  0.12499668894E+03 0.  0.
    9000005    1    3    3    0    0 -0.15690877197E+02  0.44105941432E+02 -0.55791858128E+02  0.72837278438E+02  0.10000000000E+01 0.  0.
    9000005    1    3    3    0    0  0.15690877197E+02 -0.44105941432E+02  0.28892497291E+02  0.55021033220E+02  0.10000000000E+01 0.  0.
<mgrwt>
<rscale>  0 0.12499669E+03</rscale>
<asrwt>0</asrwt>
<pdfrwt beam="2">  1        4 0.11904436E-01 0.12499669E+03</pdfrwt>
<pdfrwt beam="1">  1       -4 0.77660731E-02 0.12499669E+03</pdfrwt>
<totfact> 0.10391325E+04</totfact>
</mgrwt>
</event>
<event>
 5    1  0.3199195E-002  0.1250003E+03  0.7818608E-02  0.1235069E+00
         -4   -1    0    0    0  501 -0.00000000000E+00  0.00000000000E+00  0.60875086343E+01  0.62185739019E+01  0.12700000000E+01 0.  1.
          4   -1    0    0  501    0  0.00000000000E+00 -0.00000000000E+00 -0.63471988086E+03  0.63472115142E+03  0.12700000000E+01 0.  1.
         25    2    1    2    0    0  0.00000000000E+00  0.00000000000E+00 -0.62863237223E+03  0.64093972532E+03  0.12500028834E+03 0.  0.
    9000005    1    3    3    0    0 -0.23027772581E+02  0.10778188857E+02 -0.60702539460E+03  0.60755845592E+03  0.10000000000E+01 0.  0.
    9000005    1    3    3    0    0  0.23027772581E+02 -0.10778188857E+02 -0.21606977628E+02  0.33381269408E+02  0.10000000000E+01 0.  0.
<mgrwt>
<rscale>  0 0.12500029E+03</rscale>
<asrwt>0</asrwt>
<pdfrwt beam="2">  1        4 0.97659340E-01 0.12500029E+03</pdfrwt>
<pdfrwt beam="1">  1       -4 0.94671997E-03 0.12500029E+03</pdfrwt>
<totfact> 0.46380972E+03</totfact>
</mgrwt>
</event>
<event>
 5    1  0.3199195E-002  0.1249971E+03  0.7818608E-02  0.1235074E+00
          4   -1    0    0  501    0  0.00000000000E+00  0.00000000000E+00  0.15906999637E+02  0.15957616910E+02  0.12700000000E+01 0. -1.
         -4   -1    0    0    0  501 -0.00000000000E+00 -0.00000000000E+00 -0.24511407211E+03  0.24511736219E+03  0.12700000000E+01 0. -1.
         25    2    1    2    0    0  0.00000000000E+00  0.00000000000E+00 -0.22920707247E+03  0.26107497910E+03  0.12499705052E+03 0.  0.
    9000005    1    3    3    0    0  0.40652887350E+02  0.26253993802E+02 -0.32025623814E+02  0.58039383363E+02  0.10000000000E+01 0.  0.
    9000005    1    3    3    0    0 -0.40652887350E+02 -0.26253993802E+02 -0.19718144866E+03  0.20303559573E+03  0.10000000000E+01 0.  0.
<mgrwt>
<rscale>  0 0.12499705E+03</rscale>
<asrwt>0</asrwt>
<pdfrwt beam="1">  1        4 0.24513776E-02 0.12499705E+03</pdfrwt>
<pdfrwt beam="2">  1       -4 0.37714001E-01 0.12499705E+03</pdfrwt>
<totfact> 0.80760742E+03</totfact>
</mgrwt>
</event>
<event>
 5    1  0.3199195E-002  0.1249991E+03  0.7818608E-02  0.1235071E+00
          4   -1    0    0  501    0  0.00000000000E+00  0.00000000000E+00  0.40797451791E+03  0.40797649462E+03  0.12700000000E+01 0.  1.
         -4   -1    0    0    0  501 -0.00000000000E+00 -0.00000000000E+00 -0.95304726227E+01  0.96147183220E+01  0.12700000000E+01 0.  1.
         25    2    1    2    0    0  0.00000000000E+00  0.00000000000E+00  0.39844404528E+03  0.41759121294E+03  0.12499905561E+03 0.  0.
    9000005    1    3    3    0    0  0.41971825722E+02  0.31452581041E+02  0.31272374618E+03  0.31709311004E+03  0.10000000000E+01 0.  0.
    9000005    1    3    3    0    0 -0.41971825722E+02 -0.31452581041E+02  0.85720299103E+02  0.10049810290E+03  0.10000000000E+01 0.  0.
<mgrwt>
<rscale>  0 0.12499906E+03</rscale>
<asrwt>0</asrwt>
<pdfrwt beam="1">  1        4 0.62771948E-01 0.12499906E+03</pdfrwt>
<pdfrwt beam="2">  1       -4 0.14728589E-02 0.12499906E+03</pdfrwt>
<totfact> 0.62878413E+03</totfact>
</mgrwt>
</event>
<event>
 5    1  0.3199195E-002  0.1250000E+03  0.7818608E-02  0.1235069E+00
         -4   -1    0    0    0  501 -0.00000000000E+00  0.00000000000E+00  0.77785041356E+02  0.77795408339E+02  0.12700000000E+01 0. -1.
          4   -1    0    0  501    0  0.00000000000E+00 -0.00000000000E+00 -0.50196762045E+02  0.50212825252E+02  0.12700000000E+01 0. -1.
         25    2    1    2    0    0  0.00000000000E+00  0.00000000000E+00  0.27588279311E+02  0.12800823359E+03  0.12499997885E+03 0.  0.
    9000005    1    3    3    0    0  0.60855546252E+02  0.13372042956E+02  0.88786615375E+01  0.62944735071E+02  0.10000000000E+01 0.  0.
    9000005    1    3    3    0    0 -0.60855546252E+02 -0.13372042956E+02  0.18709617774E+02  0.65063498520E+02  0.10000000000E+01 0.  0.
<mgrwt>
<rscale>  0 0.12499998E+03</rscale>
<asrwt>0</asrwt>
<pdfrwt beam="2">  1        4 0.77246119E-02 0.12499998E+03</pdfrwt>
<pdfrwt beam="1">  1       -4 0.11968962E-01 0.12499998E+03</pdfrwt>
<totfact> 0.10387315E+04</totfact>
</mgrwt>
</event>
<event>
 5    1  0.3199195E-002  0.1249956E+03  0.7818608E-02  0.1235076E+00
          4   -1    0    0  501    0  0.00000000000E+00  0.00000000000E+00  0.27550683342E+02  0.27579939315E+02  0.12700000000E+01 0.  1.
         -4   -1    0    0    0  501 -0.00000000000E+00 -0.00000000000E+00 -0.14166692127E+03  0.14167261374E+03  0.12700000000E+01 0.  1.
         25    2    1    2    0    0  0.00000000000E+00  0.00000000000E+00 -0.11411623793E+03  0.16925255305E+03  0.12499564375E+03 0.  0.
    9000005    1    3    3    0    0  0.28820918959E+02 -0.59980472866E+01  0.17579824660E+02  0.34302655524E+02  0.10000000000E+01 0.  0.
    9000005    1    3    3    0    0 -0.28820918959E+02  0.59980472866E+01 -0.13169606259E+03  0.13494989753E+03  0.10000000000E+01 0.  0.
<mgrwt>
<rscale>  0 0.12499564E+03</rscale>
<asrwt>0</asrwt>
<pdfrwt beam="1">  1        4 0.42412551E-02 0.12499564E+03</pdfrwt>
<pdfrwt beam="2">  1       -4 0.21797599E-01 0.12499564E+03</pdfrwt>
<totfact> 0.95597383E+03</totfact>
</mgrwt>
</event>
<event>
 5    1  0.3199195E-002  0.1249997E+03  0.7818608E-02  0.1235070E+00
         -4   -1    0    0    0  501 -0.00000000000E+00  0.00000000000E+00  0.21769616935E+02  0.21806630218E+02  0.12700000000E+01 0. -1.
          4   -1    0    0  501    0  0.00000000000E+00 -0.00000000000E+00 -0.17924334613E+03  0.17924784526E+03  0.12700000000E+01 0. -1.
         25    2    1    2    0    0  0.00000000000E+00  0.00000000000E+00 -0.15747372919E+03  0.20105447548E+03  0.12499970690E+03 0.  0.
    9000005    1    3    3    0    0  0.27611784853E+01 -0.54172423383E+02 -0.12864921241E+03  0.13962054080E+03  0.10000000000E+01 0.  0.
    9000005    1    3    3    0    0 -0.27611784853E+01  0.54172423383E+02 -0.28824516788E+02  0.61433934677E+02  0.10000000000E+01 0.  0.
<mgrwt>
<rscale>  0 0.12499971E+03</rscale>
<asrwt>0</asrwt>
<pdfrwt beam="2">  1        4 0.27579092E-01 0.12499971E+03</pdfrwt>
<pdfrwt beam="1">  1       -4 0.33523652E-02 0.12499971E+03</pdfrwt>
<totfact> 0.89958555E+03</totfact>
</mgrwt>
</event>
<event>
 5    1  0.3199195E-002  0.1249938E+03  0.7818608E-02  0.1235079E+00
         -4   -1    0    0    0  501 -0.00000000000E+00  0.00000000000E+00  0.16078078712E+01  0.20488890040E+01  0.12700000000E+01 0.  1.
          4   -1    0    0  501    0  0.00000000000E+00 -0.00000000000E+00 -0.21358376380E+04  0.21358380156E+04  0.12700000000E+01 0.  1.
         25    2    1    2    0    0  0.00000000000E+00  0.00000000000E+00 -0.21342298301E+04  0.21378869046E+04  0.12499379577E+03 0.  0.
    9000005    1    3    3    0    0  0.61087979850E+02 -0.44235348383E+01 -0.12790612207E+04  0.12805272020E+04  0.10000000000E+01 0.  0.
    9000005    1    3    3    0    0 -0.61087979850E+02  0.44235348383E+01 -0.85516860945E+03  0.85735970253E+03  0.10000000000E+01 0.  0.
<mgrwt>
<rscale>  0 0.12499380E+03</rscale>
<asrwt>0</asrwt>
<pdfrwt beam="2">  1        4 0.32862237E+00 0.12499380E+03</pdfrwt>
<pdfrwt beam="1">  1       -4 0.28131513E-03 0.12499380E+03</pdfrwt>
<totfact> 0.81684129E+02</totfact>
</mgrwt>
</event>
<event>
 5    1  0.3199195E-002  0.1250014E+03  0.7818608E-02  0.1235067E+00
         -4   -1    0    0    0  501 -0.00000000000E+00  0.00000000000E+00  0.40699042572E+03  0.40699240721E+03  0.12700000000E+01 0. -1.
          4   -1    0    0  501    0  0.00000000000E+00 -0.00000000000E+00 -0.95540848939E+01  0.96381242034E+01  0.12700000000E+01 0. -1.
         25    2    1    2    0    0  0.00000000000E+00  0.00000000000E+00  0.39743634082E+03  0.41663053141E+03  0.12500141878E+03 0.  0.
    9000005    1    3    3    0    0  0.31240147992E+02 -0.53773932926E+02  0.17823821812E+03  0.18877882590E+03  0.10000000000E+01 0.  0.
    9000005    1    3    3    0    0 -0.31240147992E+02  0.53773932926E+02  0.21919812271E+03  0.22785170552E+03  0.10000000000E+01 0.  0.
<mgrwt>
<rscale>  0 0.12500142E+03</rscale>
<asrwt>0</asrwt>
<pdfrwt beam="2">  1        4 0.14764762E-02 0.12500142E+03</pdfrwt>
<pdfrwt beam="1">  1       -4 0.62620529E-01 0.12500142E+03</pdfrwt>
<totfact> 0.62964863E+03</totfact>
</mgrwt>
</event>
<event>
 5    1  0.3199195E-002  0.1249996E+03  0.7818608E-02  0.1235070E+00
         -4   -1    0    0    0  501 -0.00000000000E+00  0.00000000000E+00  0.17322045456E+04  0.17322050112E+04  0.12700000000E+01 0. -1.
          4   -1    0    0  501    0  0.00000000000E+00 -0.00000000000E+00 -0.20757482523E+01  0.24334401178E+01  0.12700000000E+01 0. -1.
         25    2    1    2    0    0  0.00000000000E+00  0.00000000000E+00  0.17301287974E+04  0.17346384513E+04  0.12499960500E+03 0.  0.
    9000005    1    3    3    0    0 -0.47289856785E+02 -0.40250943130E+02  0.76816616658E+03  0.77067290626E+03  0.10000000000E+01 0.  0.
    9000005    1    3    3    0    0  0.47289856785E+02  0.40250943130E+02  0.96196263081E+03  0.96396554505E+03  0.10000000000E+01 0.  0.
<mgrwt>
<rscale>  0 0.12499960E+03</rscale>
<asrwt>0</asrwt>
<pdfrwt beam="2">  1        4 0.34689757E-03 0.12499960E+03</pdfrwt>
<pdfrwt beam="1">  1       -4 0.26651970E+00 0.12499960E+03</pdfrwt>
<totfact> 0.13738053E+03</totfact>
</mgrwt>
</event>
<event>
 5    1  0.3199195E-002  0.1250000E+03  0.7818608E-02  0.1235069E+00
         -4   -1    0    0    0  501 -0.00000000000E+00  0.00000000000E+00  0.11613631667E+02  0.11682865252E+02  0.12700000000E+01 0.  1.
          4   -1    0    0  501    0  0.00000000000E+00 -0.00000000000E+00 -0.33528050892E+03  0.33528291421E+03  0.12700000000E+01 0.  1.
         25    2    1    2    0    0  0.00000000000E+00  0.00000000000E+00 -0.32366687725E+03  0.34696577946E+03  0.12500001875E+03 0.  0.
    9000005    1    3    3    0    0  0.61569713194E+02  0.16992255661E+01 -0.13251906390E+03  0.14613698795E+03  0.10000000000E+01 0.  0.
    9000005    1    3    3    0    0 -0.61569713194E+02 -0.16992255661E+01 -0.19114781335E+03  0.20082879151E+03  0.10000000000E+01 0.  0.
<mgrwt>
<rscale>  0 0.12500002E+03</rscale>
<asrwt>0</asrwt>
<pdfrwt beam="2">  1        4 0.51587120E-01 0.12500002E+03</pdfrwt>
<pdfrwt beam="1">  1       -4 0.17922235E-02 0.12500002E+03</pdfrwt>
<totfact> 0.70059626E+03</totfact>
</mgrwt>
</event>
<event>
 5    1  0.3199195E-002  0.1249988E+03  0.7818608E-02  0.1235071E+00
          4   -1    0    0  501    0  0.00000000000E+00  0.00000000000E+00  0.59041512733E+03  0.59041649323E+03  0.12700000000E+01 0.  1.
         -4   -1    0    0    0  501 -0.00000000000E+00 -0.00000000000E+00 -0.65536491768E+01  0.66755687048E+01  0.12700000000E+01 0.  1.
         25    2    1    2    0    0  0.00000000000E+00  0.00000000000E+00  0.58386147816E+03  0.59709206194E+03  0.12499881902E+03 0.  0.
    9000005    1    3    3    0    0 -0.18519994855E+02  0.18720735368E+02  0.56264069546E+03  0.56325749736E+03  0.10000000000E+01 0.  0.
    9000005    1    3    3    0    0  0.18519994855E+02 -0.18720735368E+02  0.21220782694E+02  0.33834564580E+02  0.10000000000E+01 0.  0.
<mgrwt>
<rscale>  0 0.12499882E+03</rscale>
<asrwt>0</asrwt>
<pdfrwt beam="1">  1        4 0.90842628E-01 0.12499882E+03</pdfrwt>
<pdfrwt beam="2">  1       -4 0.10177367E-02 0.12499882E+03</pdfrwt>
<totfact> 0.49052934E+03</totfact>
</mgrwt>
</event>
<event>
 5    1  0.3199195E-002  0.1249992E+03  0.7818608E-02  0.1235071E+00
          4   -1    0    0  501    0  0.00000000000E+00  0.00000000000E+00  0.23945968467E+03  0.23946305244E+03  0.12700000000E+01 0.  1.
         -4   -1    0    0    0  501 -0.00000000000E+00 -0.00000000000E+00 -0.16284353083E+02  0.16333801007E+02  0.12700000000E+01 0.  1.
         25    2    1    2    0    0  0.00000000000E+00  0.00000000000E+00  0.22317533159E+03  0.25579685345E+03  0.12499920641E+03 0.  0.
    9000005    1    3    3    0    0 -0.19567644738E+02  0.33975630523E+02  0.12006889113E+02  0.41017088831E+02  0.10000000000E+01 0.  0.
    9000005    1    3    3    0    0  0.19567644738E+02 -0.33975630523E+02  0.21116844248E+03  0.21477976462E+03  0.10000000000E+01 0.  0.
<mgrwt>
<rscale>  0 0.12499921E+03</rscale>
<asrwt>0</asrwt>
<pdfrwt beam="1">  1        4 0.36844013E-01 0.12499921E+03</pdfrwt>
<pdfrwt beam="2">  1       -4 0.25093479E-02 0.12499921E+03</pdfrwt>
<totfact> 0.81500995E+03</totfact>
</mgrwt>
</event>
<event>
 5    1  0.3199195E-002  0.1249857E+03  0.7818608E-02  0.1235092E+00
         -4   -1    0    0    0  501 -0.00000000000E+00  0.00000000000E+00  0.47288789473E+02  0.47305840124E+02  0.12700000000E+01 0.  1.
          4   -1    0    0  501    0  0.00000000000E+00 -0.00000000000E+00 -0.82548450859E+02  0.82558219695E+02  0.12700000000E+01 0.  1.
         25    2    1    2    0    0  0.00000000000E+00  0.00000000000E+00 -0.35259661385E+02  0.12986405982E+03  0.12498572043E+03 0.  0.
    9000005    1    3    3    0    0  0.61132719402E+02 -0.12509047972E+02 -0.21024127076E+02  0.65853622390E+02  0.10000000000E+01 0.  0.
    9000005    1    3    3    0    0 -0.61132719402E+02  0.12509047972E+02 -0.14235534310E+02  0.64010437428E+02  0.10000000000E+01 0.  0.
<mgrwt>
<rscale>  0 0.12498572E+03</rscale>
<asrwt>0</asrwt>
<pdfrwt beam="2">  1        4 0.12701825E-01 0.12498572E+03</pdfrwt>
<pdfrwt beam="1">  1       -4 0.72772614E-02 0.12498572E+03</pdfrwt>
<totfact> 0.10350752E+04</totfact>
</mgrwt>
</event>
<event>
 5    1  0.3199195E-002  0.1250029E+03  0.7818608E-02  0.1235065E+00
         -4   -1    0    0    0  501 -0.00000000000E+00  0.00000000000E+00  0.13508272366E+03  0.13508869357E+03  0.12700000000E+01 0.  1.
          4   -1    0    0  501    0  0.00000000000E+00 -0.00000000000E+00 -0.28898273655E+02  0.28926166705E+02  0.12700000000E+01 0.  1.
         25    2    1    2    0    0  0.00000000000E+00  0.00000000000E+00  0.10618445000E+03  0.16401486027E+03  0.12500294784E+03 0.  0.
    9000005    1    3    3    0    0 -0.12968440751E+02 -0.26988139318E+02 -0.18880243215E+02  0.35411914707E+02  0.10000000000E+01 0.  0.
    9000005    1    3    3    0    0  0.12968440751E+02  0.26988139318E+02  0.12506469322E+03  0.12860294557E+03  0.10000000000E+01 0.  0.
<mgrwt>
<rscale>  0 0.12500295E+03</rscale>
<asrwt>0</asrwt>
<pdfrwt beam="2">  1        4 0.44484931E-02 0.12500295E+03</pdfrwt>
<pdfrwt beam="1">  1       -4 0.20784562E-01 0.12500295E+03</pdfrwt>
<totfact> 0.96567892E+03</totfact>
</mgrwt>
</event>
<event>
 5    1  0.3199195E-002  0.1249991E+03  0.7818608E-02  0.1235071E+00
          4   -1    0    0  501    0  0.00000000000E+00  0.00000000000E+00  0.14540819260E+03  0.14541373860E+03  0.12700000000E+01 0.  1.
         -4   -1    0    0    0  501 -0.00000000000E+00 -0.00000000000E+00 -0.26842570043E+02  0.26872596944E+02  0.12700000000E+01 0.  1.
         25    2    1    2    0    0  0.00000000000E+00  0.00000000000E+00  0.11856562255E+03  0.17228633555E+03  0.12499909825E+03 0.  0.
    9000005    1    3    3    0    0  0.42672265726E+02  0.30633995959E+02  0.10593843350E+03  0.11825107045E+03  0.10000000000E+01 0.  0.
    9000005    1    3    3    0    0 -0.42672265726E+02 -0.30633995959E+02  0.12627189056E+02  0.54035265096E+02  0.10000000000E+01 0.  0.
<mgrwt>
<rscale>  0 0.12499910E+03</rscale>
<asrwt>0</asrwt>
<pdfrwt beam="1">  1        4 0.22373228E-01 0.12499910E+03</pdfrwt>
<pdfrwt beam="2">  1       -4 0.41323625E-02 0.12499910E+03</pdfrwt>
<totfact> 0.95026127E+03</totfact>
</mgrwt>
</event>
<event>
 5    1  0.3199195E-002  0.1249999E+03  0.7818608E-02  0.1235069E+00
          4   -1    0    0  501    0  0.00000000000E+00  0.00000000000E+00  0.92009371703E+01  0.92881723074E+01  0.12700000000E+01 0.  1.
         -4   -1    0    0    0  501 -0.00000000000E+00 -0.00000000000E+00 -0.42245746422E+03  0.42245937316E+03  0.12700000000E+01 0.  1.
         25    2    1    2    0    0  0.00000000000E+00  0.00000000000E+00 -0.41325652705E+03  0.43174754547E+03  0.12499994349E+03 0.  0.
    9000005    1    3    3    0    0  0.59155667272E+02 -0.15818061336E+02 -0.24971901485E+03  0.25711901994E+03  0.10000000000E+01 0.  0.
    9000005    1    3    3    0    0 -0.59155667272E+02  0.15818061336E+02 -0.16353751220E+03  0.17462852553E+03  0.10000000000E+01 0.  0.
<mgrwt>
<rscale>  0 0.12499994E+03</rscale>
<asrwt>0</asrwt>
<pdfrwt beam="1">  1        4 0.14223864E-02 0.12499994E+03</pdfrwt>
<pdfrwt beam="2">  1       -4 0.65000298E-01 0.12499994E+03</pdfrwt>
<totfact> 0.61577990E+03</totfact>
</mgrwt>
</event>
<event>
 5    1  0.3199195E-002  0.1250011E+03  0.7818608E-02  0.1235068E+00
         -4   -1    0    0    0  501 -0.00000000000E+00  0.00000000000E+00  0.52652686237E+03  0.52652839401E+03  0.12700000000E+01 0.  1.
          4   -1    0    0  501    0  0.00000000000E+00 -0.00000000000E+00 -0.73631231268E+01  0.74718459687E+01  0.12700000000E+01 0.  1.
         25    2    1    2    0    0  0.00000000000E+00  0.00000000000E+00  0.51916373924E+03  0.53400023998E+03  0.12500107260E+03 0.  0.
    9000005    1    3    3    0    0 -0.52276149072E+02  0.23070715142E+01  0.40553052884E+03  0.40889378592E+03  0.10000000000E+01 0.  0.
    9000005    1    3    3    0    0  0.52276149072E+02 -0.23070715142E+01  0.11363321040E+03  0.12510645406E+03  0.10000000000E+01 0.  0.
<mgrwt>
<rscale>  0 0.12500107E+03</rscale>
<asrwt>0</asrwt>
<pdfrwt beam="2">  1        4 0.11412694E-02 0.12500107E+03</pdfrwt>
<pdfrwt beam="1">  1       -4 0.81012605E-01 0.12500107E+03</pdfrwt>
<totfact> 0.53318355E+03</totfact>
</mgrwt>
</event>
<event>
 5    1  0.3199195E-002  0.1249988E+03  0.7818608E-02  0.1235071E+00
          4   -1    0    0  501    0  0.00000000000E+00  0.00000000000E+00  0.10947026142E+03  0.10947762801E+03  0.12700000000E+01 0.  1.
         -4   -1    0    0    0  501 -0.00000000000E+00 -0.00000000000E+00 -0.35662653050E+02  0.35685259177E+02  0.12700000000E+01 0.  1.
         25    2    1    2    0    0  0.00000000000E+00  0.00000000000E+00  0.73807608371E+02  0.14516288719E+03  0.12499880305E+03 0.  0.
    9000005    1    3    3    0    0  0.29769653912E+02 -0.51023738087E+02  0.13231187974E+02  0.60545177162E+02  0.10000000000E+01 0.  0.
    9000005    1    3    3    0    0 -0.29769653912E+02  0.51023738087E+02  0.60576420397E+02  0.84617710029E+02  0.10000000000E+01 0.  0.
<mgrwt>
<rscale>  0 0.12499880E+03</rscale>
<asrwt>0</asrwt>
<pdfrwt beam="1">  1        4 0.16843884E-01 0.12499880E+03</pdfrwt>
<pdfrwt beam="2">  1       -4 0.54888676E-02 0.12499880E+03</pdfrwt>
<totfact> 0.10027950E+04</totfact>
</mgrwt>
</event>
<event>
 4    1  0.3199195E-002  0.1251243E+03  0.7818608E-02  0.1234875E+00
         -4   -1    0    0    0  501 -0.00000000000E+00  0.00000000000E+00  0.98229087890E+03  0.98229169989E+03  0.12700000000E+01 0.  1.
          4   -1    0    0  501    0  0.00000000000E+00 -0.00000000000E+00 -0.38825435603E+01  0.40849779066E+01  0.12700000000E+01 0.  1.
    9000005    1    1    2    0    0  0.53444939217E+02 -0.32173151749E+02  0.45261167081E+03  0.45689145076E+03  0.10000000000E+01 0.  0.
    9000005    1    1    2    0    0 -0.53444939217E+02  0.32173151749E+02  0.52579666452E+03  0.52948522703E+03  0.10000000000E+01 0.  0.
<mgrwt>
<rscale>  0 0.12512426E+03</rscale>
<asrwt>0</asrwt>
<pdfrwt beam="2">  1        4 0.61294836E-03 0.12512426E+03</pdfrwt>
<pdfrwt beam="1">  1       -4 0.15113757E+00 0.12512426E+03</pdfrwt>
<totfact> 0.30974520E+03</totfact>
</mgrwt>
</event>
<event>
 5    1  0.3199195E-002  0.1249944E+03  0.7818608E-02  0.1235078E+00
          4   -1    0    0  501    0  0.00000000000E+00  0.00000000000E+00  0.34276690364E+03  0.34276925639E+03  0.12700000000E+01 0.  1.
         -4   -1    0    0    0  501 -0.00000000000E+00 -0.00000000000E+00 -0.11357431192E+02  0.11428216977E+02  0.12700000000E+01 0.  1.
         25    2    1    2    0    0  0.00000000000E+00  0.00000000000E+00  0.33140947245E+03  0.35419747337E+03  0.12499444674E+03 0.  0.
    9000005    1    3    3    0    0 -0.16646045099E+02 -0.49852673460E+02  0.26148746985E+03  0.26671909709E+03  0.10000000000E+01 0.  0.
    9000005    1    3    3    0    0  0.16646045099E+02  0.49852673460E+02  0.69922002600E+02  0.87478376278E+02  0.10000000000E+01 0.  0.
<mgrwt>
<rscale>  0 0.12499445E+03</rscale>
<asrwt>0</asrwt>
<pdfrwt beam="1">  1        4 0.52739002E-01 0.12499445E+03</pdfrwt>
<pdfrwt beam="2">  1       -4 0.17529230E-02 0.12499445E+03</pdfrwt>
<totfact> 0.69273743E+03</totfact>
</mgrwt>
</event>
<event>
 5    1  0.3199195E-002  0.1249994E+03  0.7818608E-02  0.1235070E+00
          4   -1    0    0  501    0  0.00000000000E+00  0.00000000000E+00  0.20604326789E+03  0.20604718183E+03  0.12700000000E+01 0.  1.
         -4   -1    0    0    0  501 -0.00000000000E+00 -0.00000000000E+00 -0.18932855857E+02  0.18975403314E+02  0.12700000000E+01 0.  1.
         25    2    1    2    0    0  0.00000000000E+00  0.00000000000E+00  0.18711041203E+03  0.22502258515E+03  0.12499943014E+03 0.  0.
    9000005    1    3    3    0    0 -0.66740006611E+01 -0.94815490234E+01  0.20409871142E+03  0.20443024742E+03  0.10000000000E+01 0.  0.
    9000005    1    3    3    0    0  0.66740006611E+01  0.94815490234E+01 -0.16988299393E+02  0.20592337725E+02  0.10000000000E+01 0.  0.
<mgrwt>
<rscale>  0 0.12499943E+03</rscale>
<asrwt>0</asrwt>
<pdfrwt beam="1">  1        4 0.31702537E-01 0.12499943E+03</pdfrwt>
<pdfrwt beam="2">  1       -4 0.29163211E-02 0.12499943E+03</pdfrwt>
<totfact> 0.86080873E+03</totfact>
</mgrwt>
</event>
<event>
 5    1  0.3199195E-002  0.1250017E+03  0.7818608E-02  0.1235067E+00
          4   -1    0    0  501    0  0.00000000000E+00  0.00000000000E+00  0.76458684999E+01  0.77506261114E+01  0.12700000000E+01 0.  1.
         -4   -1    0    0    0  501 -0.00000000000E+00 -0.00000000000E+00 -0.50732865901E+03  0.50733024860E+03  0.12700000000E+01 0.  1.
         25    2    1    2    0    0  0.00000000000E+00  0.00000000000E+00 -0.49968279051E+03  0.51508087472E+03  0.12500166547E+03 0.  0.
    9000005    1    3    3    0    0  0.28893636584E+02 -0.53468976111E+02 -0.30977872549E+03  0.31568597119E+03  0.10000000000E+01 0.  0.
    9000005    1    3    3    0    0 -0.28893636584E+02  0.53468976111E+02 -0.18990406502E+03  0.19939490352E+03  0.10000000000E+01 0.  0.
<mgrwt>
<rscale>  0 0.12500167E+03</rscale>
<asrwt>0</asrwt>
<pdfrwt beam="1">  1        4 0.11844684E-02 0.12500167E+03</pdfrwt>
<pdfrwt beam="2">  1       -4 0.78058717E-01 0.12500167E+03</pdfrwt>
<totfact> 0.54710980E+03</totfact>
</mgrwt>
</event>
<event>
 5    1  0.3199195E-002  0.1249878E+03  0.7818608E-02  0.1235088E+00
          4   -1    0    0  501    0  0.00000000000E+00  0.00000000000E+00  0.13665336495E+04  0.13665342396E+04  0.12700000000E+01 0. -1.
         -4   -1    0    0    0  501 -0.00000000000E+00 -0.00000000000E+00 -0.27162432767E+01  0.29984792043E+01  0.12700000000E+01 0. -1.
         25    2    1    2    0    0  0.00000000000E+00  0.00000000000E+00  0.13638174062E+04  0.13695327188E+04  0.12498780130E+03 0.  0.
    9000005    1    3    3    0    0 -0.21936738323E+02 -0.18561634621E+02  0.73926611996E+02  0.79321489707E+02  0.10000000000E+01 0.  0.
    9000005    1    3    3    0    0  0.21936738323E+02  0.18561634621E+02  0.12898907942E+04  0.12902112291E+04  0.10000000000E+01 0.  0.
<mgrwt>
<rscale>  0 0.12498780E+03</rscale>
<asrwt>0</asrwt>
<pdfrwt beam="1">  1        4 0.21025803E+00 0.12498780E+03</pdfrwt>
<pdfrwt beam="2">  1       -4 0.43963874E-03 0.12498780E+03</pdfrwt>
<totfact> 0.20649747E+03</totfact>
</mgrwt>
</event>
<event>
 5    1  0.3199195E-002  0.1250029E+03  0.7818608E-02  0.1235065E+00
          4   -1    0    0  501    0  0.00000000000E+00  0.00000000000E+00  0.99142865927E+02  0.99150999815E+02  0.12700000000E+01 0. -1.
         -4   -1    0    0    0  501 -0.00000000000E+00 -0.00000000000E+00 -0.39382027080E+02  0.39402499374E+02  0.12700000000E+01 0. -1.
         25    2    1    2    0    0  0.00000000000E+00  0.00000000000E+00  0.59760838848E+02  0.13855349919E+03  0.12500285708E+03 0.  0.
    9000005    1    3    3    0    0 -0.10606426850E+02  0.57772795244E+02  0.53529597598E+02  0.79477103494E+02  0.10000000000E+01 0.  0.
    9000005    1    3    3    0    0  0.10606426850E+02 -0.57772795244E+02  0.62312412492E+01  0.59076395695E+02  0.10000000000E+01 0.  0.
<mgrwt>
<rscale>  0 0.12500286E+03</rscale>
<asrwt>0</asrwt>
<pdfrwt beam="1">  1        4 0.15254949E-01 0.12500286E+03</pdfrwt>
<pdfrwt beam="2">  1       -4 0.60609740E-02 0.12500286E+03</pdfrwt>
<totfact> 0.10162999E+04</totfact>
</mgrwt>
</event>
<event>
 5    1  0.3199195E-002  0.1249998E+03  0.7818608E-02  0.1235070E+00
         -4   -1    0    0    0  501 -0.00000000000E+00  0.00000000000E+00  0.22132273781E+02  0.22168681573E+02  0.12700000000E+01 0. -1.
          4   -1    0    0  501    0  0.00000000000E+00 -0.00000000000E+00 -0.17631122427E+03  0.17631579823E+03  0.12700000000E+01 0. -1.
         25    2    1    2    0    0  0.00000000000E+00  0.00000000000E+00 -0.15417895049E+03  0.19848447980E+03  0.12499975979E+03 0.  0.
    9000005    1    3    3    0    0 -0.31679177544E+02 -0.38265304970E+00 -0.16262175151E+03  0.16568207741E+03  0.10000000000E+01 0.  0.
    9000005    1    3    3    0    0  0.31679177544E+02  0.38265304970E+00  0.84428010160E+01  0.32802402385E+02  0.10000000000E+01 0.  0.
<mgrwt>
<rscale>  0 0.12499976E+03</rscale>
<asrwt>0</asrwt>
<pdfrwt beam="2">  1        4 0.27127955E-01 0.12499976E+03</pdfrwt>
<pdfrwt beam="1">  1       -4 0.34081178E-02 0.12499976E+03</pdfrwt>
<totfact> 0.90392127E+03</totfact>
</mgrwt>
</event>
<event>
 5    1  0.3199195E-002  0.1249529E+03  0.7818608E-02  0.1235143E+00
          4   -1    0    0  501    0  0.00000000000E+00  0.00000000000E+00  0.17851048529E+03  0.17851500289E+03  0.12700000000E+01 0. -1.
         -4   -1    0    0    0  501 -0.00000000000E+00 -0.00000000000E+00 -0.21842725983E+02  0.21879615590E+02  0.12700000000E+01 0. -1.
         25    2    1    2    0    0  0.00000000000E+00  0.00000000000E+00  0.15666775930E+03  0.20039461848E+03  0.12495285636E+03 0.  0.
    9000005    1    3    3    0    0  0.71673295012E+01  0.94724939251E+01  0.17669045242E+03  0.17709210804E+03  0.10000000000E+01 0.  0.
    9000005    1    3    3    0    0 -0.71673295012E+01 -0.94724939251E+01 -0.20022693116E+02  0.23302510443E+02  0.10000000000E+01 0.  0.
<mgrwt>
<rscale>  0 0.12495286E+03</rscale>
<asrwt>0</asrwt>
<pdfrwt beam="1">  1        4 0.27466336E-01 0.12495286E+03</pdfrwt>
<pdfrwt beam="2">  1       -4 0.33636046E-02 0.12495286E+03</pdfrwt>
<totfact> 0.90164073E+03</totfact>
</mgrwt>
</event>
<event>
 5    1  0.3199195E-002  0.1250000E+03  0.7818608E-02  0.1235069E+00
          4   -1    0    0  501    0  0.00000000000E+00  0.00000000000E+00  0.13363282254E+02  0.13423494798E+02  0.12700000000E+01 0.  1.
         -4   -1    0    0    0  501 -0.00000000000E+00 -0.00000000000E+00 -0.29159355580E+03  0.29159632145E+03  0.12700000000E+01 0.  1.
         25    2    1    2    0    0  0.00000000000E+00  0.00000000000E+00 -0.27823027354E+03  0.30501981625E+03  0.12500001275E+03 0.  0.
    9000005    1    3    3    0    0  0.10149531954E+02 -0.54842312652E+02 -0.70332163042E+02  0.89768064556E+02  0.10000000000E+01 0.  0.
    9000005    1    3    3    0    0 -0.10149531954E+02  0.54842312652E+02 -0.20789811050E+03  0.21525175169E+03  0.10000000000E+01 0.  0.
<mgrwt>
<rscale>  0 0.12500001E+03</rscale>
<asrwt>0</asrwt>
<pdfrwt beam="1">  1        4 0.20607343E-02 0.12500001E+03</pdfrwt>
<pdfrwt beam="2">  1       -4 0.44865387E-01 0.12500001E+03</pdfrwt>
<totfact> 0.74973427E+03</totfact>
</mgrwt>
</event>
<event>
 5    1  0.3199195E-002  0.1249836E+03  0.7818608E-02  0.1235095E+00
          4   -1    0    0  501    0  0.00000000000E+00  0.00000000000E+00  0.11508488031E+02  0.11578350347E+02  0.12700000000E+01 0. -1.
         -4   -1    0    0    0  501 -0.00000000000E+00 -0.00000000000E+00 -0.33823617564E+03  0.33823855992E+03  0.12700000000E+01 0. -1.
         25    2    1    2    0    0  0.00000000000E+00  0.00000000000E+00 -0.32672768761E+03  0.34981691026E+03  0.12498355433E+03 0.  0.
    9000005    1    3    3    0    0  0.39522534591E+02 -0.40544659545E+02 -0.23732706343E+03  0.24398982601E+03  0.10000000000E+01 0.  0.
    9000005    1    3    3    0    0 -0.39522534591E+02  0.40544659545E+02 -0.89400624182E+02  0.10582708426E+03  0.10000000000E+01 0.  0.
<mgrwt>
<rscale>  0 0.12498355E+03</rscale>
<asrwt>0</asrwt>
<pdfrwt beam="1">  1        4 0.17760943E-02 0.12498355E+03</pdfrwt>
<pdfrwt beam="2">  1       -4 0.52041885E-01 0.12498355E+03</pdfrwt>
<totfact> 0.69770096E+03</totfact>
</mgrwt>
</event>
<event>
 5    1  0.3199195E-002  0.1250030E+03  0.7818608E-02  0.1235065E+00
          4   -1    0    0  501    0  0.00000000000E+00  0.00000000000E+00  0.90606815202E+02  0.90615715309E+02  0.12700000000E+01 0. -1.
         -4   -1    0    0    0  501 -0.00000000000E+00 -0.00000000000E+00 -0.43093791199E+02  0.43112500970E+02  0.12700000000E+01 0. -1.
         25    2    1    2    0    0  0.00000000000E+00  0.00000000000E+00  0.47513024003E+02  0.13372821628E+03  0.12500299348E+03 0.  0.
    9000005    1    3    3    0    0  0.19428456396E+02 -0.21450836529E+02  0.83010631878E+02  0.87916826095E+02  0.10000000000E+01 0.  0.
    9000005    1    3    3    0    0 -0.19428456396E+02  0.21450836529E+02 -0.35497607876E+02  0.45811390184E+02  0.10000000000E+01 0.  0.
<mgrwt>
<rscale>  0 0.12500299E+03</rscale>
<asrwt>0</asrwt>
<pdfrwt beam="1">  1        4 0.13941634E-01 0.12500299E+03</pdfrwt>
<pdfrwt beam="2">  1       -4 0.66319379E-02 0.12500299E+03</pdfrwt>
<totfact> 0.10264254E+04</totfact>
</mgrwt>
</event>
<event>
 5    1  0.3199195E-002  0.1249935E+03  0.7818608E-02  0.1235079E+00
          4   -1    0    0  501    0  0.00000000000E+00  0.00000000000E+00  0.46281142004E+02  0.46298563749E+02  0.12700000000E+01 0. -1.
         -4   -1    0    0    0  501 -0.00000000000E+00 -0.00000000000E+00 -0.84355732729E+02  0.84365292296E+02  0.12700000000E+01 0. -1.
         25    2    1    2    0    0  0.00000000000E+00  0.00000000000E+00 -0.38074590724E+02  0.13066385604E+03  0.12499347510E+03 0.  0.
    9000005    1    3    3    0    0  0.51176915822E+02 -0.30157703843E+02  0.12405948198E+01  0.59423083811E+02  0.10000000000E+01 0.  0.
    9000005    1    3    3    0    0 -0.51176915822E+02  0.30157703843E+02 -0.39315185544E+02  0.71240772234E+02  0.10000000000E+01 0.  0.
<mgrwt>
<rscale>  0 0.12499348E+03</rscale>
<asrwt>0</asrwt>
<pdfrwt beam="1">  1        4 0.71222512E-02 0.12499348E+03</pdfrwt>
<pdfrwt beam="2">  1       -4 0.12979880E-01 0.12499348E+03</pdfrwt>
<totfact> 0.10331822E+04</totfact>
</mgrwt>
</event>
<event>
 5    1  0.3199195E-002  0.1249984E+03  0.7818608E-02  0.1235072E+00
          4   -1    0    0  501    0  0.00000000000E+00  0.00000000000E+00  0.19650510646E+02  0.19691507526E+02  0.12700000000E+01 0.  1.
         -4   -1    0    0    0  501 -0.00000000000E+00 -0.00000000000E+00 -0.19853079695E+03  0.19853485900E+03  0.12700000000E+01 0.  1.
         25    2    1    2    0    0  0.00000000000E+00  0.00000000000E+00 -0.17888028631E+03  0.21822636653E+03  0.12499836086E+03 0.  0.
    9000005    1    3    3    0    0  0.46156685800E+02  0.37181830789E+02 -0.54864726485E+02  0.80771693044E+02  0.10000000000E+01 0.  0.
    9000005    1    3    3    0    0 -0.46156685800E+02 -0.37181830789E+02 -0.12401555982E+03  0.13745467348E+03  0.10000000000E+01 0.  0.
<mgrwt>
<rscale>  0 0.12499836E+03</rscale>
<asrwt>0</asrwt>
<pdfrwt beam="1">  1        4 0.30266217E-02 0.12499836E+03</pdfrwt>
<pdfrwt beam="2">  1       -4 0.30546664E-01 0.12499836E+03</pdfrwt>
<totfact> 0.87152976E+03</totfact>
</mgrwt>
</event>
<event>
 5    1  0.3199195E-002  0.1249940E+03  0.7818608E-02  0.1235079E+00
         -4   -1    0    0    0  501 -0.00000000000E+00  0.00000000000E+00  0.51736698806E+02  0.51752284040E+02  0.12700000000E+01 0. -1.
          4   -1    0    0  501    0  0.00000000000E+00 -0.00000000000E+00 -0.75462987915E+02  0.75473673854E+02  0.12700000000E+01 0. -1.
         25    2    1    2    0    0  0.00000000000E+00  0.00000000000E+00 -0.23726289108E+02  0.12722595789E+03  0.12499403013E+03 0.  0.
    9000005    1    3    3    0    0  0.19860444911E+01 -0.40451685994E+02 -0.60300630965E+02  0.72646055414E+02  0.10000000000E+01 0.  0.
    9000005    1    3    3    0    0 -0.19860444911E+01  0.40451685994E+02  0.36574341857E+02  0.54579902480E+02  0.10000000000E+01 0.  0.
<mgrwt>
<rscale>  0 0.12499403E+03</rscale>
<asrwt>0</asrwt>
<pdfrwt beam="2">  1        4 0.11611711E-01 0.12499403E+03</pdfrwt>
<pdfrwt beam="1">  1       -4 0.79615130E-02 0.12499403E+03</pdfrwt>
<totfact> 0.10405643E+04</totfact>
</mgrwt>
</event>
<event>
 5    1  0.3199195E-002  0.1249985E+03  0.7818608E-02  0.1235072E+00
          4   -1    0    0  501    0  0.00000000000E+00  0.00000000000E+00  0.22738970537E+02  0.22774408468E+02  0.12700000000E+01 0. -1.
         -4   -1    0    0    0  501 -0.00000000000E+00 -0.00000000000E+00 -0.17161087198E+03  0.17161557121E+03  0.12700000000E+01 0. -1.
         25    2    1    2    0    0  0.00000000000E+00  0.00000000000E+00 -0.14887190145E+03  0.19438997968E+03  0.12499848463E+03 0.  0.
    9000005    1    3    3    0    0  0.10380238189E+02 -0.44095196375E+02 -0.14137956144E+03  0.14846318089E+03  0.10000000000E+01 0.  0.
    9000005    1    3    3    0    0 -0.10380238189E+02  0.44095196375E+02 -0.74923400077E+01  0.45926798789E+02  0.10000000000E+01 0.  0.
<mgrwt>
<rscale>  0 0.12499848E+03</rscale>
<asrwt>0</asrwt>
<pdfrwt beam="1">  1        4 0.35013907E-02 0.12499848E+03</pdfrwt>
<pdfrwt beam="2">  1       -4 0.26404759E-01 0.12499848E+03</pdfrwt>
<totfact> 0.91092125E+03</totfact>
</mgrwt>
</event>
<event>
 5    1  0.3199195E-002  0.1249948E+03  0.7818608E-02  0.1235077E+00
          4   -1    0    0  501    0  0.00000000000E+00  0.00000000000E+00  0.10975094614E+03  0.10975829390E+03  0.12700000000E+01 0.  1.
         -4   -1    0    0    0  501 -0.00000000000E+00 -0.00000000000E+00 -0.35569125126E+02  0.35591790658E+02  0.12700000000E+01 0.  1.
         25    2    1    2    0    0  0.00000000000E+00  0.00000000000E+00  0.74181821017E+02  0.14535008456E+03  0.12499481794E+03 0.  0.
    9000005    1    3    3    0    0 -0.24396162884E+01 -0.14721504808E+02 -0.33472573557E+02  0.36661800447E+02  0.10000000000E+01 0.  0.
    9000005    1    3    3    0    0  0.24396162884E+01  0.14721504808E+02  0.10765439457E+03  0.10868828411E+03  0.10000000000E+01 0.  0.
<mgrwt>
<rscale>  0 0.12499482E+03</rscale>
<asrwt>0</asrwt>
<pdfrwt beam="1">  1        4 0.16887069E-01 0.12499482E+03</pdfrwt>
<pdfrwt beam="2">  1       -4 0.54744819E-02 0.12499482E+03</pdfrwt>
<totfact> 0.10025050E+04</totfact>
</mgrwt>
</event>
<event>
 4    1  0.3199195E-002  0.1250692E+03  0.7818608E-02  0.1234961E+00
         -4   -1    0    0    0  501 -0.00000000000E+00  0.00000000000E+00  0.22965325709E+03  0.22965676866E+03  0.12700000000E+01 0.  1.
          4   -1    0    0  501    0  0.00000000000E+00 -0.00000000000E+00 -0.17000850950E+02  0.17048220817E+02  0.12700000000E+01 0.  1.
    9000005    1    1    2    0    0 -0.24260250526E+00 -0.56790693146E+02  0.54724758258E+02  0.78873575108E+02  0.10000000000E+01 0.  0.
    9000005    1    1    2    0    0  0.24260250526E+00  0.56790693146E+02  0.15792764788E+03  0.16783141437E+03  0.10000000000E+01 0.  0.
<mgrwt>
<rscale>  0 0.12506920E+03</rscale>
<asrwt>0</asrwt>
<pdfrwt beam="2">  1        4 0.26194295E-02 0.12506920E+03</pdfrwt>
<pdfrwt beam="1">  1       -4 0.35335184E-01 0.12506920E+03</pdfrwt>
<totfact> 0.82681239E+03</totfact>
</mgrwt>
</event>
<event>
 5    1  0.3199195E-002  0.1250018E+03  0.7818608E-02  0.1235066E+00
          4   -1    0    0  501    0  0.00000000000E+00  0.00000000000E+00  0.71775774508E+02  0.71787009313E+02  0.12700000000E+01 0.  1.
         -4   -1    0    0    0  501 -0.00000000000E+00 -0.00000000000E+00 -0.54401614580E+02  0.54416436570E+02  0.12700000000E+01 0.  1.
         25    2    1    2    0    0  0.00000000000E+00  0.00000000000E+00  0.17374159927E+02  0.12620344588E+03  0.12500179327E+03 0.  0.
    9000005    1    3    3    0    0 -0.17833000772E+02 -0.46328759085E+02  0.47012400122E+02  0.68377888240E+02  0.10000000000E+01 0.  0.
    9000005    1    3    3    0    0  0.17833000772E+02  0.46328759085E+02 -0.29638240194E+02  0.57825557643E+02  0.10000000000E+01 0.  0.
<mgrwt>
<rscale>  0 0.12500179E+03</rscale>
<asrwt>0</asrwt>
<pdfrwt beam="1">  1        4 0.11044431E-01 0.12500179E+03</pdfrwt>
<pdfrwt beam="2">  1       -4 0.83714836E-02 0.12500179E+03</pdfrwt>
<totfact> 0.10426082E+04</totfact>
</mgrwt>
</event>
<event>
 5    1  0.3199195E-002  0.1249983E+03  0.7818608E-02  0.1235072E+00
          4   -1    0    0  501    0  0.00000000000E+00  0.00000000000E+00  0.33367918378E+03  0.33368160062E+03  0.12700000000E+01 0. -1.
         -4   -1    0    0    0  501 -0.00000000000E+00 -0.00000000000E+00 -0.11669367146E+02  0.11738272002E+02  0.12700000000E+01 0. -1.
         25    2    1    2    0    0  0.00000000000E+00  0.00000000000E+00  0.32200981664E+03  0.34541987262E+03  0.12499826554E+03 0.  0.
    9000005    1    3    3    0    0 -0.22850771585E+02 -0.54229042218E+02  0.21911481205E+03  0.22688157184E+03  0.10000000000E+01 0.  0.
    9000005    1    3    3    0    0  0.22850771585E+02  0.54229042218E+02  0.10289500458E+03  0.11853830077E+03  0.10000000000E+01 0.  0.
<mgrwt>
<rscale>  0 0.12499827E+03</rscale>
<asrwt>0</asrwt>
<pdfrwt beam="1">  1        4 0.51340738E-01 0.12499827E+03</pdfrwt>
<pdfrwt beam="2">  1       -4 0.18007738E-02 0.12499827E+03</pdfrwt>
<totfact> 0.70234082E+03</totfact>
</mgrwt>
</event>
<event>
 5    1  0.3199195E-002  0.1249997E+03  0.7818608E-02  0.1235070E+00
         -4   -1    0    0    0  501 -0.00000000000E+00  0.00000000000E+00  0.15475133161E+02  0.15527158348E+02  0.12700000000E+01 0. -1.
          4   -1    0    0  501    0  0.00000000000E+00 -0.00000000000E+00 -0.25194272920E+03  0.25194593010E+03  0.12700000000E+01 0. -1.
         25    2    1    2    0    0  0.00000000000E+00  0.00000000000E+00 -0.23646759604E+03  0.26747308845E+03  0.12499971628E+03 0.  0.
    9000005    1    3    3    0    0  0.27386945502E+02 -0.20036018620E+02 -0.59458977551E+01  0.34465062399E+02  0.10000000000E+01 0.  0.
    9000005    1    3    3    0    0 -0.27386945502E+02  0.20036018620E+02 -0.23052169828E+03  0.23300802605E+03  0.10000000000E+01 0.  0.
<mgrwt>
<rscale>  0 0.12499972E+03</rscale>
<asrwt>0</asrwt>
<pdfrwt beam="2">  1        4 0.38764665E-01 0.12499972E+03</pdfrwt>
<pdfrwt beam="1">  1       -4 0.23850381E-02 0.12499972E+03</pdfrwt>
<totfact> 0.79869130E+03</totfact>
</mgrwt>
</event>
<event>
 5    1  0.3199195E-002  0.1249999E+03  0.7818608E-02  0.1235069E+00
         -4   -1    0    0    0  501 -0.00000000000E+00  0.00000000000E+00  0.15814536472E+03  0.15815046406E+03  0.12700000000E+01 0. -1.
          4   -1    0    0  501    0  0.00000000000E+00 -0.00000000000E+00 -0.24678510825E+02  0.24711167446E+02  0.12700000000E+01 0. -1.
         25    2    1    2    0    0  0.00000000000E+00  0.00000000000E+00  0.13346685389E+03  0.18286163150E+03  0.12499990075E+03 0.  0.
    9000005    1    3    3    0    0 -0.20348709987E+02 -0.17851902053E+02  0.14913065480E+03  0.15157081713E+03  0.10000000000E+01 0.  0.
    9000005    1    3    3    0    0  0.20348709987E+02  0.17851902053E+02 -0.15663800908E+02  0.31290814370E+02  0.10000000000E+01 0.  0.
<mgrwt>
<rscale>  0 0.12499990E+03</rscale>
<asrwt>0</asrwt>
<pdfrwt beam="2">  1        4 0.37995983E-02 0.12499990E+03</pdfrwt>
<pdfrwt beam="1">  1       -4 0.24332961E-01 0.12499990E+03</pdfrwt>
<totfact> 0.93104628E+03</totfact>
</mgrwt>
</event>
<event>
 5    1  0.3199195E-002  0.1249981E+03  0.7818608E-02  0.1235072E+00
         -4   -1    0    0    0  501 -0.00000000000E+00  0.00000000000E+00  0.16366986509E+03  0.16367479232E+03  0.12700000000E+01 0. -1.
          4   -1    0    0  501    0  0.00000000000E+00 -0.00000000000E+00 -0.23843719641E+02  0.23877518010E+02  0.12700000000E+01 0. -1.
         25    2    1    2    0    0  0.00000000000E+00  0.00000000000E+00  0.13982614545E+03  0.18755231033E+03  0.12499807261E+03 0.  0.
    9000005    1    3    3    0    0  0.19080367486E+02  0.44603884214E+02  0.10810857779E+02  0.49713595286E+02  0.10000000000E+01 0.  0.
    9000005    1    3    3    0    0 -0.19080367486E+02 -0.44603884214E+02  0.12901528767E+03  0.13783871504E+03  0.10000000000E+01 0.  0.
<mgrwt>
<rscale>  0 0.12499807E+03</rscale>
<asrwt>0</asrwt>
<pdfrwt beam="2">  1        4 0.36712434E-02 0.12499807E+03</pdfrwt>
<pdfrwt beam="1">  1       -4 0.25182959E-01 0.12499807E+03</pdfrwt>
<totfact> 0.92278941E+03</totfact>
</mgrwt>
</event>
<event>
 5    1  0.3199195E-002  0.1249967E+03  0.7818608E-02  0.1235074E+00
          4   -1    0    0  501    0  0.00000000000E+00  0.00000000000E+00  0.32822910705E+02  0.32847471245E+02  0.12700000000E+01 0. -1.
         -4   -1    0    0    0  501 -0.00000000000E+00 -0.00000000000E+00 -0.11893118932E+03  0.11893796994E+03  0.12700000000E+01 0. -1.
         25    2    1    2    0    0  0.00000000000E+00  0.00000000000E+00 -0.86108278612E+02  0.15178544118E+03  0.12499673799E+03 0.  0.
    9000005    1    3    3    0    0  0.18958045294E+02 -0.44430014644E+02 -0.91193926634E+02  0.10320254812E+03  0.10000000000E+01 0.  0.
    9000005    1    3    3    0    0 -0.18958045294E+02  0.44430014644E+02  0.50856480221E+01  0.48582893064E+02  0.10000000000E+01 0.  0.
<mgrwt>
<rscale>  0 0.12499674E+03</rscale>
<asrwt>0</asrwt>
<pdfrwt beam="1">  1        4 0.50520895E-02 0.12499674E+03</pdfrwt>
<pdfrwt beam="2">  1       -4 0.18299517E-01 0.12499674E+03</pdfrwt>
<totfact> 0.98956244E+03</totfact>
</mgrwt>
</event>
<event>
 5    1  0.3199195E-002  0.1249961E+03  0.7818608E-02  0.1235075E+00
          4   -1    0    0  501    0  0.00000000000E+00  0.00000000000E+00  0.32779639071E+02  0.32804232008E+02  0.12700000000E+01 0. -1.
         -4   -1    0    0    0  501 -0.00000000000E+00 -0.00000000000E+00 -0.11908690997E+03  0.11909368173E+03  0.12700000000E+01 0. -1.
         25    2    1    2    0    0  0.00000000000E+00  0.00000000000E+00 -0.86307270904E+02  0.15189791374E+03  0.12499612468E+03 0.  0.
    9000005    1    3    3    0    0 -0.33253725195E+00  0.57827453448E+02 -0.71933671810E+02  0.92301560623E+02  0.10000000000E+01 0.  0.
    9000005    1    3    3    0    0  0.33253725195E+00 -0.57827453448E+02 -0.14373599094E+02  0.59596353112E+02  0.10000000000E+01 0.  0.
<mgrwt>
<rscale>  0 0.12499612E+03</rscale>
<asrwt>0</asrwt>
<pdfrwt beam="1">  1        4 0.50454341E-02 0.12499612E+03</pdfrwt>
<pdfrwt beam="2">  1       -4 0.18323476E-01 0.12499612E+03</pdfrwt>
<totfact> 0.98935341E+03</totfact>
</mgrwt>
</event>
<event>
 5    1  0.3199195E-002  0.1249985E+03  0.7818608E-02  0.1235072E+00
         -4   -1    0    0    0  501 -0.00000000000E+00  0.00000000000E+00  0.25170822650E+03  0.25171143039E+03  0.12700000000E+01 0. -1.
          4   -1    0    0  501    0  0.00000000000E+00 -0.00000000000E+00 -0.15489285449E+02  0.15541263260E+02  0.12700000000E+01 0. -1.
         25    2    1    2    0    0  0.00000000000E+00  0.00000000000E+00  0.23621894105E+03  0.26725269365E+03  0.12499845659E+03 0.  0.
    9000005    1    3    3    0    0 -0.16372388171E+01 -0.58896543594E+02  0.73585160273E+02  0.94272261088E+02  0.10000000000E+01 0.  0.
    9000005    1    3    3    0    0  0.16372388171E+01  0.58896543594E+02  0.16263378078E+03  0.17298043256E+03  0.10000000000E+01 0.  0.
<mgrwt>
<rscale>  0 0.12499846E+03</rscale>
<asrwt>0</asrwt>
<pdfrwt beam="2">  1        4 0.23872119E-02 0.12499846E+03</pdfrwt>
<pdfrwt beam="1">  1       -4 0.38728585E-01 0.12499846E+03</pdfrwt>
<totfact> 0.79901645E+03</totfact>
</mgrwt>
</event>
<event>
 5    1  0.3199195E-002  0.1250017E+03  0.7818608E-02  0.1235067E+00
          4   -1    0    0  501    0  0.00000000000E+00  0.00000000000E+00  0.25675656416E+02  0.25707046357E+02  0.12700000000E+01 0. -1.
         -4   -1    0    0    0  501 -0.00000000000E+00 -0.00000000000E+00 -0.15201537235E+03  0.15202067731E+03  0.12700000000E+01 0. -1.
         25    2    1    2    0    0  0.00000000000E+00  0.00000000000E+00 -0.12633971593E+03  0.17772772367E+03  0.12500167974E+03 0.  0.
    9000005    1    3    3    0    0  0.44753501314E+02 -0.40089178917E+02 -0.38735657071E+02  0.71494540175E+02  0.10000000000E+01 0.  0.
    9000005    1    3    3    0    0 -0.44753501314E+02  0.40089178917E+02 -0.87604058858E+02  0.10623318349E+03  0.10000000000E+01 0.  0.
<mgrwt>
<rscale>  0 0.12500168E+03</rscale>
<asrwt>0</asrwt>
<pdfrwt beam="1">  1        4 0.39529237E-02 0.12500168E+03</pdfrwt>
<pdfrwt beam="2">  1       -4 0.23389803E-01 0.12500168E+03</pdfrwt>
<totfact> 0.94024085E+03</totfact>
</mgrwt>
</event>
<event>
 5    1  0.3199195E-002  0.1249984E+03  0.7818608E-02  0.1235072E+00
          4   -1    0    0  501    0  0.00000000000E+00  0.00000000000E+00  0.22843011153E+01  0.26136050936E+01  0.12700000000E+01 0.  1.
         -4   -1    0    0    0  501 -0.00000000000E+00 -0.00000000000E+00 -0.15946998202E+04  0.15947003260E+04  0.12700000000E+01 0.  1.
         25    2    1    2    0    0  0.00000000000E+00  0.00000000000E+00 -0.15924155191E+04  0.15973139311E+04  0.12499843497E+03 0.  0.
    9000005    1    3    3    0    0 -0.50197643870E+02  0.21728711058E+02 -0.11823714832E+04  0.11836364579E+04  0.10000000000E+01 0.  0.
    9000005    1    3    3    0    0  0.50197643870E+02 -0.21728711058E+02 -0.41004403598E+03  0.41367747313E+03  0.10000000000E+01 0.  0.
<mgrwt>
<rscale>  0 0.12499843E+03</rscale>
<asrwt>0</asrwt>
<pdfrwt beam="1">  1        4 0.37680219E-03 0.12499843E+03</pdfrwt>
<pdfrwt beam="2">  1       -4 0.24536297E+00 0.12499843E+03</pdfrwt>
<totfact> 0.16095337E+03</totfact>
</mgrwt>
</event>
<event>
 5    1  0.3199195E-002  0.1249982E+03  0.7818608E-02  0.1235072E+00
          4   -1    0    0  501    0  0.00000000000E+00  0.00000000000E+00  0.82058826951E+01  0.83035781929E+01  0.12700000000E+01 0.  1.
         -4   -1    0    0    0  501 -0.00000000000E+00 -0.00000000000E+00 -0.47310156979E+03  0.47310327439E+03  0.12700000000E+01 0.  1.
         25    2    1    2    0    0  0.00000000000E+00  0.00000000000E+00 -0.46489568710E+03  0.48140685258E+03  0.12499823132E+03 0.  0.
    9000005    1    3    3    0    0 -0.39018102494E+02  0.21794602066E+02 -0.64232349271E+02  0.78257342751E+02  0.10000000000E+01 0.  0.
    9000005    1    3    3    0    0  0.39018102494E+02 -0.21794602066E+02 -0.40066333783E+03  0.40314950983E+03  0.10000000000E+01 0.  0.
<mgrwt>
<rscale>  0 0.12499823E+03</rscale>
<asrwt>0</asrwt>
<pdfrwt beam="1">  1        4 0.12700900E-02 0.12499823E+03</pdfrwt>
<pdfrwt beam="2">  1       -4 0.72792482E-01 0.12499823E+03</pdfrwt>
<totfact> 0.57338626E+03</totfact>
</mgrwt>
</event>
<event>
 5    1  0.3199195E-002  0.1250007E+03  0.7818608E-02  0.1235068E+00
          4   -1    0    0  501    0  0.00000000000E+00  0.00000000000E+00  0.30736624236E+02  0.30762850476E+02  0.12700000000E+01 0. -1.
         -4   -1    0    0    0  501 -0.00000000000E+00 -0.00000000000E+00 -0.12700561475E+03  0.12701196431E+03  0.12700000000E+01 0. -1.
         25    2    1    2    0    0  0.00000000000E+00  0.00000000000E+00 -0.96268990514E+02  0.15777481479E+03  0.12500069458E+03 0.  0.
    9000005    1    3    3    0    0 -0.54858561975E+02  0.25806009839E+02 -0.28997347383E+02  0.67210550668E+02  0.10000000000E+01 0.  0.
    9000005    1    3    3    0    0  0.54858561975E+02 -0.25806009839E+02 -0.67271643131E+02  0.90564264119E+02  0.10000000000E+01 0.  0.
<mgrwt>
<rscale>  0 0.12500069E+03</rscale>
<asrwt>0</asrwt>
<pdfrwt beam="1">  1        4 0.47312173E-02 0.12500069E+03</pdfrwt>
<pdfrwt beam="2">  1       -4 0.19541831E-01 0.12500069E+03</pdfrwt>
<totfact> 0.97771979E+03</totfact>
</mgrwt>
</event>
<event>
 5    1  0.3199195E-002  0.1250024E+03  0.7818608E-02  0.1235066E+00
          4   -1    0    0  501    0  0.00000000000E+00  0.00000000000E+00  0.50274569225E+02  0.50290607580E+02  0.12700000000E+01 0. -1.
         -4   -1    0    0    0  501 -0.00000000000E+00 -0.00000000000E+00 -0.77667702291E+02  0.77678084935E+02  0.12700000000E+01 0. -1.
         25    2    1    2    0    0  0.00000000000E+00  0.00000000000E+00 -0.27393133066E+02  0.12796869251E+03  0.12500241008E+03 0.  0.
    9000005    1    3    3    0    0 -0.50785116406E+02 -0.81507210598E+01  0.22639905180E+02  0.56206117182E+02  0.10000000000E+01 0.  0.
    9000005    1    3    3    0    0  0.50785116406E+02  0.81507210598E+01 -0.50033038246E+02  0.71762575332E+02  0.10000000000E+01 0.  0.
<mgrwt>
<rscale>  0 0.12500241E+03</rscale>
<asrwt>0</asrwt>
<pdfrwt beam="1">  1        4 0.77365815E-02 0.12500241E+03</pdfrwt>
<pdfrwt beam="2">  1       -4 0.11950910E-01 0.12500241E+03</pdfrwt>
<totfact> 0.10387599E+04</totfact>
</mgrwt>
</event>
<event>
 5    1  0.3199195E-002  0.1250140E+03  0.7818608E-02  0.1235047E+00
          4   -1    0    0  501    0  0.00000000000E+00  0.00000000000E+00  0.12710051312E+04  0.12710057657E+04  0.12700000000E+01 0. -1.
         -4   -1    0    0    0  501 -0.00000000000E+00 -0.00000000000E+00 -0.29422098439E+01  0.32046058674E+01  0.12700000000E+01 0. -1.
         25    2    1    2    0    0  0.00000000000E+00  0.00000000000E+00  0.12680629214E+04  0.12742103716E+04  0.12501399316E+03 0.  0.
    9000005    1    3    3    0    0 -0.36259928780E+02  0.50213416075E+02  0.71928098993E+03  0.72194342719E+03  0.10000000000E+01 0.  0.
    9000005    1    3    3    0    0  0.36259928780E+02 -0.50213416075E+02  0.54878193146E+03  0.55226694440E+03  0.10000000000E+01 0.  0.
<mgrwt>
<rscale>  0 0.12501399E+03</rscale>
<asrwt>0</asrwt>
<pdfrwt beam="1">  1        4 0.19555969E+00 0.12501399E+03</pdfrwt>
<pdfrwt beam="2">  1       -4 0.47288028E-03 0.12501399E+03</pdfrwt>
<totfact> 0.22838492E+03</totfact>
</mgrwt>
</event>
<event>
 5    1  0.3199195E-002  0.1249981E+03  0.7818608E-02  0.1235072E+00
          4   -1    0    0  501    0  0.00000000000E+00  0.00000000000E+00  0.18507848250E+02  0.18551370484E+02  0.12700000000E+01 0.  1.
         -4   -1    0    0    0  501 -0.00000000000E+00 -0.00000000000E+00 -0.21075939194E+03  0.21076321831E+03  0.12700000000E+01 0.  1.
         25    2    1    2    0    0  0.00000000000E+00  0.00000000000E+00 -0.19225154369E+03  0.22931458879E+03  0.12499809831E+03 0.  0.
    9000005    1    3    3    0    0 -0.38762258889E+02  0.35871935547E+02 -0.15740677554E+03  0.16603373591E+03  0.10000000000E+01 0.  0.
    9000005    1    3    3    0    0  0.38762258889E+02 -0.35871935547E+02 -0.34844768150E+02  0.63280852882E+02  0.10000000000E+01 0.  0.
<mgrwt>
<rscale>  0 0.12499810E+03</rscale>
<asrwt>0</asrwt>
<pdfrwt beam="1">  1        4 0.28510036E-02 0.12499810E+03</pdfrwt>
<pdfrwt beam="2">  1       -4 0.32428162E-01 0.12499810E+03</pdfrwt>
<totfact> 0.85418579E+03</totfact>
</mgrwt>
</event>
<event>
 5    1  0.3199195E-002  0.1250041E+03  0.7818608E-02  0.1235063E+00
         -4   -1    0    0    0  501 -0.00000000000E+00  0.00000000000E+00  0.12967056071E+04  0.12967062291E+04  0.12700000000E+01 0. -1.
          4   -1    0    0  501    0  0.00000000000E+00 -0.00000000000E+00 -0.28781422426E+01  0.31458866427E+01  0.12700000000E+01 0. -1.
         25    2    1    2    0    0  0.00000000000E+00  0.00000000000E+00  0.12938274649E+04  0.12998521157E+04  0.12500405505E+03 0.  0.
    9000005    1    3    3    0    0  0.62481391991E+02 -0.11018536271E+01  0.64063130986E+03  0.64367275350E+03  0.10000000000E+01 0.  0.
    9000005    1    3    3    0    0 -0.62481391991E+02  0.11018536271E+01  0.65319615504E+03  0.65617936220E+03  0.10000000000E+01 0.  0.
<mgrwt>
<rscale>  0 0.12500406E+03</rscale>
<asrwt>0</asrwt>
<pdfrwt beam="2">  1        4 0.46343463E-03 0.12500406E+03</pdfrwt>
<pdfrwt beam="1">  1       -4 0.19951383E+00 0.12500406E+03</pdfrwt>
<totfact> 0.22230034E+03</totfact>
</mgrwt>
</event>
<event>
 5    1  0.3199195E-002  0.1249991E+03  0.7818608E-02  0.1235071E+00
          4   -1    0    0  501    0  0.00000000000E+00  0.00000000000E+00  0.51019483768E+03  0.51019641835E+03  0.12700000000E+01 0.  1.
         -4   -1    0    0    0  501 -0.00000000000E+00 -0.00000000000E+00 -0.76020045078E+01  0.77073583371E+01  0.12700000000E+01 0.  1.
         25    2    1    2    0    0  0.00000000000E+00  0.00000000000E+00  0.50259283317E+03  0.51790377668E+03  0.12499906379E+03 0.  0.
    9000005    1    3    3    0    0  0.50779012709E+02 -0.28595869215E+02  0.34476894301E+03  0.34966105864E+03  0.10000000000E+01 0.  0.
    9000005    1    3    3    0    0 -0.50779012709E+02  0.28595869215E+02  0.15782389016E+03  0.16824271804E+03  0.10000000000E+01 0.  0.
<mgrwt>
<rscale>  0 0.12499906E+03</rscale>
<asrwt>0</asrwt>
<pdfrwt beam="1">  1        4 0.78499738E-01 0.12499906E+03</pdfrwt>
<pdfrwt beam="2">  1       -4 0.11777649E-02 0.12499906E+03</pdfrwt>
<totfact> 0.54502649E+03</totfact>
</mgrwt>
</event>
<event>
 5    1  0.3199195E-002  0.1250024E+03  0.7818608E-02  0.1235065E+00
          4   -1    0    0  501    0  0.00000000000E+00  0.00000000000E+00  0.14425607809E+01  0.19219473475E+01  0.12700000000E+01 0.  1.
         -4   -1    0    0    0  501 -0.00000000000E+00 -0.00000000000E+00 -0.23216447605E+04  0.23216451079E+04  0.12700000000E+01 0.  1.
         25    2    1    2    0    0  0.00000000000E+00  0.00000000000E+00 -0.23202021997E+04  0.23235670552E+04  0.12500244986E+03 0.  0.
    9000005    1    3    3    0    0 -0.49947818414E+02 -0.19654178108E+02 -0.17550189790E+04  0.17558398810E+04  0.10000000000E+01 0.  0.
    9000005    1    3    3    0    0  0.49947818414E+02  0.19654178108E+02 -0.56518322074E+03  0.56772717416E+03  0.10000000000E+01 0.  0.
<mgrwt>
<rscale>  0 0.12500245E+03</rscale>
<asrwt>0</asrwt>
<pdfrwt beam="1">  1        4 0.25883689E-03 0.12500245E+03</pdfrwt>
<pdfrwt beam="2">  1       -4 0.35721046E+00 0.12500245E+03</pdfrwt>
<totfact> 0.62071615E+02</totfact>
</mgrwt>
</event>
<event>
 5    1  0.3199195E-002  0.1250016E+03  0.7818608E-02  0.1235067E+00
          4   -1    0    0  501    0  0.00000000000E+00  0.00000000000E+00  0.22024361327E+02  0.22060947212E+02  0.12700000000E+01 0.  1.
         -4   -1    0    0    0  501 -0.00000000000E+00 -0.00000000000E+00 -0.17717885291E+03  0.17718340447E+03  0.12700000000E+01 0.  1.
         25    2    1    2    0    0  0.00000000000E+00  0.00000000000E+00 -0.15515449158E+03  0.19924435168E+03  0.12500158166E+03 0.  0.
    9000005    1    3    3    0    0 -0.48386723677E+02  0.38971937230E+02 -0.66853733166E+02  0.91271619674E+02  0.10000000000E+01 0.  0.
    9000005    1    3    3    0    0  0.48386723677E+02 -0.38971937230E+02 -0.88300758417E+02  0.10797273201E+03  0.10000000000E+01 0.  0.
<mgrwt>
<rscale>  0 0.12500158E+03</rscale>
<asrwt>0</asrwt>
<pdfrwt beam="1">  1        4 0.33915278E-02 0.12500158E+03</pdfrwt>
<pdfrwt beam="2">  1       -4 0.27261449E-01 0.12500158E+03</pdfrwt>
<totfact> 0.90259915E+03</totfact>
</mgrwt>
</event>
<event>
 5    1  0.3199195E-002  0.1250014E+03  0.7818608E-02  0.1235067E+00
         -4   -1    0    0    0  501 -0.00000000000E+00  0.00000000000E+00  0.84852594775E+03  0.84852689816E+03  0.12700000000E+01 0.  1.
          4   -1    0    0  501    0  0.00000000000E+00 -0.00000000000E+00 -0.45151128944E+01  0.46903245569E+01  0.12700000000E+01 0.  1.
         25    2    1    2    0    0  0.00000000000E+00  0.00000000000E+00  0.84401083486E+03  0.85321722272E+03  0.12500135916E+03 0.  0.
    9000005    1    3    3    0    0 -0.52595234736E+02 -0.30304295561E+02  0.52341325636E+03  0.52692223903E+03  0.10000000000E+01 0.  0.
    9000005    1    3    3    0    0  0.52595234736E+02  0.30304295561E+02  0.32059757849E+03  0.32629498369E+03  0.10000000000E+01 0.  0.
<mgrwt>
<rscale>  0 0.12500136E+03</rscale>
<asrwt>0</asrwt>
<pdfrwt beam="2">  1        4 0.70818408E-03 0.12500136E+03</pdfrwt>
<pdfrwt beam="1">  1       -4 0.13055593E+00 0.12500136E+03</pdfrwt>
<totfact> 0.35994981E+03</totfact>
</mgrwt>
</event>
<event>
 5    1  0.3199195E-002  0.1250005E+03  0.7818608E-02  0.1235069E+00
          4   -1    0    0  501    0  0.00000000000E+00  0.00000000000E+00  0.84369181214E+02  0.84378739258E+02  0.12700000000E+01 0. -1.
         -4   -1    0    0    0  501 -0.00000000000E+00 -0.00000000000E+00 -0.46278930399E+02  0.46296352976E+02  0.12700000000E+01 0. -1.
         25    2    1    2    0    0  0.00000000000E+00  0.00000000000E+00  0.38090250815E+02  0.13067509223E+03  0.12500045009E+03 0.  0.
    9000005    1    3    3    0    0 -0.23233247963E+02 -0.33985726853E+02 -0.30104818833E+02  0.51010916063E+02  0.10000000000E+01 0.  0.
    9000005    1    3    3    0    0  0.23233247963E+02  0.33985726853E+02  0.68195069648E+02  0.79664176171E+02  0.10000000000E+01 0.  0.
<mgrwt>
<rscale>  0 0.12500045E+03</rscale>
<asrwt>0</asrwt>
<pdfrwt beam="1">  1        4 0.12981949E-01 0.12500045E+03</pdfrwt>
<pdfrwt beam="2">  1       -4 0.71219109E-02 0.12500045E+03</pdfrwt>
<totfact> 0.10329955E+04</totfact>
</mgrwt>
</event>
<event>
 5    1  0.3199195E-002  0.1249989E+03  0.7818608E-02  0.1235071E+00
         -4   -1    0    0    0  501 -0.00000000000E+00  0.00000000000E+00  0.90562331727E+01  0.91448487837E+01  0.12700000000E+01 0. -1.
          4   -1    0    0  501    0  0.00000000000E+00 -0.00000000000E+00 -0.42913567272E+03  0.42913755196E+03  0.12700000000E+01 0. -1.
         25    2    1    2    0    0  0.00000000000E+00  0.00000000000E+00 -0.42007943955E+03  0.43828240074E+03  0.12499890907E+03 0.  0.
    9000005    1    3    3    0    0 -0.89426466503E+01  0.61611747525E+02 -0.19109165203E+03  0.20098009314E+03  0.10000000000E+01 0.  0.
    9000005    1    3    3    0    0  0.89426466503E+01 -0.61611747525E+02 -0.22898778751E+03  0.23730230760E+03  0.10000000000E+01 0.  0.
<mgrwt>
<rscale>  0 0.12499891E+03</rscale>
<asrwt>0</asrwt>
<pdfrwt beam="2">  1        4 0.66027818E-01 0.12499891E+03</pdfrwt>
<pdfrwt beam="1">  1       -4 0.14002281E-02 0.12499891E+03</pdfrwt>
<totfact> 0.60993825E+03</totfact>
</mgrwt>
</event>
<event>
 5    1  0.3199195E-002  0.1249994E+03  0.7818608E-02  0.1235070E+00
          4   -1    0    0  501    0  0.00000000000E+00  0.00000000000E+00  0.22040119155E+02  0.22076678925E+02  0.12700000000E+01 0.  1.
         -4   -1    0    0    0  501 -0.00000000000E+00 -0.00000000000E+00 -0.17704633489E+03  0.17705088985E+03  0.12700000000E+01 0.  1.
         25    2    1    2    0    0  0.00000000000E+00  0.00000000000E+00 -0.15500621573E+03  0.19912756878E+03  0.12499944692E+03 0.  0.
    9000005    1    3    3    0    0  0.28211118194E+02  0.16808815034E+02 -0.16220083604E+03  0.16549475721E+03  0.10000000000E+01 0.  0.
    9000005    1    3    3    0    0 -0.28211118194E+02 -0.16808815034E+02  0.71946203051E+01  0.33632811567E+02  0.10000000000E+01 0.  0.
<mgrwt>
<rscale>  0 0.12499945E+03</rscale>
<asrwt>0</asrwt>
<pdfrwt beam="1">  1        4 0.33939503E-02 0.12499945E+03</pdfrwt>
<pdfrwt beam="2">  1       -4 0.27241060E-01 0.12499945E+03</pdfrwt>
<totfact> 0.90283976E+03</totfact>
</mgrwt>
</event>
<event>
 5    1  0.3199195E-002  0.1250296E+03  0.7818608E-02  0.1235023E+00
         -4   -1    0    0    0  501 -0.00000000000E+00  0.00000000000E+00  0.27639034082E+02  0.27668196634E+02  0.12700000000E+01 0. -1.
          4   -1    0    0  501    0  0.00000000000E+00 -0.00000000000E+00 -0.14129119298E+03  0.14129690058E+03  0.12700000000E+01 0. -1.
         25    2    1    2    0    0  0.00000000000E+00  0.00000000000E+00 -0.11365215890E+03  0.16896509722E+03  0.12502955992E+03 0.  0.
    9000005    1    3    3    0    0 -0.38791395480E+02  0.48574858147E+02 -0.65668055573E+02  0.90429988002E+02  0.10000000000E+01 0.  0.
    9000005    1    3    3    0    0  0.38791395480E+02 -0.48574858147E+02 -0.47984103329E+02  0.78535109216E+02  0.10000000000E+01 0.  0.
<mgrwt>
<rscale>  0 0.12502956E+03</rscale>
<asrwt>0</asrwt>
<pdfrwt beam="2">  1        4 0.21739789E-01 0.12502956E+03</pdfrwt>
<pdfrwt beam="1">  1       -4 0.42548415E-02 0.12502956E+03</pdfrwt>
<totfact> 0.95578235E+03</totfact>
</mgrwt>
</event>
<event>
 5    1  0.3199195E-002  0.1250000E+03  0.7818608E-02  0.1235069E+00
         -4   -1    0    0    0  501 -0.00000000000E+00  0.00000000000E+00  0.34073783944E+02  0.34097443485E+02  0.12700000000E+01 0. -1.
          4   -1    0    0  501    0  0.00000000000E+00 -0.00000000000E+00 -0.11457393753E+03  0.11458097600E+03  0.12700000000E+01 0. -1.
         25    2    1    2    0    0  0.00000000000E+00  0.00000000000E+00 -0.80500153588E+02  0.14867841949E+03  0.12499999077E+03 0.  0.
    9000005    1    3    3    0    0 -0.37576623776E+02  0.45041924552E+02 -0.14616002944E+02  0.60459946773E+02  0.10000000000E+01 0.  0.
    9000005    1    3    3    0    0  0.37576623776E+02 -0.45041924552E+02 -0.65884150644E+02  0.88218472713E+02  0.10000000000E+01 0.  0.
<mgrwt>
<rscale>  0 0.12499999E+03</rscale>
<asrwt>0</asrwt>
<pdfrwt beam="2">  1        4 0.17629121E-01 0.12499999E+03</pdfrwt>
<pdfrwt beam="1">  1       -4 0.52444820E-02 0.12499999E+03</pdfrwt>
<totfact> 0.99567811E+03</totfact>
</mgrwt>
</event>
<event>
 5    1  0.3199195E-002  0.1250002E+03  0.7818608E-02  0.1235069E+00
         -4   -1    0    0    0  501 -0.00000000000E+00  0.00000000000E+00  0.15288504072E+03  0.15289031550E+03  0.12700000000E+01 0.  1.
          4   -1    0    0  501    0  0.00000000000E+00 -0.00000000000E+00 -0.25528837419E+02  0.25560407665E+02  0.12700000000E+01 0.  1.
         25    2    1    2    0    0  0.00000000000E+00  0.00000000000E+00  0.12735620330E+03  0.17845072317E+03  0.12500023232E+03 0.  0.
    9000005    1    3    3    0    0 -0.24343331062E+02 -0.56783277278E+02  0.50261201029E+02  0.79650026206E+02  0.10000000000E+01 0.  0.
    9000005    1    3    3    0    0  0.24343331062E+02  0.56783277278E+02  0.77095002269E+02  0.98800696964E+02  0.10000000000E+01 0.  0.
<mgrwt>
<rscale>  0 0.12500023E+03</rscale>
<asrwt>0</asrwt>
<pdfrwt beam="2">  1        4 0.39303477E-02 0.12500023E+03</pdfrwt>
<pdfrwt beam="1">  1       -4 0.23523609E-01 0.12500023E+03</pdfrwt>
<totfact> 0.93896134E+03</totfact>
</mgrwt>
</event>
<event>
 5    1  0.3199195E-002  0.1249992E+03  0.7818608E-02  0.1235071E+00
         -4   -1    0    0    0  501 -0.00000000000E+00  0.00000000000E+00  0.14219129552E+02  0.14275732738E+02  0.12700000000E+01 0. -1.
          4   -1    0    0  501    0  0.00000000000E+00 -0.00000000000E+00 -0.27411066654E+03  0.27411360858E+03  0.12700000000E+01 0. -1.
         25    2    1    2    0    0  0.00000000000E+00  0.00000000000E+00 -0.25989153698E+03  0.28838934132E+03  0.12499920476E+03 0.  0.
    9000005    1    3    3    0    0  0.34277631839E+01  0.23664515466E+02 -0.26315010708E+03  0.26423614005E+03  0.10000000000E+01 0.  0.
    9000005    1    3    3    0    0 -0.34277631839E+01 -0.23664515466E+02  0.32585700913E+01  0.24153201273E+02  0.10000000000E+01 0.  0.
<mgrwt>
<rscale>  0 0.12499920E+03</rscale>
<asrwt>0</asrwt>
<pdfrwt beam="2">  1        4 0.42175448E-01 0.12499920E+03</pdfrwt>
<pdfrwt beam="1">  1       -4 0.21921390E-02 0.12499920E+03</pdfrwt>
<totfact> 0.77080092E+03</totfact>
</mgrwt>
</event>
<event>
 5    1  0.3199195E-002  0.1250009E+03  0.7818608E-02  0.1235068E+00
         -4   -1    0    0    0  501 -0.00000000000E+00  0.00000000000E+00  0.36495489692E+03  0.36495710664E+03  0.12700000000E+01 0. -1.
          4   -1    0    0  501    0  0.00000000000E+00 -0.00000000000E+00 -0.10663607451E+02  0.10738967542E+02  0.12700000000E+01 0. -1.
         25    2    1    2    0    0  0.00000000000E+00  0.00000000000E+00  0.35429128947E+03  0.37569607418E+03  0.12500088944E+03 0.  0.
    9000005    1    3    3    0    0 -0.18164214021E+01 -0.58286451487E+02  0.10962471884E+03  0.12417402625E+03  0.10000000000E+01 0.  0.
    9000005    1    3    3    0    0  0.18164214021E+01  0.58286451487E+02  0.24466657063E+03  0.25152204793E+03  0.10000000000E+01 0.  0.
<mgrwt>
<rscale>  0 0.12500089E+03</rscale>
<asrwt>0</asrwt>
<pdfrwt beam="2">  1        4 0.16465217E-02 0.12500089E+03</pdfrwt>
<pdfrwt beam="1">  1       -4 0.56152880E-01 0.12500089E+03</pdfrwt>
<totfact> 0.66985879E+03</totfact>
</mgrwt>
</event>
<event>
 5    1  0.3199195E-002  0.1249995E+03  0.7818608E-02  0.1235070E+00
          4   -1    0    0  501    0  0.00000000000E+00  0.00000000000E+00  0.21009751759E+03  0.21010135601E+03  0.12700000000E+01 0. -1.
         -4   -1    0    0    0  501 -0.00000000000E+00 -0.00000000000E+00 -0.18566695390E+02  0.18610080003E+02  0.12700000000E+01 0. -1.
         25    2    1    2    0    0  0.00000000000E+00  0.00000000000E+00  0.19153082220E+03  0.22871143602E+03  0.12499946044E+03 0.  0.
    9000005    1    3    3    0    0 -0.61513440599E+02  0.10870402035E+02  0.92519427996E+02  0.11163742012E+03  0.10000000000E+01 0.  0.
    9000005    1    3    3    0    0  0.61513440599E+02 -0.10870402035E+02  0.99011394207E+02  0.11707401589E+03  0.10000000000E+01 0.  0.
<mgrwt>
<rscale>  0 0.12499946E+03</rscale>
<asrwt>0</asrwt>
<pdfrwt beam="1">  1        4 0.32326329E-01 0.12499946E+03</pdfrwt>
<pdfrwt beam="2">  1       -4 0.28600471E-02 0.12499946E+03</pdfrwt>
<totfact> 0.85508878E+03</totfact>
</mgrwt>
</event>
<event>
 5    1  0.3199195E-002  0.1250015E+03  0.7818608E-02  0.1235067E+00
          4   -1    0    0  501    0  0.00000000000E+00  0.00000000000E+00  0.14784376297E+03  0.14784921762E+03  0.12700000000E+01 0.  1.
         -4   -1    0    0    0  501 -0.00000000000E+00 -0.00000000000E+00 -0.26400884554E+02  0.26431413228E+02  0.12700000000E+01 0.  1.
         25    2    1    2    0    0  0.00000000000E+00  0.00000000000E+00  0.12144287842E+03  0.17428063085E+03  0.12500146227E+03 0.  0.
    9000005    1    3    3    0    0  0.46727905274E+02  0.41398087478E+02  0.56767475786E+02  0.84385099900E+02  0.10000000000E+01 0.  0.
    9000005    1    3    3    0    0 -0.46727905274E+02 -0.41398087478E+02  0.64675402633E+02  0.89895530945E+02  0.10000000000E+01 0.  0.
<mgrwt>
<rscale>  0 0.12500146E+03</rscale>
<asrwt>0</asrwt>
<pdfrwt beam="1">  1        4 0.22747961E-01 0.12500146E+03</pdfrwt>
<pdfrwt beam="2">  1       -4 0.40644427E-02 0.12500146E+03</pdfrwt>
<totfact> 0.94653652E+03</totfact>
</mgrwt>
</event>
<event>
 5    1  0.3199195E-002  0.1250012E+03  0.7818608E-02  0.1235067E+00
          4   -1    0    0  501    0  0.00000000000E+00  0.00000000000E+00  0.25196775956E+02  0.25228761733E+02  0.12700000000E+01 0.  1.
         -4   -1    0    0    0  501 -0.00000000000E+00 -0.00000000000E+00 -0.15489979853E+03  0.15490500471E+03  0.12700000000E+01 0.  1.
         25    2    1    2    0    0  0.00000000000E+00  0.00000000000E+00 -0.12970302258E+03  0.18013376645E+03  0.12500119899E+03 0.  0.
    9000005    1    3    3    0    0  0.53100597992E+01  0.37339294541E+02 -0.13665755971E+03  0.14176991316E+03  0.10000000000E+01 0.  0.
    9000005    1    3    3    0    0 -0.53100597992E+01 -0.37339294541E+02  0.69545371370E+01  0.38363853282E+02  0.10000000000E+01 0.  0.
<mgrwt>
<rscale>  0 0.12500120E+03</rscale>
<asrwt>0</asrwt>
<pdfrwt beam="1">  1        4 0.38792881E-02 0.12500120E+03</pdfrwt>
<pdfrwt beam="2">  1       -4 0.23833599E-01 0.12500120E+03</pdfrwt>
<totfact> 0.93590414E+03</totfact>
</mgrwt>
</event>
<event>
 5    1  0.3199195E-002  0.1249991E+03  0.7818608E-02  0.1235071E+00
         -4   -1    0    0    0  501 -0.00000000000E+00  0.00000000000E+00  0.46971606850E+02  0.46988772596E+02  0.12700000000E+01 0.  1.
          4   -1    0    0  501    0  0.00000000000E+00 -0.00000000000E+00 -0.83123467492E+02  0.83133168759E+02  0.12700000000E+01 0.  1.
         25    2    1    2    0    0  0.00000000000E+00  0.00000000000E+00 -0.36151860642E+02  0.13012194136E+03  0.12499905037E+03 0.  0.
    9000005    1    3    3    0    0  0.60631350912E+02 -0.11801241844E+02 -0.82134362071E+01  0.62320867747E+02  0.10000000000E+01 0.  0.
    9000005    1    3    3    0    0 -0.60631350912E+02  0.11801241844E+02 -0.27938424435E+02  0.67801073608E+02  0.10000000000E+01 0.  0.
<mgrwt>
<rscale>  0 0.12499905E+03</rscale>
<asrwt>0</asrwt>
<pdfrwt beam="2">  1        4 0.12790293E-01 0.12499905E+03</pdfrwt>
<pdfrwt beam="1">  1       -4 0.72284677E-02 0.12499905E+03</pdfrwt>
<totfact> 0.10342121E+04</totfact>
</mgrwt>
</event>
<event>
 5    1  0.3199195E-002  0.1249452E+03  0.7818608E-02  0.1235155E+00
          4   -1    0    0  501    0  0.00000000000E+00  0.00000000000E+00  0.23754603973E+03  0.23754943463E+03  0.12700000000E+01 0.  1.
         -4   -1    0    0    0  501 -0.00000000000E+00 -0.00000000000E+00 -0.16401700264E+02  0.16450795468E+02  0.12700000000E+01 0.  1.
         25    2    1    2    0    0  0.00000000000E+00  0.00000000000E+00  0.22114433947E+03  0.25400023009E+03  0.12494518002E+03 0.  0.
    9000005    1    3    3    0    0 -0.38780023081E+02  0.48333835438E+02  0.94594266016E+02  0.11308901362E+03  0.10000000000E+01 0.  0.
    9000005    1    3    3    0    0  0.38780023081E+02 -0.48333835438E+02  0.12655007345E+03  0.14091121647E+03  0.10000000000E+01 0.  0.
<mgrwt>
<rscale>  0 0.12494518E+03</rscale>
<asrwt>0</asrwt>
<pdfrwt beam="1">  1        4 0.36549579E-01 0.12494518E+03</pdfrwt>
<pdfrwt beam="2">  1       -4 0.25273764E-02 0.12494518E+03</pdfrwt>
<totfact> 0.81855377E+03</totfact>
</mgrwt>
</event>
<event>
 5    1  0.3199195E-002  0.1250080E+03  0.7818608E-02  0.1235057E+00
          4   -1    0    0  501    0  0.00000000000E+00  0.00000000000E+00  0.41199811246E+01  0.43112810703E+01  0.12700000000E+01 0.  1.
         -4   -1    0    0    0  501 -0.00000000000E+00 -0.00000000000E+00 -0.92653750571E+03  0.92653837611E+03  0.12700000000E+01 0.  1.
         25    2    1    2    0    0  0.00000000000E+00  0.00000000000E+00 -0.92241752459E+03  0.93084965718E+03  0.12500797812E+03 0.  0.
    9000005    1    3    3    0    0 -0.52138662074E+02  0.84613723654E+01 -0.70993305441E+03  0.71189604343E+03  0.10000000000E+01 0.  0.
    9000005    1    3    3    0    0  0.52138662074E+02 -0.84613723654E+01 -0.21248447018E+03  0.21895361374E+03  0.10000000000E+01 0.  0.
<mgrwt>
<rscale>  0 0.12500798E+03</rscale>
<asrwt>0</asrwt>
<pdfrwt beam="1">  1        4 0.64862632E-03 0.12500798E+03</pdfrwt>
<pdfrwt beam="2">  1       -4 0.14255885E+00 0.12500798E+03</pdfrwt>
<totfact> 0.33000083E+03</totfact>
</mgrwt>
</event>
<event>
 5    1  0.3199195E-002  0.1249909E+03  0.7818608E-02  0.1235083E+00
         -4   -1    0    0    0  501 -0.00000000000E+00  0.00000000000E+00  0.13675642228E+02  0.13734485442E+02  0.12700000000E+01 0. -1.
          4   -1    0    0  501    0  0.00000000000E+00 -0.00000000000E+00 -0.28492085432E+03  0.28492368474E+03  0.12700000000E+01 0. -1.
         25    2    1    2    0    0  0.00000000000E+00  0.00000000000E+00 -0.27124521210E+03  0.29865817019E+03  0.12499094981E+03 0.  0.
    9000005    1    3    3    0    0 -0.62142006519E+01  0.40657109728E+02 -0.23215656041E+02  0.47239639569E+02  0.10000000000E+01 0.  0.
    9000005    1    3    3    0    0  0.62142006519E+01 -0.40657109728E+02 -0.24802955605E+03  0.25141853062E+03  0.10000000000E+01 0.  0.
<mgrwt>
<rscale>  0 0.12499095E+03</rscale>
<asrwt>0</asrwt>
<pdfrwt beam="2">  1        4 0.43838717E-01 0.12499095E+03</pdfrwt>
<pdfrwt beam="1">  1       -4 0.21086893E-02 0.12499095E+03</pdfrwt>
<totfact> 0.75782692E+03</totfact>
</mgrwt>
</event>
<event>
 5    1  0.3199195E-002  0.1250019E+03  0.7818608E-02  0.1235066E+00
          4   -1    0    0  501    0  0.00000000000E+00  0.00000000000E+00  0.14161231290E+02  0.14218064975E+02  0.12700000000E+01 0. -1.
         -4   -1    0    0    0  501 -0.00000000000E+00 -0.00000000000E+00 -0.27523875195E+03  0.27524168193E+03  0.12700000000E+01 0. -1.
         25    2    1    2    0    0  0.00000000000E+00  0.00000000000E+00 -0.26107752066E+03  0.28945974691E+03  0.12500189314E+03 0.  0.
    9000005    1    3    3    0    0 -0.39021724460E+02  0.39212809592E+02 -0.63224454699E+02  0.84015897828E+02  0.10000000000E+01 0.  0.
    9000005    1    3    3    0    0  0.39021724460E+02 -0.39212809592E+02 -0.19785306596E+03  0.20544384908E+03  0.10000000000E+01 0.  0.
<mgrwt>
<rscale>  0 0.12500189E+03</rscale>
<asrwt>0</asrwt>
<pdfrwt beam="1">  1        4 0.21832484E-02 0.12500189E+03</pdfrwt>
<pdfrwt beam="2">  1       -4 0.42349017E-01 0.12500189E+03</pdfrwt>
<totfact> 0.76937067E+03</totfact>
</mgrwt>
</event>
<event>
 5    1  0.3199195E-002  0.1250007E+03  0.7818608E-02  0.1235068E+00
          4   -1    0    0  501    0  0.00000000000E+00  0.00000000000E+00  0.62880183085E+03  0.62880311337E+03  0.12700000000E+01 0.  1.
         -4   -1    0    0    0  501 -0.00000000000E+00 -0.00000000000E+00 -0.61460753390E+01  0.62759176279E+01  0.12700000000E+01 0.  1.
         25    2    1    2    0    0  0.00000000000E+00  0.00000000000E+00  0.62265575551E+03  0.63507903100E+03  0.12500074295E+03 0.  0.
    9000005    1    3    3    0    0 -0.64872384956E+01 -0.61138372206E+02  0.25445426149E+03  0.26177844833E+03  0.10000000000E+01 0.  0.
    9000005    1    3    3    0    0  0.64872384956E+01  0.61138372206E+02  0.36820149402E+03  0.37330058266E+03  0.10000000000E+01 0.  0.
<mgrwt>
<rscale>  0 0.12500074E+03</rscale>
<asrwt>0</asrwt>
<pdfrwt beam="1">  1        4 0.96748821E-01 0.12500074E+03</pdfrwt>
<pdfrwt beam="2">  1       -4 0.95563666E-03 0.12500074E+03</pdfrwt>
<totfact> 0.46724878E+03</totfact>
</mgrwt>
</event>
<event>
 5    1  0.3199195E-002  0.1250009E+03  0.7818608E-02  0.1235068E+00
         -4   -1    0    0    0  501 -0.00000000000E+00  0.00000000000E+00  0.77203366492E+02  0.77213811573E+02  0.12700000000E+01 0.  1.
          4   -1    0    0  501    0  0.00000000000E+00 -0.00000000000E+00 -0.50575794663E+02  0.50591737525E+02  0.12700000000E+01 0.  1.
         25    2    1    2    0    0  0.00000000000E+00  0.00000000000E+00  0.26627571828E+02  0.12780554910E+03  0.12500092319E+03 0.  0.
    9000005    1    3    3    0    0  0.33948337813E+02 -0.36330418298E+02  0.52017021653E+02  0.71966377396E+02  0.10000000000E+01 0.  0.
    9000005    1    3    3    0    0 -0.33948337813E+02  0.36330418298E+02 -0.25389449824E+02  0.55839171702E+02  0.10000000000E+01 0.  0.
<mgrwt>
<rscale>  0 0.12500092E+03</rscale>
<asrwt>0</asrwt>
<pdfrwt beam="2">  1        4 0.77829214E-02 0.12500092E+03</pdfrwt>
<pdfrwt beam="1">  1       -4 0.11879471E-01 0.12500092E+03</pdfrwt>
<totfact> 0.10391473E+04</totfact>
</mgrwt>
</event>
<event>
 5    1  0.3199195E-002  0.1250063E+03  0.7818608E-02  0.1235059E+00
          4   -1    0    0  501    0  0.00000000000E+00  0.00000000000E+00  0.52502184247E+01  0.54016380393E+01  0.12700000000E+01 0. -1.
         -4   -1    0    0    0  501 -0.00000000000E+00 -0.00000000000E+00 -0.73336246957E+03  0.73336356923E+03  0.12700000000E+01 0. -1.
         25    2    1    2    0    0  0.00000000000E+00  0.00000000000E+00 -0.72811225114E+03  0.73876520726E+03  0.12500632466E+03 0.  0.
    9000005    1    3    3    0    0  0.45996225890E+01  0.51181907416E+01  0.30334433564E+01  0.75864473257E+01  0.10000000000E+01 0.  0.
    9000005    1    3    3    0    0 -0.45996225890E+01 -0.51181907416E+01 -0.73114569450E+03  0.73117875994E+03  0.10000000000E+01 0.  0.
<mgrwt>
<rscale>  0 0.12500632E+03</rscale>
<asrwt>0</asrwt>
<pdfrwt beam="1">  1        4 0.81945875E-03 0.12500632E+03</pdfrwt>
<pdfrwt beam="2">  1       -4 0.11283665E+00 0.12500632E+03</pdfrwt>
<totfact> 0.41111687E+03</totfact>
</mgrwt>
</event>
<event>
 5    1  0.3199195E-002  0.1249764E+03  0.7818608E-02  0.1235106E+00
          4   -1    0    0  501    0  0.00000000000E+00  0.00000000000E+00  0.40486561127E+03  0.40486760316E+03  0.12700000000E+01 0.  1.
         -4   -1    0    0    0  501 -0.00000000000E+00 -0.00000000000E+00 -0.96007912013E+01  0.96844252122E+01  0.12700000000E+01 0.  1.
         25    2    1    2    0    0  0.00000000000E+00  0.00000000000E+00  0.39526482007E+03  0.41455202837E+03  0.12497642275E+03 0.  0.
    9000005    1    3    3    0    0 -0.48134325051E+02  0.39816828486E+02  0.20167251014E+03  0.21112814693E+03  0.10000000000E+01 0.  0.
    9000005    1    3    3    0    0  0.48134325051E+02 -0.39816828486E+02  0.19359230992E+03  0.20342388144E+03  0.10000000000E+01 0.  0.
<mgrwt>
<rscale>  0 0.12497642E+03</rscale>
<asrwt>0</asrwt>
<pdfrwt beam="1">  1        4 0.62293579E-01 0.12497642E+03</pdfrwt>
<pdfrwt beam="2">  1       -4 0.14836320E-02 0.12497642E+03</pdfrwt>
<totfact> 0.63194543E+03</totfact>
</mgrwt>
</event>
<event>
 5    1  0.3199195E-002  0.1250095E+03  0.7818608E-02  0.1235054E+00
          4   -1    0    0  501    0  0.00000000000E+00  0.00000000000E+00  0.34168005352E+02  0.34191599695E+02  0.12700000000E+01 0. -1.
         -4   -1    0    0    0  501 -0.00000000000E+00 -0.00000000000E+00 -0.11427554952E+03  0.11428260636E+03  0.12700000000E+01 0. -1.
         25    2    1    2    0    0  0.00000000000E+00  0.00000000000E+00 -0.80107544165E+02  0.14847420606E+03  0.12500948457E+03 0.  0.
    9000005    1    3    3    0    0 -0.55717693762E+02  0.25449303646E+02 -0.25328434522E+02  0.66292217111E+02  0.10000000000E+01 0.  0.
    9000005    1    3    3    0    0  0.55717693762E+02 -0.25449303646E+02 -0.54779109643E+02  0.82181988948E+02  0.10000000000E+01 0.  0.
<mgrwt>
<rscale>  0 0.12500948E+03</rscale>
<asrwt>0</asrwt>
<pdfrwt beam="1">  1        4 0.52589741E-02 0.12500948E+03</pdfrwt>
<pdfrwt beam="2">  1       -4 0.17583211E-01 0.12500948E+03</pdfrwt>
<totfact> 0.99587453E+03</totfact>
</mgrwt>
</event>
<event>
 5    1  0.3199195E-002  0.1250001E+03  0.7818608E-02  0.1235069E+00
         -4   -1    0    0    0  501 -0.00000000000E+00  0.00000000000E+00  0.16962048220E+03  0.16962523657E+03  0.12700000000E+01 0.  1.
          4   -1    0    0  501    0  0.00000000000E+00 -0.00000000000E+00 -0.23006817664E+02  0.23041843655E+02  0.12700000000E+01 0.  1.
         25    2    1    2    0    0  0.00000000000E+00  0.00000000000E+00  0.14661366454E+03  0.19266708022E+03  0.12500014870E+03 0.  0.
    9000005    1    3    3    0    0 -0.61142089455E+02 -0.12874825827E+02  0.71658936687E+02  0.95079542753E+02  0.10000000000E+01 0.  0.
    9000005    1    3    3    0    0  0.61142089455E+02  0.12874825827E+02  0.74954727848E+02  0.97587537471E+02  0.10000000000E+01 0.  0.
<mgrwt>
<rscale>  0 0.12500015E+03</rscale>
<asrwt>0</asrwt>
<pdfrwt beam="2">  1        4 0.35425704E-02 0.12500015E+03</pdfrwt>
<pdfrwt beam="1">  1       -4 0.26098519E-01 0.12500015E+03</pdfrwt>
<totfact> 0.91385007E+03</totfact>
</mgrwt>
</event>
<event>
 5    1  0.3199195E-002  0.1249983E+03  0.7818608E-02  0.1235072E+00
          4   -1    0    0  501    0  0.00000000000E+00  0.00000000000E+00  0.86355008597E+01  0.87283890322E+01  0.12700000000E+01 0.  1.
         -4   -1    0    0    0  501 -0.00000000000E+00 -0.00000000000E+00 -0.44982217365E+03  0.44982396646E+03  0.12700000000E+01 0.  1.
         25    2    1    2    0    0  0.00000000000E+00  0.00000000000E+00 -0.44118667279E+03  0.45855235549E+03  0.12499832993E+03 0.  0.
    9000005    1    3    3    0    0 -0.32792377943E+02 -0.26090657036E+02 -0.39065692192E+03  0.39289934217E+03  0.10000000000E+01 0.  0.
    9000005    1    3    3    0    0  0.32792377943E+02  0.26090657036E+02 -0.50529750870E+02  0.65653013325E+02  0.10000000000E+01 0.  0.
<mgrwt>
<rscale>  0 0.12499833E+03</rscale>
<asrwt>0</asrwt>
<pdfrwt beam="1">  1        4 0.13358221E-02 0.12499833E+03</pdfrwt>
<pdfrwt beam="2">  1       -4 0.69210677E-01 0.12499833E+03</pdfrwt>
<totfact> 0.59232186E+03</totfact>
</mgrwt>
</event>
<event>
 5    1  0.3199195E-002  0.1250048E+03  0.7818608E-02  0.1235062E+00
         -4   -1    0    0    0  501 -0.00000000000E+00  0.00000000000E+00  0.41968328848E+02  0.41987540132E+02  0.12700000000E+01 0. -1.
          4   -1    0    0  501    0  0.00000000000E+00 -0.00000000000E+00 -0.93038417957E+02  0.93047085478E+02  0.12700000000E+01 0. -1.
         25    2    1    2    0    0  0.00000000000E+00  0.00000000000E+00 -0.51070089109E+02  0.13503462561E+03  0.12500478436E+03 0.  0.
    9000005    1    3    3    0    0  0.29785643431E+02  0.54629067112E+02 -0.31836578681E+02  0.69900552718E+02  0.10000000000E+01 0.  0.
    9000005    1    3    3    0    0 -0.29785643431E+02 -0.54629067112E+02 -0.19233510428E+02  0.65134072892E+02  0.10000000000E+01 0.  0.
<mgrwt>
<rscale>  0 0.12500478E+03</rscale>
<asrwt>0</asrwt>
<pdfrwt beam="2">  1        4 0.14315747E-01 0.12500478E+03</pdfrwt>
<pdfrwt beam="1">  1       -4 0.64588105E-02 0.12500478E+03</pdfrwt>
<totfact> 0.10236237E+04</totfact>
</mgrwt>
</event>
<event>
 5    1  0.3199195E-002  0.1249978E+03  0.7818608E-02  0.1235073E+00
         -4   -1    0    0    0  501 -0.00000000000E+00  0.00000000000E+00  0.11888296421E+03  0.11888974758E+03  0.12700000000E+01 0. -1.
          4   -1    0    0  501    0  0.00000000000E+00 -0.00000000000E+00 -0.32836796645E+02  0.32861346806E+02  0.12700000000E+01 0. -1.
         25    2    1    2    0    0  0.00000000000E+00  0.00000000000E+00  0.86046167569E+02  0.15175109439E+03  0.12499780676E+03 0.  0.
    9000005    1    3    3    0    0 -0.51011646448E+02 -0.12713796594E+02  0.84036537873E+02  0.99131066749E+02  0.10000000000E+01 0.  0.
    9000005    1    3    3    0    0  0.51011646448E+02  0.12713796594E+02  0.20096296954E+01  0.52620027638E+02  0.10000000000E+01 0.  0.
<mgrwt>
<rscale>  0 0.12499781E+03</rscale>
<asrwt>0</asrwt>
<pdfrwt beam="2">  1        4 0.50542252E-02 0.12499781E+03</pdfrwt>
<pdfrwt beam="1">  1       -4 0.18292097E-01 0.12499781E+03</pdfrwt>
<totfact> 0.98960666E+03</totfact>
</mgrwt>
</event>
<event>
 5    1  0.3199195E-002  0.1249965E+03  0.7818608E-02  0.1235075E+00
          4   -1    0    0  501    0  0.00000000000E+00  0.00000000000E+00  0.21334155012E+03  0.21334533017E+03  0.12700000000E+01 0. -1.
         -4   -1    0    0    0  501 -0.00000000000E+00 -0.00000000000E+00 -0.18282853884E+02  0.18326910436E+02  0.12700000000E+01 0. -1.
         25    2    1    2    0    0  0.00000000000E+00  0.00000000000E+00  0.19505869623E+03  0.23167224061E+03  0.12499652832E+03 0.  0.
    9000005    1    3    3    0    0 -0.51437861432E+01  0.32447887195E+01  0.21280082400E+03  0.21289006056E+03  0.10000000000E+01 0.  0.
    9000005    1    3    3    0    0  0.51437861432E+01 -0.32447887195E+01 -0.17742127767E+02  0.18782180050E+02  0.10000000000E+01 0.  0.
<mgrwt>
<rscale>  0 0.12499653E+03</rscale>
<asrwt>0</asrwt>
<pdfrwt beam="1">  1        4 0.32825458E-01 0.12499653E+03</pdfrwt>
<pdfrwt beam="2">  1       -4 0.28164264E-02 0.12499653E+03</pdfrwt>
<totfact> 0.85060068E+03</totfact>
</mgrwt>
</event>
<event>
 5    1  0.3199195E-002  0.1249943E+03  0.7818608E-02  0.1235078E+00
         -4   -1    0    0    0  501 -0.00000000000E+00  0.00000000000E+00  0.49157017112E+01  0.50771077705E+01  0.12700000000E+01 0.  1.
          4   -1    0    0  501    0  0.00000000000E+00 -0.00000000000E+00 -0.78157907099E+03  0.78158010282E+03  0.12700000000E+01 0.  1.
         25    2    1    2    0    0  0.00000000000E+00  0.00000000000E+00 -0.77666336928E+03  0.78665721059E+03  0.12499431099E+03 0.  0.
    9000005    1    3    3    0    0  0.27929795153E+01 -0.48362035283E+02 -0.13989948094E+03  0.14805253108E+03  0.10000000000E+01 0.  0.
    9000005    1    3    3    0    0 -0.27929795153E+01  0.48362035283E+02 -0.63676388834E+03  0.63860467951E+03  0.10000000000E+01 0.  0.
<mgrwt>
<rscale>  0 0.12499431E+03</rscale>
<asrwt>0</asrwt>
<pdfrwt beam="2">  1        4 0.12025533E+00 0.12499431E+03</pdfrwt>
<pdfrwt beam="1">  1       -4 0.76875765E-03 0.12499431E+03</pdfrwt>
<totfact> 0.38872230E+03</totfact>
</mgrwt>
</event>
<event>
 5    1  0.3199195E-002  0.1249995E+03  0.7818608E-02  0.1235070E+00
          4   -1    0    0  501    0  0.00000000000E+00  0.00000000000E+00  0.13259445480E+02  0.13320127418E+02  0.12700000000E+01 0.  1.
         -4   -1    0    0    0  501 -0.00000000000E+00 -0.00000000000E+00 -0.29386411001E+03  0.29386685429E+03  0.12700000000E+01 0.  1.
         25    2    1    2    0    0  0.00000000000E+00  0.00000000000E+00 -0.28060466453E+03  0.30718698171E+03  0.12499945590E+03 0.  0.
    9000005    1    3    3    0    0 -0.58393747844E+02  0.16345362911E+01 -0.85752633728E+02  0.10376423125E+03  0.10000000000E+01 0.  0.
    9000005    1    3    3    0    0  0.58393747844E+02 -0.16345362911E+01 -0.19485203080E+03  0.20342275046E+03  0.10000000000E+01 0.  0.
<mgrwt>
<rscale>  0 0.12499946E+03</rscale>
<asrwt>0</asrwt>
<pdfrwt beam="1">  1        4 0.20447938E-02 0.12499946E+03</pdfrwt>
<pdfrwt beam="2">  1       -4 0.45214737E-01 0.12499946E+03</pdfrwt>
<totfact> 0.74706975E+03</totfact>
</mgrwt>
</event>
<event>
 5    1  0.3199195E-002  0.1250016E+03  0.7818608E-02  0.1235067E+00
          4   -1    0    0  501    0  0.00000000000E+00  0.00000000000E+00  0.66253237370E+02  0.66265408487E+02  0.12700000000E+01 0. -1.
         -4   -1    0    0    0  501 -0.00000000000E+00 -0.00000000000E+00 -0.58936431616E+02  0.58950113415E+02  0.12700000000E+01 0. -1.
         25    2    1    2    0    0  0.00000000000E+00  0.00000000000E+00  0.73168057537E+01  0.12521552190E+03  0.12500156511E+03 0.  0.
    9000005    1    3    3    0    0 -0.21304637535E+02  0.51031806694E+02 -0.25498374533E+02  0.60904022681E+02  0.10000000000E+01 0.  0.
    9000005    1    3    3    0    0  0.21304637535E+02 -0.51031806694E+02  0.32815180286E+02  0.64311499222E+02  0.10000000000E+01 0.  0.
<mgrwt>
<rscale>  0 0.12500157E+03</rscale>
<asrwt>0</asrwt>
<pdfrwt beam="1">  1        4 0.10194794E-01 0.12500157E+03</pdfrwt>
<pdfrwt beam="2">  1       -4 0.90691320E-02 0.12500157E+03</pdfrwt>
<totfact> 0.10447814E+04</totfact>
</mgrwt>
</event>
<event>
 5    1  0.3199195E-002  0.1249994E+03  0.7818608E-02  0.1235070E+00
         -4   -1    0    0    0  501 -0.00000000000E+00  0.00000000000E+00  0.30369025938E+02  0.30395569355E+02  0.12700000000E+01 0.  1.
          4   -1    0    0  501    0  0.00000000000E+00 -0.00000000000E+00 -0.12853901017E+03  0.12854528399E+03  0.12700000000E+01 0.  1.
         25    2    1    2    0    0  0.00000000000E+00  0.00000000000E+00 -0.98169984235E+02  0.15894085335E+03  0.12499939623E+03 0.  0.
    9000005    1    3    3    0    0 -0.10902039790E+02 -0.61192006890E+02 -0.57315267165E+02  0.84553864660E+02  0.10000000000E+01 0.  0.
    9000005    1    3    3    0    0  0.10902039790E+02  0.61192006890E+02 -0.40854717070E+02  0.74386988686E+02  0.10000000000E+01 0.  0.
<mgrwt>
<rscale>  0 0.12499940E+03</rscale>
<asrwt>0</asrwt>
<pdfrwt beam="2">  1        4 0.19777756E-01 0.12499940E+03</pdfrwt>
<pdfrwt beam="1">  1       -4 0.46746823E-02 0.12499940E+03</pdfrwt>
<totfact> 0.97548693E+03</totfact>
</mgrwt>
</event>
<event>
 5    1  0.3199195E-002  0.1250001E+03  0.7818608E-02  0.1235069E+00
         -4   -1    0    0    0  501 -0.00000000000E+00  0.00000000000E+00  0.48868777070E+02  0.48885276641E+02  0.12700000000E+01 0.  1.
          4   -1    0    0  501    0  0.00000000000E+00 -0.00000000000E+00 -0.79898498359E+02  0.79908591153E+02  0.12700000000E+01 0.  1.
         25    2    1    2    0    0  0.00000000000E+00  0.00000000000E+00 -0.31029721289E+02  0.12879386779E+03  0.12500006711E+03 0.  0.
    9000005    1    3    3    0    0 -0.44907308233E+02  0.47598373829E+01  0.28992600740E+02  0.53673953481E+02  0.10000000000E+01 0.  0.
    9000005    1    3    3    0    0  0.44907308233E+02 -0.47598373829E+01 -0.60022322029E+02  0.75119914313E+02  0.10000000000E+01 0.  0.
<mgrwt>
<rscale>  0 0.12500007E+03</rscale>
<asrwt>0</asrwt>
<pdfrwt beam="2">  1        4 0.12294122E-01 0.12500007E+03</pdfrwt>
<pdfrwt beam="1">  1       -4 0.75203190E-02 0.12500007E+03</pdfrwt>
<totfact> 0.10370363E+04</totfact>
</mgrwt>
</event>
<event>
 5    1  0.3199195E-002  0.1249951E+03  0.7818608E-02  0.1235077E+00
         -4   -1    0    0    0  501 -0.00000000000E+00  0.00000000000E+00  0.22134541170E+02  0.22170945239E+02  0.12700000000E+01 0.  1.
          4   -1    0    0  501    0  0.00000000000E+00 -0.00000000000E+00 -0.17628006651E+03  0.17628464127E+03  0.12700000000E+01 0.  1.
         25    2    1    2    0    0  0.00000000000E+00  0.00000000000E+00 -0.15414552534E+03  0.19845558651E+03  0.12499510725E+03 0.  0.
    9000005    1    3    3    0    0 -0.55805533062E+02 -0.26407315682E+02 -0.92412045938E+02  0.11114220655E+03  0.10000000000E+01 0.  0.
    9000005    1    3    3    0    0  0.55805533062E+02  0.26407315682E+02 -0.61733479402E+02  0.87313379965E+02  0.10000000000E+01 0.  0.
<mgrwt>
<rscale>  0 0.12499511E+03</rscale>
<asrwt>0</asrwt>
<pdfrwt beam="2">  1        4 0.27123161E-01 0.12499511E+03</pdfrwt>
<pdfrwt beam="1">  1       -4 0.34084664E-02 0.12499511E+03</pdfrwt>
<totfact> 0.90406429E+03</totfact>
</mgrwt>
</event>
<event>
 5    1  0.3199195E-002  0.1250034E+03  0.7818608E-02  0.1235064E+00
          4   -1    0    0  501    0  0.00000000000E+00  0.00000000000E+00  0.26784816405E+03  0.26785117488E+03  0.12700000000E+01 0. -1.
         -4   -1    0    0    0  501 -0.00000000000E+00 -0.00000000000E+00 -0.14553873424E+02  0.14609179705E+02  0.12700000000E+01 0. -1.
         25    2    1    2    0    0  0.00000000000E+00  0.00000000000E+00  0.25329429063E+03  0.28246035459E+03  0.12500341695E+03 0.  0.
    9000005    1    3    3    0    0  0.24581879723E+02 -0.44967760885E+02  0.45833061161E+02  0.68760728800E+02  0.10000000000E+01 0.  0.
    9000005    1    3    3    0    0 -0.24581879723E+02  0.44967760885E+02  0.20746122947E+03  0.21369962579E+03  0.10000000000E+01 0.  0.
<mgrwt>
<rscale>  0 0.12500342E+03</rscale>
<asrwt>0</asrwt>
<pdfrwt beam="1">  1        4 0.41211893E-01 0.12500342E+03</pdfrwt>
<pdfrwt beam="2">  1       -4 0.22435435E-02 0.12500342E+03</pdfrwt>
<totfact> 0.77847096E+03</totfact>
</mgrwt>
</event>
<event>
 5    1  0.3199195E-002  0.1250424E+03  0.7818608E-02  0.1235003E+00
          4   -1    0    0  501    0  0.00000000000E+00  0.00000000000E+00  0.93170659828E+02  0.93179315048E+02  0.12700000000E+01 0.  1.
         -4   -1    0    0    0  501 -0.00000000000E+00 -0.00000000000E+00 -0.41933989806E+02  0.41953216814E+02  0.12700000000E+01 0.  1.
         25    2    1    2    0    0  0.00000000000E+00  0.00000000000E+00  0.51236670022E+02  0.13513253186E+03  0.12504241205E+03 0.  0.
    9000005    1    3    3    0    0  0.59125098125E+02  0.15040839242E+02  0.10883715912E+02  0.61979507463E+02  0.10000000000E+01 0.  0.
    9000005    1    3    3    0    0 -0.59125098125E+02 -0.15040839242E+02  0.40352954110E+02  0.73153024399E+02  0.10000000000E+01 0.  0.
<mgrwt>
<rscale>  0 0.12504241E+03</rscale>
<asrwt>0</asrwt>
<pdfrwt beam="1">  1        4 0.14336092E-01 0.12504241E+03</pdfrwt>
<pdfrwt beam="2">  1       -4 0.64535278E-02 0.12504241E+03</pdfrwt>
<totfact> 0.10225495E+04</totfact>
</mgrwt>
</event>
<event>
 5    1  0.3199195E-002  0.1249982E+03  0.7818608E-02  0.1235072E+00
          4   -1    0    0  501    0  0.00000000000E+00  0.00000000000E+00  0.56958959686E+03  0.56959101270E+03  0.12700000000E+01 0. -1.
         -4   -1    0    0    0  501 -0.00000000000E+00 -0.00000000000E+00 -0.67975751267E+01  0.69151954132E+01  0.12700000000E+01 0. -1.
         25    2    1    2    0    0  0.00000000000E+00  0.00000000000E+00  0.56279202173E+03  0.57650620811E+03  0.12499819306E+03 0.  0.
    9000005    1    3    3    0    0  0.29026302477E+01 -0.20328032729E+02  0.91841187975E+01  0.22516709686E+02  0.10000000000E+01 0.  0.
    9000005    1    3    3    0    0 -0.29026302477E+01  0.20328032729E+02  0.55360790293E+03  0.55398949843E+03  0.10000000000E+01 0.  0.
<mgrwt>
<rscale>  0 0.12499819E+03</rscale>
<asrwt>0</asrwt>
<pdfrwt beam="1">  1        4 0.87638337E-01 0.12499819E+03</pdfrwt>
<pdfrwt beam="2">  1       -4 0.10549373E-02 0.12499819E+03</pdfrwt>
<totfact> 0.50386993E+03</totfact>
</mgrwt>
</event>
<event>
 5    1  0.3199195E-002  0.1250027E+03  0.7818608E-02  0.1235065E+00
         -4   -1    0    0    0  501 -0.00000000000E+00  0.00000000000E+00  0.37853672334E+02  0.37874970748E+02  0.12700000000E+01 0.  1.
          4   -1    0    0  501    0  0.00000000000E+00 -0.00000000000E+00 -0.10314366347E+03  0.10315148188E+03  0.12700000000E+01 0.  1.
         25    2    1    2    0    0  0.00000000000E+00  0.00000000000E+00 -0.65289991141E+02  0.14102645263E+03  0.12500270957E+03 0.  0.
    9000005    1    3    3    0    0 -0.21900490584E+02 -0.53493402289E+02 -0.58462452435E+01  0.58106403775E+02  0.10000000000E+01 0.  0.
    9000005    1    3    3    0    0  0.21900490584E+02  0.53493402289E+02 -0.59443745897E+02  0.82920048858E+02  0.10000000000E+01 0.  0.
<mgrwt>
<rscale>  0 0.12500271E+03</rscale>
<asrwt>0</asrwt>
<pdfrwt beam="2">  1        4 0.15870496E-01 0.12500271E+03</pdfrwt>
<pdfrwt beam="1">  1       -4 0.58258817E-02 0.12500271E+03</pdfrwt>
<totfact> 0.10111739E+04</totfact>
</mgrwt>
</event>
<event>
 5    1  0.3199195E-002  0.1250018E+03  0.7818608E-02  0.1235066E+00
          4   -1    0    0  501    0  0.00000000000E+00  0.00000000000E+00  0.84307154209E+02  0.84316719284E+02  0.12700000000E+01 0.  1.
         -4   -1    0    0    0  501 -0.00000000000E+00 -0.00000000000E+00 -0.46313993108E+02  0.46331402499E+02  0.12700000000E+01 0.  1.
         25    2    1    2    0    0  0.00000000000E+00  0.00000000000E+00  0.37993161101E+02  0.13064812178E+03  0.12500180573E+03 0.  0.
    9000005    1    3    3    0    0  0.38383667830E+02 -0.10236424605E+02 -0.31424309076E+02  0.50661400944E+02  0.10000000000E+01 0.  0.
    9000005    1    3    3    0    0 -0.38383667830E+02  0.10236424605E+02  0.69417470177E+02  0.79986720839E+02  0.10000000000E+01 0.  0.
<mgrwt>
<rscale>  0 0.12500181E+03</rscale>
<asrwt>0</asrwt>
<pdfrwt beam="1">  1        4 0.12972406E-01 0.12500181E+03</pdfrwt>
<pdfrwt beam="2">  1       -4 0.71273047E-02 0.12500181E+03</pdfrwt>
<totfact> 0.10330218E+04</totfact>
</mgrwt>
</event>
<event>
 5    1  0.3199195E-002  0.1250010E+03  0.7818608E-02  0.1235068E+00
          4   -1    0    0  501    0  0.00000000000E+00  0.00000000000E+00  0.21535417305E+03  0.21535791778E+03  0.12700000000E+01 0.  1.
         -4   -1    0    0    0  501 -0.00000000000E+00 -0.00000000000E+00 -0.18112868397E+02  0.18157337403E+02  0.12700000000E+01 0.  1.
         25    2    1    2    0    0  0.00000000000E+00  0.00000000000E+00  0.19724130466E+03  0.23351525518E+03  0.12500096856E+03 0.  0.
    9000005    1    3    3    0    0 -0.26461628238E+01  0.17350336047E+02  0.21066466417E+03  0.21139687100E+03  0.10000000000E+01 0.  0.
    9000005    1    3    3    0    0  0.26461628238E+01 -0.17350336047E+02 -0.13423359509E+02  0.22118384190E+02  0.10000000000E+01 0.  0.
<mgrwt>
<rscale>  0 0.12500097E+03</rscale>
<asrwt>0</asrwt>
<pdfrwt beam="1">  1        4 0.33135118E-01 0.12500097E+03</pdfrwt>
<pdfrwt beam="2">  1       -4 0.27903040E-02 0.12500097E+03</pdfrwt>
<totfact> 0.84770902E+03</totfact>
</mgrwt>
</event>
<event>
 5    1  0.3199195E-002  0.1250018E+03  0.7818608E-02  0.1235066E+00
         -4   -1    0    0    0  501 -0.00000000000E+00  0.00000000000E+00  0.34378568778E+03  0.34378803357E+03  0.12700000000E+01 0.  1.
          4   -1    0    0  501    0  0.00000000000E+00 -0.00000000000E+00 -0.11324908623E+02  0.11395896424E+02  0.12700000000E+01 0.  1.
         25    2    1    2    0    0  0.00000000000E+00  0.00000000000E+00  0.33246077916E+03  0.35518392999E+03  0.12500181776E+03 0.  0.
    9000005    1    3    3    0    0  0.27552360951E+02 -0.29083333142E+02  0.30251216605E+03  0.30515501547E+03  0.10000000000E+01 0.  0.
    9000005    1    3    3    0    0 -0.27552360951E+02  0.29083333142E+02  0.29948613112E+02  0.50028914519E+02  0.10000000000E+01 0.  0.
<mgrwt>
<rscale>  0 0.12500182E+03</rscale>
<asrwt>0</asrwt>
<pdfrwt beam="2">  1        4 0.17479346E-02 0.12500182E+03</pdfrwt>
<pdfrwt beam="1">  1       -4 0.52895748E-01 0.12500182E+03</pdfrwt>
<totfact> 0.69155216E+03</totfact>
</mgrwt>
</event>
<event>
 4    1  0.3199195E-002  0.1250764E+03  0.7818608E-02  0.1234950E+00
         -4   -1    0    0    0  501 -0.00000000000E+00  0.00000000000E+00  0.10532119380E+02  0.10608413577E+02  0.12700000000E+01 0. -1.
          4   -1    0    0  501    0  0.00000000000E+00 -0.00000000000E+00 -0.36992503220E+03  0.36992721222E+03  0.12700000000E+01 0. -1.
    9000005    1    1    2    0    0 -0.60892879078E+02  0.13802679128E+02 -0.19004406432E+03  0.20004050354E+03  0.10000000000E+01 0.  0.
    9000005    1    1    2    0    0  0.60892879078E+02 -0.13802679128E+02 -0.16934884849E+03  0.18049512226E+03  0.10000000000E+01 0.  0.
<mgrwt>
<rscale>  0 0.12507636E+03</rscale>
<asrwt>0</asrwt>
<pdfrwt beam="2">  1        4 0.56917570E-01 0.12507636E+03</pdfrwt>
<pdfrwt beam="1">  1       -4 0.16263628E-02 0.12507636E+03</pdfrwt>
<totfact> 0.66378863E+03</totfact>
</mgrwt>
</event>
<event>
 5    1  0.3199195E-002  0.1250114E+03  0.7818608E-02  0.1235051E+00
          4   -1    0    0  501    0  0.00000000000E+00  0.00000000000E+00  0.39750975589E+01  0.41730445244E+01  0.12700000000E+01 0.  1.
         -4   -1    0    0    0  501 -0.00000000000E+00 -0.00000000000E+00 -0.95878464779E+03  0.95878548890E+03  0.12700000000E+01 0.  1.
         25    2    1    2    0    0  0.00000000000E+00  0.00000000000E+00 -0.95480955023E+03  0.96295853343E+03  0.12501143906E+03 0.  0.
    9000005    1    3    3    0    0 -0.14378848069E+02 -0.23664310575E+02 -0.45817829211E+02  0.53544601412E+02  0.10000000000E+01 0.  0.
    9000005    1    3    3    0    0  0.14378848069E+02  0.23664310575E+02 -0.90899172102E+03  0.90941393201E+03  0.10000000000E+01 0.  0.
<mgrwt>
<rscale>  0 0.12501144E+03</rscale>
<asrwt>0</asrwt>
<pdfrwt beam="1">  1        4 0.62684562E-03 0.12501144E+03</pdfrwt>
<pdfrwt beam="2">  1       -4 0.14752044E+00 0.12501144E+03</pdfrwt>
<totfact> 0.31852403E+03</totfact>
</mgrwt>
</event>
<event>
 5    1  0.3199195E-002  0.1249983E+03  0.7818608E-02  0.1235072E+00
         -4   -1    0    0    0  501 -0.00000000000E+00  0.00000000000E+00  0.70959428073E+02  0.70970792108E+02  0.12700000000E+01 0. -1.
          4   -1    0    0  501    0  0.00000000000E+00 -0.00000000000E+00 -0.55024424922E+02  0.55039079190E+02  0.12700000000E+01 0. -1.
         25    2    1    2    0    0  0.00000000000E+00  0.00000000000E+00  0.15935003151E+02  0.12600987130E+03  0.12499825334E+03 0.  0.
    9000005    1    3    3    0    0 -0.39926967200E+02 -0.10927083671E+02  0.55160653873E+02  0.68972904847E+02  0.10000000000E+01 0.  0.
    9000005    1    3    3    0    0  0.39926967200E+02  0.10927083671E+02 -0.39225650722E+02  0.57036966451E+02  0.10000000000E+01 0.  0.
<mgrwt>
<rscale>  0 0.12499825E+03</rscale>
<asrwt>0</asrwt>
<pdfrwt beam="2">  1        4 0.84672976E-02 0.12499825E+03</pdfrwt>
<pdfrwt beam="1">  1       -4 0.10918836E-01 0.12499825E+03</pdfrwt>
<totfact> 0.10431152E+04</totfact>
</mgrwt>
</event>
<event>
 5    1  0.3199195E-002  0.1250005E+03  0.7818608E-02  0.1235068E+00
          4   -1    0    0  501    0  0.00000000000E+00  0.00000000000E+00  0.48821795633E+01  0.50446582925E+01  0.12700000000E+01 0.  1.
         -4   -1    0    0    0  501 -0.00000000000E+00 -0.00000000000E+00 -0.78685161860E+03  0.78685264351E+03  0.12700000000E+01 0.  1.
         25    2    1    2    0    0  0.00000000000E+00  0.00000000000E+00 -0.78196943904E+03  0.79189730180E+03  0.12500053204E+03 0.  0.
    9000005    1    3    3    0    0  0.54630417429E+01  0.27427705555E+02 -0.36943297392E+02  0.46345777362E+02  0.10000000000E+01 0.  0.
    9000005    1    3    3    0    0 -0.54630417429E+01 -0.27427705555E+02 -0.74502614165E+03  0.74555152444E+03  0.10000000000E+01 0.  0.
<mgrwt>
<rscale>  0 0.12500053E+03</rscale>
<asrwt>0</asrwt>
<pdfrwt beam="1">  1        4 0.76368237E-03 0.12500053E+03</pdfrwt>
<pdfrwt beam="2">  1       -4 0.12106657E+00 0.12500053E+03</pdfrwt>
<totfact> 0.38628601E+03</totfact>
</mgrwt>
</event>
<event>
 5    1  0.3199195E-002  0.1250046E+03  0.7818608E-02  0.1235062E+00
          4   -1    0    0  501    0  0.00000000000E+00  0.00000000000E+00  0.11771456052E+02  0.11839766788E+02  0.12700000000E+01 0. -1.
         -4   -1    0    0    0  501 -0.00000000000E+00 -0.00000000000E+00 -0.33083536174E+03  0.33083779934E+03  0.12700000000E+01 0. -1.
         25    2    1    2    0    0  0.00000000000E+00  0.00000000000E+00 -0.31906390568E+03  0.34267756613E+03  0.12500455360E+03 0.  0.
    9000005    1    3    3    0    0 -0.43340619127E+02 -0.34290758805E+02 -0.79549761244E+02  0.96868105792E+02  0.10000000000E+01 0.  0.
    9000005    1    3    3    0    0  0.43340619127E+02  0.34290758805E+02 -0.23951414444E+03  0.24580946034E+03  0.10000000000E+01 0.  0.
<mgrwt>
<rscale>  0 0.12500455E+03</rscale>
<asrwt>0</asrwt>
<pdfrwt beam="1">  1        4 0.18164357E-02 0.12500455E+03</pdfrwt>
<pdfrwt beam="2">  1       -4 0.50903183E-01 0.12500455E+03</pdfrwt>
<totfact> 0.70530589E+03</totfact>
</mgrwt>
</event>
<event>
 5    1  0.3199195E-002  0.1249962E+03  0.7818608E-02  0.1235075E+00
          4   -1    0    0  501    0  0.00000000000E+00  0.00000000000E+00  0.64565537939E+02  0.64578027141E+02  0.12700000000E+01 0.  1.
         -4   -1    0    0    0  501 -0.00000000000E+00 -0.00000000000E+00 -0.60471811430E+02  0.60485145925E+02  0.12700000000E+01 0.  1.
         25    2    1    2    0    0  0.00000000000E+00  0.00000000000E+00  0.40937265092E+01  0.12506317307E+03  0.12499615458E+03 0.  0.
    9000005    1    3    3    0    0 -0.44271382091E+01 -0.57913155920E+02  0.25112997610E+02  0.63286616518E+02  0.10000000000E+01 0.  0.
    9000005    1    3    3    0    0  0.44271382091E+01  0.57913155920E+02 -0.21019271101E+02  0.61776556548E+02  0.10000000000E+01 0.  0.
<mgrwt>
<rscale>  0 0.12499615E+03</rscale>
<asrwt>0</asrwt>
<pdfrwt beam="1">  1        4 0.99351462E-02 0.12499615E+03</pdfrwt>
<pdfrwt beam="2">  1       -4 0.93053420E-02 0.12499615E+03</pdfrwt>
<totfact> 0.10452399E+04</totfact>
</mgrwt>
</event>
<event>
 5    1  0.3199195E-002  0.1250003E+03  0.7818608E-02  0.1235069E+00
          4   -1    0    0  501    0  0.00000000000E+00  0.00000000000E+00  0.21501579656E+02  0.21539053548E+02  0.12700000000E+01 0.  1.
         -4   -1    0    0    0  501 -0.00000000000E+00 -0.00000000000E+00 -0.18147570157E+03  0.18148014536E+03  0.12700000000E+01 0.  1.
         25    2    1    2    0    0  0.00000000000E+00  0.00000000000E+00 -0.15997412191E+03  0.20301919891E+03  0.12500030177E+03 0.  0.
    9000005    1    3    3    0    0 -0.48757178772E+02  0.38142872768E+02 -0.93875927841E+02  0.11245368403E+03  0.10000000000E+01 0.  0.
    9000005    1    3    3    0    0  0.48757178772E+02 -0.38142872768E+02 -0.66098194069E+02  0.90565514871E+02  0.10000000000E+01 0.  0.
<mgrwt>
<rscale>  0 0.12500030E+03</rscale>
<asrwt>0</asrwt>
<pdfrwt beam="1">  1        4 0.33111599E-02 0.12500030E+03</pdfrwt>
<pdfrwt beam="2">  1       -4 0.27922562E-01 0.12500030E+03</pdfrwt>
<totfact> 0.89628176E+03</totfact>
</mgrwt>
</event>
<event>
 5    1  0.3199195E-002  0.1250019E+03  0.7818608E-02  0.1235066E+00
          4   -1    0    0  501    0  0.00000000000E+00  0.00000000000E+00  0.46288762474E+01  0.47999370114E+01  0.12700000000E+01 0.  1.
         -4   -1    0    0    0  501 -0.00000000000E+00 -0.00000000000E+00 -0.82843053668E+03  0.82843151015E+03  0.12700000000E+01 0.  1.
         25    2    1    2    0    0  0.00000000000E+00  0.00000000000E+00 -0.82380166043E+03  0.83323144716E+03  0.12500187519E+03 0.  0.
    9000005    1    3    3    0    0  0.16517003938E+02  0.30639460290E+01 -0.10670863943E+02  0.19926528088E+02  0.10000000000E+01 0.  0.
    9000005    1    3    3    0    0 -0.16517003938E+02 -0.30639460290E+01 -0.81313079649E+03  0.81330491907E+03  0.10000000000E+01 0.  0.
<mgrwt>
<rscale>  0 0.12500188E+03</rscale>
<asrwt>0</asrwt>
<pdfrwt beam="1">  1        4 0.72536887E-03 0.12500188E+03</pdfrwt>
<pdfrwt beam="2">  1       -4 0.12746397E+00 0.12500188E+03</pdfrwt>
<totfact> 0.36822025E+03</totfact>
</mgrwt>
</event>
<event>
 5    1  0.3199195E-002  0.1249821E+03  0.7818608E-02  0.1235097E+00
         -4   -1    0    0    0  501 -0.00000000000E+00  0.00000000000E+00  0.67210736142E+01  0.68400095415E+01  0.12700000000E+01 0.  1.
          4   -1    0    0  501    0  0.00000000000E+00 -0.00000000000E+00 -0.57581234654E+03  0.57581374709E+03  0.12700000000E+01 0.  1.
         25    2    1    2    0    0  0.00000000000E+00  0.00000000000E+00 -0.56909127293E+03  0.58265375663E+03  0.12498209146E+03 0.  0.
    9000005    1    3    3    0    0  0.50564230355E+02 -0.27146612390E+02 -0.39972856363E+03  0.40382868216E+03  0.10000000000E+01 0.  0.
    9000005    1    3    3    0    0 -0.50564230355E+02  0.27146612390E+02 -0.16936270930E+03  0.17882507446E+03  0.10000000000E+01 0.  0.
<mgrwt>
<rscale>  0 0.12498209E+03</rscale>
<asrwt>0</asrwt>
<pdfrwt beam="2">  1        4 0.88595732E-01 0.12498209E+03</pdfrwt>
<pdfrwt beam="1">  1       -4 0.10432684E-02 0.12498209E+03</pdfrwt>
<totfact> 0.50000843E+03</totfact>
</mgrwt>
</event>
<event>
 5    1  0.3199195E-002  0.1249991E+03  0.7818608E-02  0.1235071E+00
          4   -1    0    0  501    0  0.00000000000E+00  0.00000000000E+00  0.11000748395E+03  0.11001481457E+03  0.12700000000E+01 0.  1.
         -4   -1    0    0    0  501 -0.00000000000E+00 -0.00000000000E+00 -0.35488583312E+02  0.35511300251E+02  0.12700000000E+01 0.  1.
         25    2    1    2    0    0  0.00000000000E+00  0.00000000000E+00  0.74518900637E+02  0.14552611482E+03  0.12499913417E+03 0.  0.
    9000005    1    3    3    0    0  0.57873448364E+02  0.72925837575E+01  0.11157142620E+02  0.59396966546E+02  0.10000000000E+01 0.  0.
    9000005    1    3    3    0    0 -0.57873448364E+02 -0.72925837575E+01  0.63361758018E+02  0.86129148275E+02  0.10000000000E+01 0.  0.
<mgrwt>
<rscale>  0 0.12499913E+03</rscale>
<asrwt>0</asrwt>
<pdfrwt beam="1">  1        4 0.16926540E-01 0.12499913E+03</pdfrwt>
<pdfrwt beam="2">  1       -4 0.54620934E-02 0.12499913E+03</pdfrwt>
<totfact> 0.10020505E+04</totfact>
</mgrwt>
</event>
<event>
 5    1  0.3199195E-002  0.1249963E+03  0.7818608E-02  0.1235075E+00
          4   -1    0    0  501    0  0.00000000000E+00  0.00000000000E+00  0.18571356079E+03  0.18571790318E+03  0.12700000000E+01 0.  1.
         -4   -1    0    0    0  501 -0.00000000000E+00 -0.00000000000E+00 -0.21008726252E+02  0.21047077677E+02  0.12700000000E+01 0.  1.
         25    2    1    2    0    0  0.00000000000E+00  0.00000000000E+00  0.16470483454E+03  0.20676498086E+03  0.12499629910E+03 0.  0.
    9000005    1    3    3    0    0 -0.60696166022E+02  0.12782416127E+02  0.94907108057E+02  0.11338330517E+03  0.10000000000E+01 0.  0.
    9000005    1    3    3    0    0  0.60696166022E+02 -0.12782416127E+02  0.69797726484E+02  0.93381675687E+02  0.10000000000E+01 0.  0.
<mgrwt>
<rscale>  0 0.12499630E+03</rscale>
<asrwt>0</asrwt>
<pdfrwt beam="1">  1        4 0.28574600E-01 0.12499630E+03</pdfrwt>
<pdfrwt beam="2">  1       -4 0.32353960E-02 0.12499630E+03</pdfrwt>
<totfact> 0.89014309E+03</totfact>
</mgrwt>
</event>
<event>
 4    1  0.3199195E-002  0.1246941E+03  0.7818608E-02  0.1235548E+00
         -4   -1    0    0    0  501 -0.00000000000E+00  0.00000000000E+00  0.49178812489E+03  0.49178976472E+03  0.12700000000E+01 0.  1.
          4   -1    0    0  501    0  0.00000000000E+00 -0.00000000000E+00 -0.78514445857E+01  0.79534949602E+01  0.12700000000E+01 0.  1.
    9000005    1    1    2    0    0  0.36142550679E+02 -0.45610978764E+02  0.33154038556E+03  0.33661056521E+03  0.10000000000E+01 0.  0.
    9000005    1    1    2    0    0 -0.36142550679E+02  0.45610978764E+02  0.15239629475E+03  0.16313269447E+03  0.10000000000E+01 0.  0.
<mgrwt>
<rscale>  0 0.12469409E+03</rscale>
<asrwt>0</asrwt>
<pdfrwt beam="2">  1        4 0.12158906E-02 0.12469409E+03</pdfrwt>
<pdfrwt beam="1">  1       -4 0.75667695E-01 0.12469409E+03</pdfrwt>
<totfact> 0.56261876E+03</totfact>
</mgrwt>
</event>
<event>
 5    1  0.3199195E-002  0.1249985E+03  0.7818608E-02  0.1235072E+00
         -4   -1    0    0    0  501 -0.00000000000E+00  0.00000000000E+00  0.81323859190E+01  0.82309538168E+01  0.12700000000E+01 0.  1.
          4   -1    0    0  501    0  0.00000000000E+00 -0.00000000000E+00 -0.47732836378E+03  0.47733005328E+03  0.12700000000E+01 0.  1.
         25    2    1    2    0    0  0.00000000000E+00  0.00000000000E+00 -0.46919597786E+03  0.48556100710E+03  0.12499850390E+03 0.  0.
    9000005    1    3    3    0    0  0.62446258490E+02 -0.17293990871E+01 -0.24089821249E+03  0.24886838851E+03  0.10000000000E+01 0.  0.
    9000005    1    3    3    0    0 -0.62446258490E+02  0.17293990871E+01 -0.22829776537E+03  0.23669261859E+03  0.10000000000E+01 0.  0.
<mgrwt>
<rscale>  0 0.12499850E+03</rscale>
<asrwt>0</asrwt>
<pdfrwt beam="2">  1        4 0.73442823E-01 0.12499850E+03</pdfrwt>
<pdfrwt beam="1">  1       -4 0.12588488E-02 0.12499850E+03</pdfrwt>
<totfact> 0.57004205E+03</totfact>
</mgrwt>
</event>
<event>
 5    1  0.3199195E-002  0.1249966E+03  0.7818608E-02  0.1235075E+00
          4   -1    0    0  501    0  0.00000000000E+00  0.00000000000E+00  0.92960836615E+02  0.92969511369E+02  0.12700000000E+01 0. -1.
         -4   -1    0    0    0  501 -0.00000000000E+00 -0.00000000000E+00 -0.41997857645E+02  0.42017055427E+02  0.12700000000E+01 0. -1.
         25    2    1    2    0    0  0.00000000000E+00  0.00000000000E+00  0.50962978970E+02  0.13498656680E+03  0.12499659191E+03 0.  0.
    9000005    1    3    3    0    0 -0.17585188140E+02 -0.14638059809E+02  0.88279907633E+02  0.91202268221E+02  0.10000000000E+01 0.  0.
    9000005    1    3    3    0    0  0.17585188140E+02  0.14638059809E+02 -0.37316928663E+02  0.43784298576E+02  0.10000000000E+01 0.  0.
<mgrwt>
<rscale>  0 0.12499659E+03</rscale>
<asrwt>0</asrwt>
<pdfrwt beam="1">  1        4 0.14303811E-01 0.12499659E+03</pdfrwt>
<pdfrwt beam="2">  1       -4 0.64633530E-02 0.12499659E+03</pdfrwt>
<totfact> 0.10239141E+04</totfact>
</mgrwt>
</event>
<event>
 5    1  0.3199195E-002  0.1249902E+03  0.7818608E-02  0.1235085E+00
         -4   -1    0    0    0  501 -0.00000000000E+00  0.00000000000E+00  0.77719842136E+01  0.78750643563E+01  0.12700000000E+01 0.  1.
          4   -1    0    0  501    0  0.00000000000E+00 -0.00000000000E+00 -0.49911345161E+03  0.49911506737E+03  0.12700000000E+01 0.  1.
         25    2    1    2    0    0  0.00000000000E+00  0.00000000000E+00 -0.49134146740E+03  0.50699013173E+03  0.12499022397E+03 0.  0.
    9000005    1    3    3    0    0  0.24965622308E+02  0.48500643240E+02 -0.36930580351E+03  0.37331403831E+03  0.10000000000E+01 0.  0.
    9000005    1    3    3    0    0 -0.24965622308E+02 -0.48500643240E+02 -0.12203566388E+03  0.13367609342E+03  0.10000000000E+01 0.  0.
<mgrwt>
<rscale>  0 0.12499022E+03</rscale>
<asrwt>0</asrwt>
<pdfrwt beam="2">  1        4 0.76794714E-01 0.12499022E+03</pdfrwt>
<pdfrwt beam="1">  1       -4 0.12037438E-02 0.12499022E+03</pdfrwt>
<totfact> 0.55337971E+03</totfact>
</mgrwt>
</event>
<event>
 5    1  0.3199195E-002  0.1250031E+03  0.7818608E-02  0.1235064E+00
         -4   -1    0    0    0  501 -0.00000000000E+00  0.00000000000E+00  0.36176388715E+02  0.36198674015E+02  0.12700000000E+01 0. -1.
          4   -1    0    0  501    0  0.00000000000E+00 -0.00000000000E+00 -0.10792405320E+03  0.10793152532E+03  0.12700000000E+01 0. -1.
         25    2    1    2    0    0  0.00000000000E+00  0.00000000000E+00 -0.71747664482E+02  0.14413019934E+03  0.12500314797E+03 0.  0.
    9000005    1    3    3    0    0  0.54174734435E+02  0.11230266310E+02 -0.23684296780E+01  0.55386191345E+02  0.10000000000E+01 0.  0.
    9000005    1    3    3    0    0 -0.54174734435E+02 -0.11230266310E+02 -0.69379234804E+02  0.88744007992E+02  0.10000000000E+01 0.  0.
<mgrwt>
<rscale>  0 0.12500315E+03</rscale>
<asrwt>0</asrwt>
<pdfrwt beam="2">  1        4 0.16605989E-01 0.12500315E+03</pdfrwt>
<pdfrwt beam="1">  1       -4 0.55678874E-02 0.12500315E+03</pdfrwt>
<totfact> 0.10047978E+04</totfact>
</mgrwt>
</event>
<event>
 5    1  0.3199195E-002  0.1250100E+03  0.7818608E-02  0.1235054E+00
          4   -1    0    0  501    0  0.00000000000E+00  0.00000000000E+00  0.94458915886E+02  0.94467453075E+02  0.12700000000E+01 0.  1.
         -4   -1    0    0    0  501 -0.00000000000E+00 -0.00000000000E+00 -0.41340406419E+02  0.41359909368E+02  0.12700000000E+01 0.  1.
         25    2    1    2    0    0  0.00000000000E+00  0.00000000000E+00  0.53118509467E+02  0.13582736244E+03  0.12500998496E+03 0.  0.
    9000005    1    3    3    0    0 -0.23939240498E+02  0.83364129401E+01 -0.35509133891E+02  0.43640366703E+02  0.10000000000E+01 0.  0.
    9000005    1    3    3    0    0  0.23939240498E+02 -0.83364129401E+01  0.88627643358E+02  0.92186995739E+02  0.10000000000E+01 0.  0.
<mgrwt>
<rscale>  0 0.12500998E+03</rscale>
<asrwt>0</asrwt>
<pdfrwt beam="1">  1        4 0.14534298E-01 0.12500998E+03</pdfrwt>
<pdfrwt beam="2">  1       -4 0.63622196E-02 0.12500998E+03</pdfrwt>
<totfact> 0.10218361E+04</totfact>
</mgrwt>
</event>
<event>
 5    1  0.3199195E-002  0.1249996E+03  0.7818608E-02  0.1235070E+00
         -4   -1    0    0    0  501 -0.00000000000E+00  0.00000000000E+00  0.33360017666E+03  0.33360259406E+03  0.12700000000E+01 0.  1.
          4   -1    0    0  501    0  0.00000000000E+00 -0.00000000000E+00 -0.11672393423E+02  0.11741280519E+02  0.12700000000E+01 0.  1.
         25    2    1    2    0    0  0.00000000000E+00  0.00000000000E+00  0.32192778323E+03  0.34534387458E+03  0.12499957637E+03 0.  0.
    9000005    1    3    3    0    0 -0.15212647099E+02 -0.28110677366E+02  0.12606265920E+02  0.34373721855E+02  0.10000000000E+01 0.  0.
    9000005    1    3    3    0    0  0.15212647099E+02  0.28110677366E+02  0.30932151731E+03  0.31097015273E+03  0.10000000000E+01 0.  0.
<mgrwt>
<rscale>  0 0.12499958E+03</rscale>
<asrwt>0</asrwt>
<pdfrwt beam="2">  1        4 0.18012379E-02 0.12499958E+03</pdfrwt>
<pdfrwt beam="1">  1       -4 0.51328586E-01 0.12499958E+03</pdfrwt>
<totfact> 0.70240501E+03</totfact>
</mgrwt>
</event>
<event>
 5    1  0.3199195E-002  0.1250064E+03  0.7818608E-02  0.1235059E+00
         -4   -1    0    0    0  501 -0.00000000000E+00  0.00000000000E+00  0.32563127047E+02  0.32587883379E+02  0.12700000000E+01 0. -1.
          4   -1    0    0  501    0  0.00000000000E+00 -0.00000000000E+00 -0.11989794878E+03  0.11990467472E+03  0.12700000000E+01 0. -1.
         25    2    1    2    0    0  0.00000000000E+00  0.00000000000E+00 -0.87334821730E+02  0.15249255810E+03  0.12500643660E+03 0.  0.
    9000005    1    3    3    0    0  0.46139839426E+02 -0.37083301656E+02 -0.68113596248E+02  0.90246983538E+02  0.10000000000E+01 0.  0.
    9000005    1    3    3    0    0 -0.46139839426E+02  0.37083301656E+02 -0.19221225482E+02  0.62245574566E+02  0.10000000000E+01 0.  0.
<mgrwt>
<rscale>  0 0.12500644E+03</rscale>
<asrwt>0</asrwt>
<pdfrwt beam="2">  1        4 0.18448260E-01 0.12500644E+03</pdfrwt>
<pdfrwt beam="1">  1       -4 0.50121336E-02 0.12500644E+03</pdfrwt>
<totfact> 0.98794837E+03</totfact>
</mgrwt>
</event>
<event>
 5    1  0.3199195E-002  0.1249931E+03  0.7818608E-02  0.1235080E+00
         -4   -1    0    0    0  501 -0.00000000000E+00  0.00000000000E+00  0.21639840007E+03  0.21640212673E+03  0.12700000000E+01 0.  1.
          4   -1    0    0  501    0  0.00000000000E+00 -0.00000000000E+00 -0.18022971165E+02  0.18067661432E+02  0.12700000000E+01 0.  1.
         25    2    1    2    0    0  0.00000000000E+00  0.00000000000E+00  0.19837542891E+03  0.23446978817E+03  0.12499308288E+03 0.  0.
    9000005    1    3    3    0    0  0.13868047400E+02  0.60481300105E+02  0.85338402123E+02  0.10551754962E+03  0.10000000000E+01 0.  0.
    9000005    1    3    3    0    0 -0.13868047400E+02 -0.60481300105E+02  0.11303702679E+03  0.12895223854E+03  0.10000000000E+01 0.  0.
<mgrwt>
<rscale>  0 0.12499308E+03</rscale>
<asrwt>0</asrwt>
<pdfrwt beam="2">  1        4 0.27764890E-02 0.12499308E+03</pdfrwt>
<pdfrwt beam="1">  1       -4 0.33295788E-01 0.12499308E+03</pdfrwt>
<totfact> 0.84641004E+03</totfact>
</mgrwt>
</event>
<event>
 5    1  0.3199195E-002  0.1249858E+03  0.7818608E-02  0.1235091E+00
         -4   -1    0    0    0  501 -0.00000000000E+00  0.00000000000E+00  0.20293210286E+02  0.20332911344E+02  0.12700000000E+01 0.  1.
          4   -1    0    0  501    0  0.00000000000E+00 -0.00000000000E+00 -0.19221689804E+03  0.19222109352E+03  0.12700000000E+01 0.  1.
         25    2    1    2    0    0  0.00000000000E+00  0.00000000000E+00 -0.17192368775E+03  0.21255400486E+03  0.12498580148E+03 0.  0.
    9000005    1    3    3    0    0  0.11827995642E+02 -0.22392542833E+02  0.11182941079E+02  0.27701726058E+02  0.10000000000E+01 0.  0.
    9000005    1    3    3    0    0 -0.11827995642E+02  0.22392542833E+02 -0.18310662883E+03  0.18485227880E+03  0.10000000000E+01 0.  0.
<mgrwt>
<rscale>  0 0.12498580E+03</rscale>
<asrwt>0</asrwt>
<pdfrwt beam="2">  1        4 0.29575206E-01 0.12498580E+03</pdfrwt>
<pdfrwt beam="1">  1       -4 0.31254092E-02 0.12498580E+03</pdfrwt>
<totfact> 0.88088423E+03</totfact>
</mgrwt>
</event>
<event>
 5    1  0.3199195E-002  0.1249960E+03  0.7818608E-02  0.1235076E+00
          4   -1    0    0  501    0  0.00000000000E+00  0.00000000000E+00  0.64371343794E+03  0.64371469075E+03  0.12700000000E+01 0. -1.
         -4   -1    0    0    0  501 -0.00000000000E+00 -0.00000000000E+00 -0.60001918387E+01  0.61331233561E+01  0.12700000000E+01 0. -1.
         25    2    1    2    0    0  0.00000000000E+00  0.00000000000E+00  0.63771324610E+03  0.64984781410E+03  0.12499598891E+03 0.  0.
    9000005    1    3    3    0    0 -0.15687925021E+02  0.44873311743E+02  0.10797694446E+03  0.11798197164E+03  0.10000000000E+01 0.  0.
    9000005    1    3    3    0    0  0.15687925021E+02 -0.44873311743E+02  0.52973630164E+03  0.53186584246E+03  0.10000000000E+01 0.  0.
<mgrwt>
<rscale>  0 0.12499599E+03</rscale>
<asrwt>0</asrwt>
<pdfrwt beam="1">  1        4 0.99043146E-01 0.12499599E+03</pdfrwt>
<pdfrwt beam="2">  1       -4 0.93342842E-03 0.12499599E+03</pdfrwt>
<totfact> 0.45868881E+03</totfact>
</mgrwt>
</event>
<event>
 5    1  0.3199195E-002  0.1250001E+03  0.7818608E-02  0.1235069E+00
         -4   -1    0    0    0  501 -0.00000000000E+00  0.00000000000E+00  0.59165292872E+02  0.59178921760E+02  0.12700000000E+01 0. -1.
          4   -1    0    0  501    0  0.00000000000E+00 -0.00000000000E+00 -0.65995433499E+02  0.66007652152E+02  0.12700000000E+01 0. -1.
         25    2    1    2    0    0  0.00000000000E+00  0.00000000000E+00 -0.68301406262E+01  0.12518657391E+03  0.12500010987E+03 0.  0.
    9000005    1    3    3    0    0 -0.56898145933E+02 -0.13479098321E+02 -0.25497264543E+02  0.63798084621E+02  0.10000000000E+01 0.  0.
    9000005    1    3    3    0    0  0.56898145933E+02  0.13479098321E+02  0.18667123917E+02  0.61388489291E+02  0.10000000000E+01 0.  0.
<mgrwt>
<rscale>  0 0.12500011E+03</rscale>
<asrwt>0</asrwt>
<pdfrwt beam="2">  1        4 0.10155132E-01 0.12500011E+03</pdfrwt>
<pdfrwt beam="1">  1       -4 0.91043410E-02 0.12500011E+03</pdfrwt>
<totfact> 0.10448786E+04</totfact>
</mgrwt>
</event>
<event>
 5    1  0.3199195E-002  0.1249972E+03  0.7818608E-02  0.1235074E+00
          4   -1    0    0  501    0  0.00000000000E+00  0.00000000000E+00  0.87957823947E+02  0.87966992068E+02  0.12700000000E+01 0. -1.
         -4   -1    0    0    0  501 -0.00000000000E+00 -0.00000000000E+00 -0.44387911964E+02  0.44406076482E+02  0.12700000000E+01 0. -1.
         25    2    1    2    0    0  0.00000000000E+00  0.00000000000E+00  0.43569911984E+02  0.13237306855E+03  0.12499716816E+03 0.  0.
    9000005    1    3    3    0    0 -0.31400873069E+01 -0.10560042446E+02 -0.43356538210E+02  0.44745547827E+02  0.10000000000E+01 0.  0.
    9000005    1    3    3    0    0  0.31400873069E+01  0.10560042446E+02  0.86926450194E+02  0.87627520723E+02  0.10000000000E+01 0.  0.
<mgrwt>
<rscale>  0 0.12499717E+03</rscale>
<asrwt>0</asrwt>
<pdfrwt beam="1">  1        4 0.13534075E-01 0.12499717E+03</pdfrwt>
<pdfrwt beam="2">  1       -4 0.68310120E-02 0.12499717E+03</pdfrwt>
<totfact> 0.10294400E+04</totfact>
</mgrwt>
</event>
<event>
 5    1  0.3199195E-002  0.1250012E+03  0.7818608E-02  0.1235067E+00
         -4   -1    0    0    0  501 -0.00000000000E+00  0.00000000000E+00  0.81639659326E+02  0.81649536893E+02  0.12700000000E+01 0. -1.
          4   -1    0    0  501    0  0.00000000000E+00 -0.00000000000E+00 -0.47827186063E+02  0.47844044841E+02  0.12700000000E+01 0. -1.
         25    2    1    2    0    0  0.00000000000E+00  0.00000000000E+00  0.33812473263E+02  0.12949358173E+03  0.12500121744E+03 0.  0.
    9000005    1    3    3    0    0 -0.41291767811E+02 -0.46710791468E+02  0.12460386818E+02  0.63585921147E+02  0.10000000000E+01 0.  0.
    9000005    1    3    3    0    0  0.41291767811E+02  0.46710791468E+02  0.21352086445E+02  0.65907660587E+02  0.10000000000E+01 0.  0.
<mgrwt>
<rscale>  0 0.12500122E+03</rscale>
<asrwt>0</asrwt>
<pdfrwt beam="2">  1        4 0.73600853E-02 0.12500122E+03</pdfrwt>
<pdfrwt beam="1">  1       -4 0.12562004E-01 0.12500122E+03</pdfrwt>
<totfact> 0.10355068E+04</totfact>
</mgrwt>
</event>
<event>
 5    1  0.3199195E-002  0.1249995E+03  0.7818608E-02  0.1235070E+00
         -4   -1    0    0    0  501 -0.00000000000E+00  0.00000000000E+00  0.43972352837E+02  0.43990688947E+02  0.12700000000E+01 0.  1.
          4   -1    0    0  501    0  0.00000000000E+00 -0.00000000000E+00 -0.88792062971E+02  0.88801144962E+02  0.12700000000E+01 0.  1.
         25    2    1    2    0    0  0.00000000000E+00  0.00000000000E+00 -0.44819710133E+02  0.13279183391E+03  0.12499945894E+03 0.  0.
    9000005    1    3    3    0    0 -0.58412950716E+01 -0.18344938713E+02  0.40748503362E+02  0.45078798018E+02  0.10000000000E+01 0.  0.
    9000005    1    3    3    0    0  0.58412950716E+01  0.18344938713E+02 -0.85568213495E+02  0.87713035891E+02  0.10000000000E+01 0.  0.
<mgrwt>
<rscale>  0 0.12499946E+03</rscale>
<asrwt>0</asrwt>
<pdfrwt beam="2">  1        4 0.13662426E-01 0.12499946E+03</pdfrwt>
<pdfrwt beam="1">  1       -4 0.67670865E-02 0.12499946E+03</pdfrwt>
<totfact> 0.10284952E+04</totfact>
</mgrwt>
</event>
<event>
 5    1  0.3199195E-002  0.1250009E+03  0.7818608E-02  0.1235068E+00
         -4   -1    0    0    0  501 -0.00000000000E+00  0.00000000000E+00  0.12939308096E+03  0.12939931337E+03  0.12700000000E+01 0. -1.
          4   -1    0    0  501    0  0.00000000000E+00 -0.00000000000E+00 -0.30169144260E+02  0.30195863382E+02  0.12700000000E+01 0. -1.
         25    2    1    2    0    0  0.00000000000E+00  0.00000000000E+00  0.99223936702E+02  0.15959517675E+03  0.12500092331E+03 0.  0.
    9000005    1    3    3    0    0 -0.58593097331E+02 -0.18237078808E+02  0.64695246788E+02  0.89175204262E+02  0.10000000000E+01 0.  0.
    9000005    1    3    3    0    0  0.58593097331E+02  0.18237078808E+02  0.34528689914E+02  0.70419972490E+02  0.10000000000E+01 0.  0.
<mgrwt>
<rscale>  0 0.12500092E+03</rscale>
<asrwt>0</asrwt>
<pdfrwt beam="2">  1        4 0.46439416E-02 0.12500092E+03</pdfrwt>
<pdfrwt beam="1">  1       -4 0.19909162E-01 0.12500092E+03</pdfrwt>
<totfact> 0.97418867E+03</totfact>
</mgrwt>
</event>
<event>
 5    1  0.3199195E-002  0.1249954E+03  0.7818608E-02  0.1235076E+00
         -4   -1    0    0    0  501 -0.00000000000E+00  0.00000000000E+00  0.16163967941E+01  0.20556358131E+01  0.12700000000E+01 0.  1.
          4   -1    0    0  501    0  0.00000000000E+00 -0.00000000000E+00 -0.21269718799E+04  0.21269722591E+04  0.12700000000E+01 0.  1.
         25    2    1    2    0    0  0.00000000000E+00  0.00000000000E+00 -0.21253554831E+04  0.21290278949E+04  0.12499539013E+03 0.  0.
    9000005    1    3    3    0    0  0.23888310730E+02 -0.55709175411E+02 -0.13214416092E+04  0.13228314670E+04  0.10000000000E+01 0.  0.
    9000005    1    3    3    0    0 -0.23888310730E+02  0.55709175411E+02 -0.80391387394E+03  0.80619642788E+03  0.10000000000E+01 0.  0.
<mgrwt>
<rscale>  0 0.12499539E+03</rscale>
<asrwt>0</asrwt>
<pdfrwt beam="2">  1        4 0.32725829E+00 0.12499539E+03</pdfrwt>
<pdfrwt beam="1">  1       -4 0.28249491E-03 0.12499539E+03</pdfrwt>
<totfact> 0.82707329E+02</totfact>
</mgrwt>
</event>
<event>
 5    1  0.3199195E-002  0.1250018E+03  0.7818608E-02  0.1235066E+00
          4   -1    0    0  501    0  0.00000000000E+00  0.00000000000E+00  0.16064017950E+02  0.16114142009E+02  0.12700000000E+01 0. -1.
         -4   -1    0    0    0  501 -0.00000000000E+00 -0.00000000000E+00 -0.24274409720E+03  0.24274741940E+03  0.12700000000E+01 0. -1.
         25    2    1    2    0    0  0.00000000000E+00  0.00000000000E+00 -0.22668007925E+03  0.25886156141E+03  0.12500179857E+03 0.  0.
    9000005    1    3    3    0    0 -0.49579796320E+02  0.34617281129E+02 -0.14600786127E+03  0.15803736238E+03  0.10000000000E+01 0.  0.
    9000005    1    3    3    0    0  0.49579796320E+02 -0.34617281129E+02 -0.80672217982E+02  0.10082419903E+03  0.10000000000E+01 0.  0.
<mgrwt>
<rscale>  0 0.12500180E+03</rscale>
<asrwt>0</asrwt>
<pdfrwt beam="1">  1        4 0.24754988E-02 0.12500180E+03</pdfrwt>
<pdfrwt beam="2">  1       -4 0.37349354E-01 0.12500180E+03</pdfrwt>
<totfact> 0.81062846E+03</totfact>
</mgrwt>
</event>
<event>
 5    1  0.3199195E-002  0.1249993E+03  0.7818608E-02  0.1235070E+00
          4   -1    0    0  501    0  0.00000000000E+00  0.00000000000E+00  0.27526801187E+01  0.30315256614E+01  0.12700000000E+01 0.  1.
         -4   -1    0    0    0  501 -0.00000000000E+00 -0.00000000000E+00 -0.13503657818E+04  0.13503663790E+04  0.12700000000E+01 0.  1.
         25    2    1    2    0    0  0.00000000000E+00  0.00000000000E+00 -0.13476131017E+04  0.13533979047E+04  0.12499926616E+03 0.  0.
    9000005    1    3    3    0    0 -0.14573751305E+01  0.62415497434E+02 -0.64438138210E+03  0.64739955504E+03  0.10000000000E+01 0.  0.
    9000005    1    3    3    0    0  0.14573751305E+01 -0.62415497434E+02 -0.70323171957E+03  0.70599834963E+03  0.10000000000E+01 0.  0.
<mgrwt>
<rscale>  0 0.12499927E+03</rscale>
<asrwt>0</asrwt>
<pdfrwt beam="1">  1        4 0.44498592E-03 0.12499927E+03</pdfrwt>
<pdfrwt beam="2">  1       -4 0.20776957E+00 0.12499927E+03</pdfrwt>
<totfact> 0.21002576E+03</totfact>
</mgrwt>
</event>
<event>
 5    1  0.3199195E-002  0.1250014E+03  0.7818608E-02  0.1235067E+00
         -4   -1    0    0    0  501 -0.00000000000E+00  0.00000000000E+00  0.72280333596E+01  0.73387578137E+01  0.12700000000E+01 0. -1.
          4   -1    0    0  501    0  0.00000000000E+00 -0.00000000000E+00 -0.53622286625E+03  0.53622437019E+03  0.12700000000E+01 0. -1.
         25    2    1    2    0    0  0.00000000000E+00  0.00000000000E+00 -0.52899483289E+03  0.54356312801E+03  0.12500136361E+03 0.  0.
    9000005    1    3    3    0    0  0.10749936322E+02  0.46868600938E+02 -0.43806071462E+03  0.44069310929E+03  0.10000000000E+01 0.  0.
    9000005    1    3    3    0    0 -0.10749936322E+02 -0.46868600938E+02 -0.90934118275E+02  0.10287001872E+03  0.10000000000E+01 0.  0.
<mgrwt>
<rscale>  0 0.12500136E+03</rscale>
<asrwt>0</asrwt>
<pdfrwt beam="2">  1        4 0.82504427E-01 0.12500136E+03</pdfrwt>
<pdfrwt beam="1">  1       -4 0.11206385E-02 0.12500136E+03</pdfrwt>
<totfact> 0.52634474E+03</totfact>
</mgrwt>
</event>
<event>
 5    1  0.3199195E-002  0.1250018E+03  0.7818608E-02  0.1235066E+00
         -4   -1    0    0    0  501 -0.00000000000E+00  0.00000000000E+00  0.58418705932E+03  0.58418843978E+03  0.12700000000E+01 0.  1.
          4   -1    0    0  501    0  0.00000000000E+00 -0.00000000000E+00 -0.66251342205E+01  0.67457618872E+01  0.12700000000E+01 0.  1.
         25    2    1    2    0    0  0.00000000000E+00  0.00000000000E+00  0.57756192510E+03  0.59093420167E+03  0.12500181351E+03 0.  0.
    9000005    1    3    3    0    0 -0.16512979874E+02  0.24797941359E+02  0.54847634175E+03  0.54928582164E+03  0.10000000000E+01 0.  0.
    9000005    1    3    3    0    0  0.16512979874E+02 -0.24797941359E+02  0.29085583345E+02  0.41648380022E+02  0.10000000000E+01 0.  0.
<mgrwt>
<rscale>  0 0.12500181E+03</rscale>
<asrwt>0</asrwt>
<pdfrwt beam="2">  1        4 0.10286367E-02 0.12500181E+03</pdfrwt>
<pdfrwt beam="1">  1       -4 0.89884312E-01 0.12500181E+03</pdfrwt>
<totfact> 0.49442952E+03</totfact>
</mgrwt>
</event>
<event>
 5    1  0.3199195E-002  0.1250019E+03  0.7818608E-02  0.1235066E+00
          4   -1    0    0  501    0  0.00000000000E+00  0.00000000000E+00  0.42735038003E+03  0.42735226712E+03  0.12700000000E+01 0.  1.
         -4   -1    0    0    0  501 -0.00000000000E+00 -0.00000000000E+00 -0.90948787834E+01  0.91831214782E+01  0.12700000000E+01 0.  1.
         25    2    1    2    0    0  0.00000000000E+00  0.00000000000E+00  0.41825550125E+03  0.43653538860E+03  0.12500192468E+03 0.  0.
    9000005    1    3    3    0    0 -0.21671049832E+02  0.57492535062E+02  0.24899798483E+03  0.25646836537E+03  0.10000000000E+01 0.  0.
    9000005    1    3    3    0    0  0.21671049832E+02 -0.57492535062E+02  0.16925751642E+03  0.18006702322E+03  0.10000000000E+01 0.  0.
<mgrwt>
<rscale>  0 0.12500192E+03</rscale>
<asrwt>0</asrwt>
<pdfrwt beam="1">  1        4 0.65753152E-01 0.12500192E+03</pdfrwt>
<pdfrwt beam="2">  1       -4 0.14061450E-02 0.12500192E+03</pdfrwt>
<totfact> 0.61145434E+03</totfact>
</mgrwt>
</event>
<event>
 5    1  0.3199195E-002  0.1249971E+03  0.7818608E-02  0.1235074E+00
         -4   -1    0    0    0  501 -0.00000000000E+00  0.00000000000E+00  0.25385013988E+02  0.25416762878E+02  0.12700000000E+01 0. -1.
          4   -1    0    0  501    0  0.00000000000E+00 -0.00000000000E+00 -0.15374258321E+03  0.15374782857E+03  0.12700000000E+01 0. -1.
         25    2    1    2    0    0  0.00000000000E+00  0.00000000000E+00 -0.12835756922E+03  0.17916459145E+03  0.12499714098E+03 0.  0.
    9000005    1    3    3    0    0 -0.24818925353E+02 -0.32934019638E+02  0.31191138060E+01  0.41368557820E+02  0.10000000000E+01 0.  0.
    9000005    1    3    3    0    0  0.24818925353E+02  0.32934019638E+02 -0.13147668303E+03  0.13779603363E+03  0.10000000000E+01 0.  0.
<mgrwt>
<rscale>  0 0.12499714E+03</rscale>
<asrwt>0</asrwt>
<pdfrwt beam="2">  1        4 0.23655550E-01 0.12499714E+03</pdfrwt>
<pdfrwt beam="1">  1       -4 0.39082326E-02 0.12499714E+03</pdfrwt>
<totfact> 0.93773608E+03</totfact>
</mgrwt>
</event>
<event>
 5    1  0.3199195E-002  0.1249999E+03  0.7818608E-02  0.1235069E+00
         -4   -1    0    0    0  501 -0.00000000000E+00  0.00000000000E+00  0.39833909863E+03  0.39834112316E+03  0.12700000000E+01 0. -1.
          4   -1    0    0  501    0  0.00000000000E+00 -0.00000000000E+00 -0.97631482277E+01  0.98454031566E+01  0.12700000000E+01 0. -1.
         25    2    1    2    0    0  0.00000000000E+00  0.00000000000E+00  0.38857595040E+03  0.40818652631E+03  0.12499988413E+03 0.  0.
    9000005    1    3    3    0    0  0.42430787927E+02  0.42941795703E+02  0.14154510409E+03  0.15388432693E+03  0.10000000000E+01 0.  0.
    9000005    1    3    3    0    0 -0.42430787927E+02 -0.42941795703E+02  0.24703084631E+03  0.25430219939E+03  0.10000000000E+01 0.  0.
<mgrwt>
<rscale>  0 0.12499988E+03</rscale>
<asrwt>0</asrwt>
<pdfrwt beam="2">  1        4 0.15085059E-02 0.12499988E+03</pdfrwt>
<pdfrwt beam="1">  1       -4 0.61289420E-01 0.12499988E+03</pdfrwt>
<totfact> 0.63764452E+03</totfact>
</mgrwt>
</event>
<event>
 5    1  0.3199195E-002  0.1250023E+03  0.7818608E-02  0.1235066E+00
          4   -1    0    0  501    0  0.00000000000E+00  0.00000000000E+00  0.11351566342E+03  0.11352276750E+03  0.12700000000E+01 0.  1.
         -4   -1    0    0    0  501 -0.00000000000E+00 -0.00000000000E+00 -0.34392928940E+02  0.34416369087E+02  0.12700000000E+01 0.  1.
         25    2    1    2    0    0  0.00000000000E+00  0.00000000000E+00  0.79122734477E+02  0.14793913659E+03  0.12500232407E+03 0.  0.
    9000005    1    3    3    0    0  0.31621622693E+02  0.30172902898E+02  0.92423347243E+02  0.10224190045E+03  0.10000000000E+01 0.  0.
    9000005    1    3    3    0    0 -0.31621622693E+02 -0.30172902898E+02 -0.13300612767E+02  0.45697236142E+02  0.10000000000E+01 0.  0.
<mgrwt>
<rscale>  0 0.12500232E+03</rscale>
<asrwt>0</asrwt>
<pdfrwt beam="1">  1        4 0.17466298E-01 0.12500232E+03</pdfrwt>
<pdfrwt beam="2">  1       -4 0.52935694E-02 0.12500232E+03</pdfrwt>
<totfact> 0.99710881E+03</totfact>
</mgrwt>
</event>
<event>
 5    1  0.3199195E-002  0.1249723E+03  0.7818608E-02  0.1235113E+00
          4   -1    0    0  501    0  0.00000000000E+00  0.00000000000E+00  0.25239063789E+02  0.25270996042E+02  0.12700000000E+01 0.  1.
         -4   -1    0    0    0  501 -0.00000000000E+00 -0.00000000000E+00 -0.15456916512E+03  0.15457438244E+03  0.12700000000E+01 0.  1.
         25    2    1    2    0    0  0.00000000000E+00  0.00000000000E+00 -0.12933010133E+03  0.17984537848E+03  0.12497233714E+03 0.  0.
    9000005    1    3    3    0    0 -0.51991343455E+02  0.17726525858E+02 -0.21825072427E+02  0.59115677275E+02  0.10000000000E+01 0.  0.
    9000005    1    3    3    0    0  0.51991343455E+02 -0.17726525858E+02 -0.10750502891E+03  0.12072970121E+03  0.10000000000E+01 0.  0.
<mgrwt>
<rscale>  0 0.12497234E+03</rscale>
<asrwt>0</asrwt>
<pdfrwt beam="1">  1        4 0.38857906E-02 0.12497234E+03</pdfrwt>
<pdfrwt beam="2">  1       -4 0.23782729E-01 0.12497234E+03</pdfrwt>
<totfact> 0.93702951E+03</totfact>
</mgrwt>
</event>
<event>
 5    1  0.3199195E-002  0.1249995E+03  0.7818608E-02  0.1235070E+00
          4   -1    0    0  501    0  0.00000000000E+00  0.00000000000E+00  0.12188431688E+03  0.12189093323E+03  0.12700000000E+01 0. -1.
         -4   -1    0    0    0  501 -0.00000000000E+00 -0.00000000000E+00 -0.32028529743E+02  0.32053698967E+02  0.12700000000E+01 0. -1.
         25    2    1    2    0    0  0.00000000000E+00  0.00000000000E+00  0.89855787142E+02  0.15394463219E+03  0.12499954919E+03 0.  0.
    9000005    1    3    3    0    0  0.31588097867E+02  0.18374003976E+02  0.10735980053E+03  0.11341313292E+03  0.10000000000E+01 0.  0.
    9000005    1    3    3    0    0 -0.31588097867E+02 -0.18374003976E+02 -0.17504013384E+02  0.40531499275E+02  0.10000000000E+01 0.  0.
<mgrwt>
<rscale>  0 0.12499955E+03</rscale>
<asrwt>0</asrwt>
<pdfrwt beam="1">  1        4 0.18753878E-01 0.12499955E+03</pdfrwt>
<pdfrwt beam="2">  1       -4 0.49299112E-02 0.12499955E+03</pdfrwt>
<totfact> 0.98524079E+03</totfact>
</mgrwt>
</event>
<event>
 5    1  0.3199195E-002  0.1249967E+03  0.7818608E-02  0.1235074E+00
         -4   -1    0    0    0  501 -0.00000000000E+00  0.00000000000E+00  0.37303484573E+03  0.37303700759E+03  0.12700000000E+01 0. -1.
          4   -1    0    0  501    0  0.00000000000E+00 -0.00000000000E+00 -0.10430283415E+02  0.10507317075E+02  0.12700000000E+01 0. -1.
         25    2    1    2    0    0  0.00000000000E+00  0.00000000000E+00  0.36260456232E+03  0.38354432466E+03  0.12499672143E+03 0.  0.
    9000005    1    3    3    0    0  0.16780131508E+02 -0.59896519966E+02  0.16292259209E+03  0.17439592005E+03  0.10000000000E+01 0.  0.
    9000005    1    3    3    0    0 -0.16780131508E+02  0.59896519966E+02  0.19968197023E+03  0.20914840461E+03  0.10000000000E+01 0.  0.
<mgrwt>
<rscale>  0 0.12499672E+03</rscale>
<asrwt>0</asrwt>
<pdfrwt beam="2">  1        4 0.16107511E-02 0.12499672E+03</pdfrwt>
<pdfrwt beam="1">  1       -4 0.57396061E-01 0.12499672E+03</pdfrwt>
<totfact> 0.66190143E+03</totfact>
</mgrwt>
</event>
<event>
 5    1  0.3199195E-002  0.1249998E+03  0.7818608E-02  0.1235070E+00
          4   -1    0    0  501    0  0.00000000000E+00  0.00000000000E+00  0.14044561230E+04  0.14044566972E+04  0.12700000000E+01 0. -1.
         -4   -1    0    0    0  501 -0.00000000000E+00 -0.00000000000E+00 -0.26357378451E+01  0.29257501582E+01  0.12700000000E+01 0. -1.
         25    2    1    2    0    0  0.00000000000E+00  0.00000000000E+00  0.14018203852E+04  0.14073824474E+04  0.12499984367E+03 0.  0.
    9000005    1    3    3    0    0  0.54420688776E+02 -0.10411311643E+02  0.37551839544E+03  0.37958539499E+03  0.10000000000E+01 0.  0.
    9000005    1    3    3    0    0 -0.54420688776E+02  0.10411311643E+02  0.10263019897E+04  0.10277970524E+04  0.10000000000E+01 0.  0.
<mgrwt>
<rscale>  0 0.12499984E+03</rscale>
<asrwt>0</asrwt>
<pdfrwt beam="1">  1        4 0.21609304E+00 0.12499984E+03</pdfrwt>
<pdfrwt beam="2">  1       -4 0.42784992E-03 0.12499984E+03</pdfrwt>
<totfact> 0.19823050E+03</totfact>
</mgrwt>
</event>
<event>
 5    1  0.3199195E-002  0.1250021E+03  0.7818608E-02  0.1235066E+00
         -4   -1    0    0    0  501 -0.00000000000E+00  0.00000000000E+00  0.87337521461E+02  0.87346754690E+02  0.12700000000E+01 0.  1.
          4   -1    0    0  501    0  0.00000000000E+00 -0.00000000000E+00 -0.44706788138E+02  0.44724823148E+02  0.12700000000E+01 0.  1.
         25    2    1    2    0    0  0.00000000000E+00  0.00000000000E+00  0.42630733323E+02  0.13207157784E+03  0.12500208898E+03 0.  0.
    9000005    1    3    3    0    0 -0.31555268312E+02 -0.33278852286E+02 -0.23537396362E+02  0.51557986726E+02  0.10000000000E+01 0.  0.
    9000005    1    3    3    0    0  0.31555268312E+02  0.33278852286E+02  0.66168129685E+02  0.80513591112E+02  0.10000000000E+01 0.  0.
<mgrwt>
<rscale>  0 0.12500209E+03</rscale>
<asrwt>0</asrwt>
<pdfrwt beam="2">  1        4 0.68800650E-02 0.12500209E+03</pdfrwt>
<pdfrwt beam="1">  1       -4 0.13438639E-01 0.12500209E+03</pdfrwt>
<totfact> 0.10299685E+04</totfact>
</mgrwt>
</event>
<event>
 5    1  0.3199195E-002  0.1250003E+03  0.7818608E-02  0.1235069E+00
          4   -1    0    0  501    0  0.00000000000E+00  0.00000000000E+00  0.10436778767E+03  0.10437551438E+03  0.12700000000E+01 0. -1.
         -4   -1    0    0    0  501 -0.00000000000E+00 -0.00000000000E+00 -0.37408041786E+02  0.37429593776E+02  0.12700000000E+01 0. -1.
         25    2    1    2    0    0  0.00000000000E+00  0.00000000000E+00  0.66959745881E+02  0.14180510816E+03  0.12500032452E+03 0.  0.
    9000005    1    3    3    0    0  0.13385546601E+02 -0.24947434287E+02  0.96680619517E+02  0.10074566753E+03  0.10000000000E+01 0.  0.
    9000005    1    3    3    0    0 -0.13385546601E+02  0.24947434287E+02 -0.29720873635E+02  0.41059440632E+02  0.10000000000E+01 0.  0.
<mgrwt>
<rscale>  0 0.12500032E+03</rscale>
<asrwt>0</asrwt>
<pdfrwt beam="1">  1        4 0.16058835E-01 0.12500032E+03</pdfrwt>
<pdfrwt beam="2">  1       -4 0.57573356E-02 0.12500032E+03</pdfrwt>
<totfact> 0.10096236E+04</totfact>
</mgrwt>
</event>
<event>
 5    1  0.3199195E-002  0.1249988E+03  0.7818608E-02  0.1235071E+00
          4   -1    0    0  501    0  0.00000000000E+00  0.00000000000E+00  0.22133399474E+03  0.22133763830E+03  0.12700000000E+01 0.  1.
         -4   -1    0    0    0  501 -0.00000000000E+00 -0.00000000000E+00 -0.17621682405E+02  0.17667387774E+02  0.12700000000E+01 0.  1.
         25    2    1    2    0    0  0.00000000000E+00  0.00000000000E+00  0.20371231233E+03  0.23900502607E+03  0.12499878516E+03 0.  0.
    9000005    1    3    3    0    0 -0.24794772055E+02  0.34232362097E+02  0.13848704386E+02  0.44490695085E+02  0.10000000000E+01 0.  0.
    9000005    1    3    3    0    0  0.24794772055E+02 -0.34232362097E+02  0.18986360795E+03  0.19451433099E+03  0.10000000000E+01 0.  0.
<mgrwt>
<rscale>  0 0.12499879E+03</rscale>
<asrwt>0</asrwt>
<pdfrwt beam="1">  1        4 0.34055180E-01 0.12499879E+03</pdfrwt>
<pdfrwt beam="2">  1       -4 0.27148241E-02 0.12499879E+03</pdfrwt>
<totfact> 0.83948047E+03</totfact>
</mgrwt>
</event>
<event>
 5    1  0.3199195E-002  0.1249829E+03  0.7818608E-02  0.1235096E+00
         -4   -1    0    0    0  501 -0.00000000000E+00  0.00000000000E+00  0.76715886426E+01  0.77759997621E+01  0.12700000000E+01 0.  1.
          4   -1    0    0  501    0  0.00000000000E+00 -0.00000000000E+00 -0.50549861400E+03  0.50550020936E+03  0.12700000000E+01 0.  1.
         25    2    1    2    0    0  0.00000000000E+00  0.00000000000E+00 -0.49782702536E+03  0.51327620912E+03  0.12498287750E+03 0.  0.
    9000005    1    3    3    0    0 -0.47319685768E+02 -0.30394878099E+02 -0.36071872823E+03  0.36507807682E+03  0.10000000000E+01 0.  0.
    9000005    1    3    3    0    0  0.47319685768E+02  0.30394878099E+02 -0.13710829713E+03  0.14819813230E+03  0.10000000000E+01 0.  0.
<mgrwt>
<rscale>  0 0.12498288E+03</rscale>
<asrwt>0</asrwt>
<pdfrwt beam="2">  1        4 0.77777146E-01 0.12498288E+03</pdfrwt>
<pdfrwt beam="1">  1       -4 0.11883991E-02 0.12498288E+03</pdfrwt>
<totfact> 0.54869469E+03</totfact>
</mgrwt>
</event>
<event>
 5    1  0.3199195E-002  0.1249988E+03  0.7818608E-02  0.1235071E+00
          4   -1    0    0  501    0  0.00000000000E+00  0.00000000000E+00  0.30186495950E+02  0.30213199727E+02  0.12700000000E+01 0.  1.
         -4   -1    0    0    0  501 -0.00000000000E+00 -0.00000000000E+00 -0.12931442721E+03  0.12932066341E+03  0.12700000000E+01 0.  1.
         25    2    1    2    0    0  0.00000000000E+00  0.00000000000E+00 -0.99127931257E+02  0.15953386313E+03  0.12499882692E+03 0.  0.
    9000005    1    3    3    0    0 -0.41900351823E+02  0.45008712013E+02 -0.63761890951E+02  0.88588951781E+02  0.10000000000E+01 0.  0.
    9000005    1    3    3    0    0  0.41900351823E+02 -0.45008712013E+02 -0.35366040305E+02  0.70944911352E+02  0.10000000000E+01 0.  0.
<mgrwt>
<rscale>  0 0.12499883E+03</rscale>
<asrwt>0</asrwt>
<pdfrwt beam="1">  1        4 0.46466102E-02 0.12499883E+03</pdfrwt>
<pdfrwt beam="2">  1       -4 0.19897061E-01 0.12499883E+03</pdfrwt>
<totfact> 0.97435297E+03</totfact>
</mgrwt>
</event>
<event>
 5    1  0.3199195E-002  0.1250003E+03  0.7818608E-02  0.1235069E+00
          4   -1    0    0  501    0  0.00000000000E+00  0.00000000000E+00  0.15387119472E+02  0.15439441235E+02  0.12700000000E+01 0. -1.
         -4   -1    0    0    0  501 -0.00000000000E+00 -0.00000000000E+00 -0.25338144808E+03  0.25338463081E+03  0.12700000000E+01 0. -1.
         25    2    1    2    0    0  0.00000000000E+00  0.00000000000E+00 -0.23799432860E+03  0.26882407204E+03  0.12500032504E+03 0.  0.
    9000005    1    3    3    0    0 -0.37622488834E+02  0.30193173340E+02 -0.20443235339E+03  0.21004920018E+03  0.10000000000E+01 0.  0.
    9000005    1    3    3    0    0  0.37622488834E+02 -0.30193173340E+02 -0.33561975214E+02  0.58774871864E+02  0.10000000000E+01 0.  0.
<mgrwt>
<rscale>  0 0.12500033E+03</rscale>
<asrwt>0</asrwt>
<pdfrwt beam="1">  1        4 0.23715189E-02 0.12500033E+03</pdfrwt>
<pdfrwt beam="2">  1       -4 0.38986028E-01 0.12500033E+03</pdfrwt>
<totfact> 0.79682882E+03</totfact>
</mgrwt>
</event>
<event>
 5    1  0.3199195E-002  0.1249957E+03  0.7818608E-02  0.1235076E+00
         -4   -1    0    0    0  501 -0.00000000000E+00  0.00000000000E+00  0.14774222651E+03  0.14774768490E+03  0.12700000000E+01 0.  1.
          4   -1    0    0  501    0  0.00000000000E+00 -0.00000000000E+00 -0.26416610329E+02  0.26447120850E+02  0.12700000000E+01 0.  1.
         25    2    1    2    0    0  0.00000000000E+00  0.00000000000E+00  0.12132561618E+03  0.17419480575E+03  0.12499570077E+03 0.  0.
    9000005    1    3    3    0    0 -0.20627184749E+02  0.18301447375E+02 -0.17485557689E+02  0.32667544358E+02  0.10000000000E+01 0.  0.
    9000005    1    3    3    0    0  0.20627184749E+02 -0.18301447375E+02  0.13881117387E+03  0.14152726140E+03  0.10000000000E+01 0.  0.
<mgrwt>
<rscale>  0 0.12499570E+03</rscale>
<asrwt>0</asrwt>
<pdfrwt beam="2">  1        4 0.40668607E-02 0.12499570E+03</pdfrwt>
<pdfrwt beam="1">  1       -4 0.22732340E-01 0.12499570E+03</pdfrwt>
<totfact> 0.94681649E+03</totfact>
</mgrwt>
</event>
<event>
 5    1  0.3199195E-002  0.1249995E+03  0.7818608E-02  0.1235070E+00
          4   -1    0    0  501    0  0.00000000000E+00  0.00000000000E+00  0.47600917495E+02  0.47617856381E+02  0.12700000000E+01 0. -1.
         -4   -1    0    0    0  501 -0.00000000000E+00 -0.00000000000E+00 -0.82025396617E+02  0.82035227739E+02  0.12700000000E+01 0. -1.
         25    2    1    2    0    0  0.00000000000E+00  0.00000000000E+00 -0.34424479122E+02  0.12965308412E+03  0.12499950984E+03 0.  0.
    9000005    1    3    3    0    0 -0.48530397488E+01 -0.12223554284E+02  0.46154305251E+02  0.48001949620E+02  0.10000000000E+01 0.  0.
    9000005    1    3    3    0    0  0.48530397488E+01  0.12223554284E+02 -0.80578784373E+02  0.81651134500E+02  0.10000000000E+01 0.  0.
<mgrwt>
<rscale>  0 0.12499951E+03</rscale>
<asrwt>0</asrwt>
<pdfrwt beam="1">  1        4 0.73252773E-02 0.12499951E+03</pdfrwt>
<pdfrwt beam="2">  1       -4 0.12621351E-01 0.12499951E+03</pdfrwt>
<totfact> 0.10352049E+04</totfact>
</mgrwt>
</event>
<event>
 5    1  0.3199195E-002  0.1250048E+03  0.7818608E-02  0.1235062E+00
          4   -1    0    0  501    0  0.00000000000E+00  0.00000000000E+00  0.74218017787E+02  0.74228882952E+02  0.12700000000E+01 0. -1.
         -4   -1    0    0    0  501 -0.00000000000E+00 -0.00000000000E+00 -0.52613735564E+02  0.52629061078E+02  0.12700000000E+01 0. -1.
         25    2    1    2    0    0  0.00000000000E+00  0.00000000000E+00  0.21604282224E+02  0.12685794403E+03  0.12500477172E+03 0.  0.
    9000005    1    3    3    0    0  0.10811669239E+02 -0.20034987426E+02 -0.48260796592E+02  0.53370379431E+02  0.10000000000E+01 0.  0.
    9000005    1    3    3    0    0 -0.10811669239E+02  0.20034987426E+02  0.69865078815E+02  0.73487564600E+02  0.10000000000E+01 0.  0.
<mgrwt>
<rscale>  0 0.12500477E+03</rscale>
<asrwt>0</asrwt>
<pdfrwt beam="1">  1        4 0.11420171E-01 0.12500477E+03</pdfrwt>
<pdfrwt beam="2">  1       -4 0.80964356E-02 0.12500477E+03</pdfrwt>
<totfact> 0.10411112E+04</totfact>
</mgrwt>
</event>
<event>
 5    1  0.3199195E-002  0.1249975E+03  0.7818608E-02  0.1235073E+00
         -4   -1    0    0    0  501 -0.00000000000E+00  0.00000000000E+00  0.20436490518E+03  0.20436885127E+03  0.12700000000E+01 0. -1.
          4   -1    0    0  501    0  0.00000000000E+00 -0.00000000000E+00 -0.19088105702E+02  0.19130307872E+02  0.12700000000E+01 0. -1.
         25    2    1    2    0    0  0.00000000000E+00  0.00000000000E+00  0.18527679947E+03  0.22349915914E+03  0.12499752682E+03 0.  0.
    9000005    1    3    3    0    0 -0.68022175088E+01  0.36387353866E+02  0.26171368538E+01  0.37123565153E+02  0.10000000000E+01 0.  0.
    9000005    1    3    3    0    0  0.68022175088E+01 -0.36387353866E+02  0.18265966262E+03  0.18637559398E+03  0.10000000000E+01 0.  0.
<mgrwt>
<rscale>  0 0.12499753E+03</rscale>
<asrwt>0</asrwt>
<pdfrwt beam="2">  1        4 0.29401816E-02 0.12499753E+03</pdfrwt>
<pdfrwt beam="1">  1       -4 0.31444304E-01 0.12499753E+03</pdfrwt>
<totfact> 0.86322431E+03</totfact>
</mgrwt>
</event>
<event>
 5    1  0.3199195E-002  0.1250045E+03  0.7818608E-02  0.1235062E+00
          4   -1    0    0  501    0  0.00000000000E+00  0.00000000000E+00  0.38090297344E+01  0.40151721653E+01  0.12700000000E+01 0. -1.
         -4   -1    0    0    0  501 -0.00000000000E+00 -0.00000000000E+00 -0.99836899835E+03  0.99836980611E+03  0.12700000000E+01 0. -1.
         25    2    1    2    0    0  0.00000000000E+00  0.00000000000E+00 -0.99455996861E+03  0.10023849783E+04  0.12500445398E+03 0.  0.
    9000005    1    3    3    0    0  0.27273997753E+02  0.56223255832E+02 -0.50350645585E+03  0.50737035441E+03  0.10000000000E+01 0.  0.
    9000005    1    3    3    0    0 -0.27273997753E+02 -0.56223255832E+02 -0.49105351277E+03  0.49501462387E+03  0.10000000000E+01 0.  0.
<mgrwt>
<rscale>  0 0.12500445E+03</rscale>
<asrwt>0</asrwt>
<pdfrwt beam="1">  1        4 0.60192461E-03 0.12500445E+03</pdfrwt>
<pdfrwt beam="2">  1       -4 0.15361095E+00 0.12500445E+03</pdfrwt>
<totfact> 0.30522941E+03</totfact>
</mgrwt>
</event>
<event>
 5    1  0.3199195E-002  0.1249994E+03  0.7818608E-02  0.1235070E+00
          4   -1    0    0  501    0  0.00000000000E+00  0.00000000000E+00  0.18137365296E+02  0.18181774387E+02  0.12700000000E+01 0.  1.
         -4   -1    0    0    0  501 -0.00000000000E+00 -0.00000000000E+00 -0.21505845880E+03  0.21506220867E+03  0.12700000000E+01 0.  1.
         25    2    1    2    0    0  0.00000000000E+00  0.00000000000E+00 -0.19692109350E+03  0.23324398306E+03  0.12499935427E+03 0.  0.
    9000005    1    3    3    0    0  0.46626886946E+00 -0.52087074015E+02 -0.16288160651E+03  0.17101081376E+03  0.10000000000E+01 0.  0.
    9000005    1    3    3    0    0 -0.46626886946E+00  0.52087074015E+02 -0.34039486995E+02  0.62233169298E+02  0.10000000000E+01 0.  0.
<mgrwt>
<rscale>  0 0.12499935E+03</rscale>
<asrwt>0</asrwt>
<pdfrwt beam="1">  1        4 0.27940686E-02 0.12499935E+03</pdfrwt>
<pdfrwt beam="2">  1       -4 0.33089620E-01 0.12499935E+03</pdfrwt>
<totfact> 0.84815179E+03</totfact>
</mgrwt>
</event>
<event>
 5    1  0.3199195E-002  0.1249993E+03  0.7818608E-02  0.1235070E+00
          4   -1    0    0  501    0  0.00000000000E+00  0.00000000000E+00  0.13667647726E+03  0.13668237756E+03  0.12700000000E+01 0.  1.
         -4   -1    0    0    0  501 -0.00000000000E+00 -0.00000000000E+00 -0.28559314608E+02  0.28587538384E+02  0.12700000000E+01 0.  1.
         25    2    1    2    0    0  0.00000000000E+00  0.00000000000E+00  0.10811716265E+03  0.16526991595E+03  0.12499929703E+03 0.  0.
    9000005    1    3    3    0    0  0.18416895978E+02  0.11145520694E+01  0.13299959709E+03  0.13427701631E+03  0.10000000000E+01 0.  0.
    9000005    1    3    3    0    0 -0.18416895978E+02 -0.11145520694E+01 -0.24882434441E+02  0.30992899631E+02  0.10000000000E+01 0.  0.
<mgrwt>
<rscale>  0 0.12499930E+03</rscale>
<asrwt>0</asrwt>
<pdfrwt beam="1">  1        4 0.21029775E-01 0.12499930E+03</pdfrwt>
<pdfrwt beam="2">  1       -4 0.43963657E-02 0.12499930E+03</pdfrwt>
<totfact> 0.96337820E+03</totfact>
</mgrwt>
</event>
<event>
 5    1  0.3199195E-002  0.1249985E+03  0.7818608E-02  0.1235072E+00
          4   -1    0    0  501    0  0.00000000000E+00  0.00000000000E+00  0.93048553131E+01  0.93911251933E+01  0.12700000000E+01 0.  1.
         -4   -1    0    0    0  501 -0.00000000000E+00 -0.00000000000E+00 -0.41777314219E+03  0.41777507254E+03  0.12700000000E+01 0.  1.
         25    2    1    2    0    0  0.00000000000E+00  0.00000000000E+00 -0.40846828688E+03  0.42716619773E+03  0.12499847640E+03 0.  0.
    9000005    1    3    3    0    0  0.39914734009E+02 -0.43330460119E+02 -0.13300510736E+03  0.14547189883E+03  0.10000000000E+01 0.  0.
    9000005    1    3    3    0    0 -0.39914734009E+02  0.43330460119E+02 -0.27546317952E+03  0.28169429891E+03  0.10000000000E+01 0.  0.
<mgrwt>
<rscale>  0 0.12499848E+03</rscale>
<asrwt>0</asrwt>
<pdfrwt beam="1">  1        4 0.14383012E-02 0.12499848E+03</pdfrwt>
<pdfrwt beam="2">  1       -4 0.64279561E-01 0.12499848E+03</pdfrwt>
<totfact> 0.61995790E+03</totfact>
</mgrwt>
</event>
<event>
 5    1  0.3199195E-002  0.1249995E+03  0.7818608E-02  0.1235070E+00
         -4   -1    0    0    0  501 -0.00000000000E+00  0.00000000000E+00  0.28870263363E+04  0.28870266156E+04  0.12700000000E+01 0. -1.
          4   -1    0    0  501    0  0.00000000000E+00 -0.00000000000E+00 -0.10546674585E+01  0.16508250810E+01  0.12700000000E+01 0. -1.
         25    2    1    2    0    0  0.00000000000E+00  0.00000000000E+00  0.28859716688E+04  0.28886774407E+04  0.12499953260E+03 0.  0.
    9000005    1    3    3    0    0 -0.86640964324E+01 -0.47145141152E+02  0.23695271404E+04  0.23700121519E+04  0.10000000000E+01 0.  0.
    9000005    1    3    3    0    0  0.86640964324E+01  0.47145141152E+02  0.51644452843E+03  0.51866528884E+03  0.10000000000E+01 0.  0.
<mgrwt>
<rscale>  0 0.12499953E+03</rscale>
<asrwt>0</asrwt>
<pdfrwt beam="2">  1        4 0.20813603E-03 0.12499953E+03</pdfrwt>
<pdfrwt beam="1">  1       -4 0.44420434E+00 0.12499953E+03</pdfrwt>
<totfact> 0.22832042E+02</totfact>
</mgrwt>
</event>
<event>
 5    1  0.3199195E-002  0.1250063E+03  0.7818608E-02  0.1235060E+00
          4   -1    0    0  501    0  0.00000000000E+00  0.00000000000E+00  0.96063286966E+02  0.96071681586E+02  0.12700000000E+01 0. -1.
         -4   -1    0    0    0  501 -0.00000000000E+00 -0.00000000000E+00 -0.40647275296E+02  0.40667110655E+02  0.12700000000E+01 0. -1.
         25    2    1    2    0    0  0.00000000000E+00  0.00000000000E+00  0.55416011670E+02  0.13673879224E+03  0.12500625166E+03 0.  0.
    9000005    1    3    3    0    0 -0.38981314640E+02 -0.41879428193E+02  0.55211707466E+02  0.79515797413E+02  0.10000000000E+01 0.  0.
    9000005    1    3    3    0    0  0.38981314640E+02  0.41879428193E+02  0.20430420408E+00  0.57222994828E+02  0.10000000000E+01 0.  0.
<mgrwt>
<rscale>  0 0.12500625E+03</rscale>
<asrwt>0</asrwt>
<pdfrwt beam="1">  1        4 0.14781139E-01 0.12500625E+03</pdfrwt>
<pdfrwt beam="2">  1       -4 0.62555985E-02 0.12500625E+03</pdfrwt>
<totfact> 0.10200112E+04</totfact>
</mgrwt>
</event>
<event>
 5    1  0.3199195E-002  0.1249983E+03  0.7818608E-02  0.1235072E+00
          4   -1    0    0  501    0  0.00000000000E+00  0.00000000000E+00  0.18740177698E+03  0.18740608025E+03  0.12700000000E+01 0. -1.
         -4   -1    0    0    0  501 -0.00000000000E+00 -0.00000000000E+00 -0.20819800626E+02  0.20858499421E+02  0.12700000000E+01 0. -1.
         25    2    1    2    0    0  0.00000000000E+00  0.00000000000E+00  0.16658197635E+03  0.20826457967E+03  0.12499832119E+03 0.  0.
    9000005    1    3    3    0    0 -0.45757099384E+02 -0.42950763922E+01  0.15384140636E+03  0.16056256767E+03  0.10000000000E+01 0.  0.
    9000005    1    3    3    0    0  0.45757099384E+02  0.42950763922E+01  0.12740569989E+02  0.47702012001E+02  0.10000000000E+01 0.  0.
<mgrwt>
<rscale>  0 0.12499832E+03</rscale>
<asrwt>0</asrwt>
<pdfrwt beam="1">  1        4 0.28834350E-01 0.12499832E+03</pdfrwt>
<pdfrwt beam="2">  1       -4 0.32063542E-02 0.12499832E+03</pdfrwt>
<totfact> 0.88763416E+03</totfact>
</mgrwt>
</event>
<event>
 5    1  0.3199195E-002  0.1249979E+03  0.7818608E-02  0.1235073E+00
          4   -1    0    0  501    0  0.00000000000E+00  0.00000000000E+00  0.19372271482E+03  0.19372687768E+03  0.12700000000E+01 0.  1.
         -4   -1    0    0    0  501 -0.00000000000E+00 -0.00000000000E+00 -0.20139058255E+02  0.20179062600E+02  0.12700000000E+01 0.  1.
         25    2    1    2    0    0  0.00000000000E+00  0.00000000000E+00  0.17358365656E+03  0.21390594028E+03  0.12499786183E+03 0.  0.
    9000005    1    3    3    0    0 -0.58484483232E+02  0.21946751895E+02  0.83817125180E+02  0.10453901267E+03  0.10000000000E+01 0.  0.
    9000005    1    3    3    0    0  0.58484483232E+02 -0.21946751895E+02  0.89766531380E+02  0.10936692760E+03  0.10000000000E+01 0.  0.
<mgrwt>
<rscale>  0 0.12499786E+03</rscale>
<asrwt>0</asrwt>
<pdfrwt beam="1">  1        4 0.29806891E-01 0.12499786E+03</pdfrwt>
<pdfrwt beam="2">  1       -4 0.31017143E-02 0.12499786E+03</pdfrwt>
<totfact> 0.87846135E+03</totfact>
</mgrwt>
</event>
<event>
 5    1  0.3199195E-002  0.1250014E+03  0.7818608E-02  0.1235067E+00
          4   -1    0    0  501    0  0.00000000000E+00  0.00000000000E+00  0.48216836012E+02  0.48233558598E+02  0.12700000000E+01 0.  1.
         -4   -1    0    0    0  501 -0.00000000000E+00 -0.00000000000E+00 -0.80980248070E+02  0.80990206059E+02  0.12700000000E+01 0.  1.
         25    2    1    2    0    0  0.00000000000E+00  0.00000000000E+00 -0.32763412058E+02  0.12922376466E+03  0.12500136072E+03 0.  0.
    9000005    1    3    3    0    0 -0.49955020857E+02 -0.72861929992E+01  0.21696487411E+02  0.54957531633E+02  0.10000000000E+01 0.  0.
    9000005    1    3    3    0    0  0.49955020857E+02  0.72861929992E+01 -0.54459899469E+02  0.74266233023E+02  0.10000000000E+01 0.  0.
<mgrwt>
<rscale>  0 0.12500136E+03</rscale>
<asrwt>0</asrwt>
<pdfrwt beam="1">  1        4 0.74200271E-02 0.12500136E+03</pdfrwt>
<pdfrwt beam="2">  1       -4 0.12460552E-01 0.12500136E+03</pdfrwt>
<totfact> 0.10360823E+04</totfact>
</mgrwt>
</event>
<event>
 5    1  0.3199195E-002  0.1249859E+03  0.7818608E-02  0.1235091E+00
         -4   -1    0    0    0  501 -0.00000000000E+00  0.00000000000E+00  0.14548742507E+03  0.14549296805E+03  0.12700000000E+01 0. -1.
          4   -1    0    0  501    0  0.00000000000E+00 -0.00000000000E+00 -0.26822266204E+02  0.26852315809E+02  0.12700000000E+01 0. -1.
         25    2    1    2    0    0  0.00000000000E+00  0.00000000000E+00  0.11866515887E+03  0.17234528386E+03  0.12498590697E+03 0.  0.
    9000005    1    3    3    0    0  0.38951362974E+02 -0.15460881800E+02  0.12324242939E+03  0.13017658755E+03  0.10000000000E+01 0.  0.
    9000005    1    3    3    0    0 -0.38951362974E+02  0.15460881800E+02 -0.45772705243E+01  0.42168696317E+02  0.10000000000E+01 0.  0.
<mgrwt>
<rscale>  0 0.12498591E+03</rscale>
<asrwt>0</asrwt>
<pdfrwt beam="2">  1        4 0.41292403E-02 0.12498591E+03</pdfrwt>
<pdfrwt beam="1">  1       -4 0.22385419E-01 0.12498591E+03</pdfrwt>
<totfact> 0.95043359E+03</totfact>
</mgrwt>
</event>
<event>
 5    1  0.3199195E-002  0.1249898E+03  0.7818608E-02  0.1235085E+00
         -4   -1    0    0    0  501 -0.00000000000E+00  0.00000000000E+00  0.95699731698E+03  0.95699815967E+03  0.12700000000E+01 0. -1.
          4   -1    0    0  501    0  0.00000000000E+00 -0.00000000000E+00 -0.39814465161E+01  0.41790927677E+01  0.12700000000E+01 0. -1.
         25    2    1    2    0    0  0.00000000000E+00  0.00000000000E+00  0.95301587047E+03  0.96117725244E+03  0.12498984456E+03 0.  0.
    9000005    1    3    3    0    0 -0.46005030879E+02 -0.41535672563E+02  0.53751685433E+03  0.54107951694E+03  0.10000000000E+01 0.  0.
    9000005    1    3    3    0    0  0.46005030879E+02  0.41535672563E+02  0.41549901613E+03  0.42009773550E+03  0.10000000000E+01 0.  0.
<mgrwt>
<rscale>  0 0.12498984E+03</rscale>
<asrwt>0</asrwt>
<pdfrwt beam="2">  1        4 0.62779817E-03 0.12498984E+03</pdfrwt>
<pdfrwt beam="1">  1       -4 0.14724573E+00 0.12498984E+03</pdfrwt>
<totfact> 0.31929477E+03</totfact>
</mgrwt>
</event>
<event>
 5    1  0.3199195E-002  0.1250037E+03  0.7818608E-02  0.1235064E+00
         -4   -1    0    0    0  501 -0.00000000000E+00  0.00000000000E+00  0.27253552230E+03  0.27253848135E+03  0.12700000000E+01 0. -1.
          4   -1    0    0  501    0  0.00000000000E+00 -0.00000000000E+00 -0.14302660881E+02  0.14358934789E+02  0.12700000000E+01 0. -1.
         25    2    1    2    0    0  0.00000000000E+00  0.00000000000E+00  0.25823286142E+03  0.28689741614E+03  0.12500366662E+03 0.  0.
    9000005    1    3    3    0    0  0.38409852029E+02 -0.51556798527E+01  0.24163735791E+03  0.24472742083E+03  0.10000000000E+01 0.  0.
    9000005    1    3    3    0    0 -0.38409852029E+02  0.51556798527E+01  0.16595503509E+02  0.42169995309E+02  0.10000000000E+01 0.  0.
<mgrwt>
<rscale>  0 0.12500367E+03</rscale>
<asrwt>0</asrwt>
<pdfrwt beam="2">  1        4 0.22049657E-02 0.12500367E+03</pdfrwt>
<pdfrwt beam="1">  1       -4 0.41933099E-01 0.12500367E+03</pdfrwt>
<totfact> 0.77266061E+03</totfact>
</mgrwt>
</event>
<event>
 5    1  0.3199195E-002  0.1249923E+03  0.7818608E-02  0.1235081E+00
         -4   -1    0    0    0  501 -0.00000000000E+00  0.00000000000E+00  0.10444659827E+03  0.10445431915E+03  0.12700000000E+01 0.  1.
          4   -1    0    0  501    0  0.00000000000E+00 -0.00000000000E+00 -0.37374982563E+02  0.37396553606E+02  0.12700000000E+01 0.  1.
         25    2    1    2    0    0  0.00000000000E+00  0.00000000000E+00  0.67071615703E+02  0.14185087276E+03  0.12499227364E+03 0.  0.
    9000005    1    3    3    0    0  0.50360632763E+02  0.36848282332E+02  0.29810043386E+02  0.69163776140E+02  0.10000000000E+01 0.  0.
    9000005    1    3    3    0    0 -0.50360632763E+02 -0.36848282332E+02  0.37261572317E+02  0.72687096618E+02  0.10000000000E+01 0.  0.
<mgrwt>
<rscale>  0 0.12499227E+03</rscale>
<asrwt>0</asrwt>
<pdfrwt beam="2">  1        4 0.57522506E-02 0.12499227E+03</pdfrwt>
<pdfrwt beam="1">  1       -4 0.16070961E-01 0.12499227E+03</pdfrwt>
<totfact> 0.10097126E+04</totfact>
</mgrwt>
</event>
<event>
 5    1  0.3199195E-002  0.1250116E+03  0.7818608E-02  0.1235051E+00
          4   -1    0    0  501    0  0.00000000000E+00  0.00000000000E+00  0.26575296771E+03  0.26575600228E+03  0.12700000000E+01 0. -1.
         -4   -1    0    0    0  501 -0.00000000000E+00 -0.00000000000E+00 -0.14670969752E+02  0.14725836257E+02  0.12700000000E+01 0. -1.
         25    2    1    2    0    0  0.00000000000E+00  0.00000000000E+00  0.25108199796E+03  0.28048183853E+03  0.12501156766E+03 0.  0.
    9000005    1    3    3    0    0 -0.41663315598E+02 -0.28521759188E+02  0.42901339771E+02  0.66263470841E+02  0.10000000000E+01 0.  0.
    9000005    1    3    3    0    0  0.41663315598E+02  0.28521759188E+02  0.20818065818E+03  0.21421836769E+03  0.10000000000E+01 0.  0.
<mgrwt>
<rscale>  0 0.12501157E+03</rscale>
<asrwt>0</asrwt>
<pdfrwt beam="1">  1        4 0.40889521E-01 0.12501157E+03</pdfrwt>
<pdfrwt beam="2">  1       -4 0.22615265E-02 0.12501157E+03</pdfrwt>
<totfact> 0.78094181E+03</totfact>
</mgrwt>
</event>
<event>
 5    1  0.3199195E-002  0.1249988E+03  0.7818608E-02  0.1235071E+00
          4   -1    0    0  501    0  0.00000000000E+00  0.00000000000E+00  0.11453835724E+04  0.11453842764E+04  0.12700000000E+01 0.  1.
         -4   -1    0    0    0  501 -0.00000000000E+00 -0.00000000000E+00 -0.32914013002E+01  0.35279204241E+01  0.12700000000E+01 0.  1.
         25    2    1    2    0    0  0.00000000000E+00  0.00000000000E+00  0.11420921711E+04  0.11489121969E+04  0.12499883569E+03 0.  0.
    9000005    1    3    3    0    0 -0.57407435937E+02  0.19967543471E+02  0.70451457120E+03  0.70713230553E+03  0.10000000000E+01 0.  0.
    9000005    1    3    3    0    0  0.57407435937E+02 -0.19967543471E+02  0.43757759986E+03  0.44177989134E+03  0.10000000000E+01 0.  0.
<mgrwt>
<rscale>  0 0.12499884E+03</rscale>
<asrwt>0</asrwt>
<pdfrwt beam="1">  1        4 0.17623091E+00 0.12499884E+03</pdfrwt>
<pdfrwt beam="2">  1       -4 0.52461794E-03 0.12499884E+03</pdfrwt>
<totfact> 0.26091130E+03</totfact>
</mgrwt>
</event>
<event>
 5    1  0.3199195E-002  0.1249996E+03  0.7818608E-02  0.1235070E+00
          4   -1    0    0  501    0  0.00000000000E+00  0.00000000000E+00  0.16933293501E+03  0.16933769746E+03  0.12700000000E+01 0. -1.
         -4   -1    0    0    0  501 -0.00000000000E+00 -0.00000000000E+00 -0.23045751868E+02  0.23080718775E+02  0.12700000000E+01 0. -1.
         25    2    1    2    0    0  0.00000000000E+00  0.00000000000E+00  0.14628718314E+03  0.19241841623E+03  0.12499962781E+03 0.  0.
    9000005    1    3    3    0    0  0.50339012620E+02 -0.15518119269E+02  0.21388425543E+02  0.56862052059E+02  0.10000000000E+01 0.  0.
    9000005    1    3    3    0    0 -0.50339012620E+02  0.15518119269E+02  0.12489875760E+03  0.13555636417E+03  0.10000000000E+01 0.  0.
<mgrwt>
<rscale>  0 0.12499963E+03</rscale>
<asrwt>0</asrwt>
<pdfrwt beam="1">  1        4 0.26054276E-01 0.12499963E+03</pdfrwt>
<pdfrwt beam="2">  1       -4 0.35485565E-02 0.12499963E+03</pdfrwt>
<totfact> 0.91428975E+03</totfact>
</mgrwt>
</event>
<event>
 5    1  0.3199195E-002  0.1250232E+03  0.7818608E-02  0.1235033E+00
         -4   -1    0    0    0  501 -0.00000000000E+00  0.00000000000E+00  0.15856985627E+03  0.15857494195E+03  0.12700000000E+01 0. -1.
          4   -1    0    0  501    0  0.00000000000E+00 -0.00000000000E+00 -0.24621539468E+02  0.24654271552E+02  0.12700000000E+01 0. -1.
         25    2    1    2    0    0  0.00000000000E+00  0.00000000000E+00  0.13394831680E+03  0.18322921351E+03  0.12502317029E+03 0.  0.
    9000005    1    3    3    0    0  0.25736427323E+02 -0.34144427542E+02  0.15846850463E+00  0.42769507080E+02  0.10000000000E+01 0.  0.
    9000005    1    3    3    0    0 -0.25736427323E+02  0.34144427542E+02  0.13378984829E+03  0.14045970643E+03  0.10000000000E+01 0.  0.
<mgrwt>
<rscale>  0 0.12502317E+03</rscale>
<asrwt>0</asrwt>
<pdfrwt beam="2">  1        4 0.37908381E-02 0.12502317E+03</pdfrwt>
<pdfrwt beam="1">  1       -4 0.24398272E-01 0.12502317E+03</pdfrwt>
<totfact> 0.92990638E+03</totfact>
</mgrwt>
</event>
<event>
 5    1  0.3199195E-002  0.1250040E+03  0.7818608E-02  0.1235063E+00
         -4   -1    0    0    0  501 -0.00000000000E+00  0.00000000000E+00  0.32769576020E+01  0.35144489078E+01  0.12700000000E+01 0.  1.
          4   -1    0    0  501    0  0.00000000000E+00 -0.00000000000E+00 -0.11501865436E+04  0.11501872447E+04  0.12700000000E+01 0.  1.
         25    2    1    2    0    0  0.00000000000E+00  0.00000000000E+00 -0.11469095860E+04  0.11537016936E+04  0.12500399789E+03 0.  0.
    9000005    1    3    3    0    0 -0.27575216214E+02 -0.13294525811E+02 -0.10762928334E+04  0.10767285638E+04  0.10000000000E+01 0.  0.
    9000005    1    3    3    0    0  0.27575216214E+02  0.13294525811E+02 -0.70616752614E+02  0.76973129828E+02  0.10000000000E+01 0.  0.
<mgrwt>
<rscale>  0 0.12500400E+03</rscale>
<asrwt>0</asrwt>
<pdfrwt beam="2">  1        4 0.17696979E+00 0.12500400E+03</pdfrwt>
<pdfrwt beam="1">  1       -4 0.52247074E-03 0.12500400E+03</pdfrwt>
<totfact> 0.25955538E+03</totfact>
</mgrwt>
</event>
<event>
 5    1  0.3199195E-002  0.1250012E+03  0.7818608E-02  0.1235067E+00
         -4   -1    0    0    0  501 -0.00000000000E+00  0.00000000000E+00  0.11421974764E+04  0.11421981825E+04  0.12700000000E+01 0. -1.
          4   -1    0    0  501    0  0.00000000000E+00 -0.00000000000E+00 -0.33013759594E+01  0.35372281840E+01  0.12700000000E+01 0. -1.
         25    2    1    2    0    0  0.00000000000E+00  0.00000000000E+00  0.11388961004E+04  0.11457354106E+04  0.12500121433E+03 0.  0.
    9000005    1    3    3    0    0  0.98721432596E+00 -0.14346010793E+02  0.12024316091E+02  0.18771435620E+02  0.10000000000E+01 0.  0.
    9000005    1    3    3    0    0 -0.98721432596E+00  0.14346010793E+02  0.11268717844E+04  0.11269639750E+04  0.10000000000E+01 0.  0.
<mgrwt>
<rscale>  0 0.12500121E+03</rscale>
<asrwt>0</asrwt>
<pdfrwt beam="2">  1        4 0.52610003E-03 0.12500121E+03</pdfrwt>
<pdfrwt beam="1">  1       -4 0.17574114E+00 0.12500121E+03</pdfrwt>
<totfact> 0.26178115E+03</totfact>
</mgrwt>
</event>
<event>
 5    1  0.3199195E-002  0.1249990E+03  0.7818608E-02  0.1235071E+00
         -4   -1    0    0    0  501 -0.00000000000E+00  0.00000000000E+00  0.61646294746E+02  0.61659375248E+02  0.12700000000E+01 0.  1.
          4   -1    0    0  501    0  0.00000000000E+00 -0.00000000000E+00 -0.63338330545E+02  0.63351061682E+02  0.12700000000E+01 0.  1.
         25    2    1    2    0    0  0.00000000000E+00  0.00000000000E+00 -0.16920357981E+01  0.12501043693E+03  0.12499898542E+03 0.  0.
    9000005    1    3    3    0    0  0.43863520303E+02 -0.37573919744E+02  0.23017826307E+02  0.62182217604E+02  0.10000000000E+01 0.  0.
    9000005    1    3    3    0    0 -0.43863520303E+02  0.37573919744E+02 -0.24709862105E+02  0.62828219325E+02  0.10000000000E+01 0.  0.
<mgrwt>
<rscale>  0 0.12499899E+03</rscale>
<asrwt>0</asrwt>
<pdfrwt beam="2">  1        4 0.97463441E-02 0.12499899E+03</pdfrwt>
<pdfrwt beam="1">  1       -4 0.94860308E-02 0.12499899E+03</pdfrwt>
<totfact> 0.10452876E+04</totfact>
</mgrwt>
</event>
<event>
 5    1  0.3199195E-002  0.1249956E+03  0.7818608E-02  0.1235076E+00
          4   -1    0    0  501    0  0.00000000000E+00  0.00000000000E+00  0.50038501169E+02  0.50054615165E+02  0.12700000000E+01 0. -1.
         -4   -1    0    0    0  501 -0.00000000000E+00 -0.00000000000E+00 -0.78025519318E+02  0.78035854355E+02  0.12700000000E+01 0. -1.
         25    2    1    2    0    0  0.00000000000E+00  0.00000000000E+00 -0.27987018149E+02  0.12809046952E+03  0.12499558071E+03 0.  0.
    9000005    1    3    3    0    0  0.45104804976E+02  0.38962625307E+01  0.30146765001E+02  0.54400843133E+02  0.10000000000E+01 0.  0.
    9000005    1    3    3    0    0 -0.45104804976E+02 -0.38962625307E+01 -0.58133783150E+02  0.73689626386E+02  0.10000000000E+01 0.  0.
<mgrwt>
<rscale>  0 0.12499558E+03</rscale>
<asrwt>0</asrwt>
<pdfrwt beam="1">  1        4 0.77002654E-02 0.12499558E+03</pdfrwt>
<pdfrwt beam="2">  1       -4 0.12005961E-01 0.12499558E+03</pdfrwt>
<totfact> 0.10386570E+04</totfact>
</mgrwt>
</event>
<event>
 5    1  0.3199195E-002  0.1249992E+03  0.7818608E-02  0.1235071E+00
         -4   -1    0    0    0  501 -0.00000000000E+00  0.00000000000E+00  0.24642454394E+02  0.24675158735E+02  0.12700000000E+01 0. -1.
          4   -1    0    0  501    0  0.00000000000E+00 -0.00000000000E+00 -0.15837464683E+03  0.15837973878E+03  0.12700000000E+01 0. -1.
         25    2    1    2    0    0  0.00000000000E+00  0.00000000000E+00 -0.13373219243E+03  0.18305489752E+03  0.12499918485E+03 0.  0.
    9000005    1    3    3    0    0  0.59379454773E+02  0.72599978262E+01 -0.93330586604E+02  0.11086128997E+03  0.10000000000E+01 0.  0.
    9000005    1    3    3    0    0 -0.59379454773E+02 -0.72599978262E+01 -0.40401605827E+02  0.72193607549E+02  0.10000000000E+01 0.  0.
<mgrwt>
<rscale>  0 0.12499918E+03</rscale>
<asrwt>0</asrwt>
<pdfrwt beam="2">  1        4 0.24368237E-01 0.12499918E+03</pdfrwt>
<pdfrwt beam="1">  1       -4 0.37940543E-02 0.12499918E+03</pdfrwt>
<totfact> 0.93071685E+03</totfact>
</mgrwt>
</event>
<event>
 5    1  0.3199195E-002  0.1250006E+03  0.7818608E-02  0.1235068E+00
          4   -1    0    0  501    0  0.00000000000E+00  0.00000000000E+00  0.65201948243E+03  0.65202071928E+03  0.12700000000E+01 0.  1.
         -4   -1    0    0    0  501 -0.00000000000E+00 -0.00000000000E+00 -0.59224959615E+01  0.60571328542E+01  0.12700000000E+01 0.  1.
         25    2    1    2    0    0  0.00000000000E+00  0.00000000000E+00  0.64609698647E+03  0.65807785214E+03  0.12500057417E+03 0.  0.
    9000005    1    3    3    0    0 -0.73605810751E+01 -0.56707101612E+02  0.45575526837E+03  0.45932966176E+03  0.10000000000E+01 0.  0.
    9000005    1    3    3    0    0  0.73605810751E+01  0.56707101612E+02  0.19034171810E+03  0.19874819037E+03  0.10000000000E+01 0.  0.
<mgrwt>
<rscale>  0 0.12500057E+03</rscale>
<asrwt>0</asrwt>
<pdfrwt beam="1">  1        4 0.10032115E+00 0.12500057E+03</pdfrwt>
<pdfrwt beam="2">  1       -4 0.92160497E-03 0.12500057E+03</pdfrwt>
<totfact> 0.45393224E+03</totfact>
</mgrwt>
</event>
<event>
 5    1  0.3199195E-002  0.1249983E+03  0.7818608E-02  0.1235072E+00
         -4   -1    0    0    0  501 -0.00000000000E+00  0.00000000000E+00  0.46642874477E+02  0.46660161160E+02  0.12700000000E+01 0.  1.
          4   -1    0    0  501    0  0.00000000000E+00 -0.00000000000E+00 -0.83708208815E+02  0.83717842321E+02  0.12700000000E+01 0.  1.
         25    2    1    2    0    0  0.00000000000E+00  0.00000000000E+00 -0.37065334338E+02  0.13037800348E+03  0.12499833912E+03 0.  0.
    9000005    1    3    3    0    0 -0.12937652177E+02 -0.48389432199E+02 -0.57506935951E+02  0.76269047948E+02  0.10000000000E+01 0.  0.
    9000005    1    3    3    0    0  0.12937652177E+02  0.48389432199E+02  0.20441601613E+02  0.54108955534E+02  0.10000000000E+01 0.  0.
<mgrwt>
<rscale>  0 0.12499834E+03</rscale>
<asrwt>0</asrwt>
<pdfrwt beam="2">  1        4 0.12880257E-01 0.12499834E+03</pdfrwt>
<pdfrwt beam="1">  1       -4 0.71778977E-02 0.12499834E+03</pdfrwt>
<totfact> 0.10336815E+04</totfact>
</mgrwt>
</event>
<event>
 5    1  0.3199195E-002  0.1249990E+03  0.7818608E-02  0.1235071E+00
         -4   -1    0    0    0  501 -0.00000000000E+00  0.00000000000E+00  0.47999100036E+02  0.48015898454E+02  0.12700000000E+01 0.  1.
          4   -1    0    0  501    0  0.00000000000E+00 -0.00000000000E+00 -0.81344413326E+02  0.81354326741E+02  0.12700000000E+01 0.  1.
         25    2    1    2    0    0  0.00000000000E+00  0.00000000000E+00 -0.33345313290E+02  0.12937022519E+03  0.12499898099E+03 0.  0.
    9000005    1    3    3    0    0 -0.51663594418E+02 -0.35062540064E+02 -0.19347130317E+02  0.65374461034E+02  0.10000000000E+01 0.  0.
    9000005    1    3    3    0    0  0.51663594418E+02  0.35062540064E+02 -0.13998182973E+02  0.63995764160E+02  0.10000000000E+01 0.  0.
<mgrwt>
<rscale>  0 0.12499898E+03</rscale>
<asrwt>0</asrwt>
<pdfrwt beam="2">  1        4 0.12516580E-01 0.12499898E+03</pdfrwt>
<pdfrwt beam="1">  1       -4 0.73865317E-02 0.12499898E+03</pdfrwt>
<totfact> 0.10358236E+04</totfact>
</mgrwt>
</event>
<event>
 5    1  0.3199195E-002  0.1249982E+03  0.7818608E-02  0.1235072E+00
          4   -1    0    0  501    0  0.00000000000E+00  0.00000000000E+00  0.14788003135E+02  0.14842437021E+02  0.12700000000E+01 0.  1.
         -4   -1    0    0    0  501 -0.00000000000E+00 -0.00000000000E+00 -0.26360092539E+03  0.26360398473E+03  0.12700000000E+01 0.  1.
         25    2    1    2    0    0  0.00000000000E+00  0.00000000000E+00 -0.24881292226E+03  0.27844642175E+03  0.12499815801E+03 0.  0.
    9000005    1    3    3    0    0  0.54644284807E+02  0.29881226895E+02 -0.13581938287E+03  0.14942151902E+03  0.10000000000E+01 0.  0.
    9000005    1    3    3    0    0 -0.54644284807E+02 -0.29881226895E+02 -0.11299353938E+03  0.12902490273E+03  0.10000000000E+01 0.  0.
<mgrwt>
<rscale>  0 0.12499816E+03</rscale>
<asrwt>0</asrwt>
<pdfrwt beam="1">  1        4 0.22795002E-02 0.12499816E+03</pdfrwt>
<pdfrwt beam="2">  1       -4 0.40558407E-01 0.12499816E+03</pdfrwt>
<totfact> 0.78387762E+03</totfact>
</mgrwt>
</event>
<event>
 5    1  0.3199195E-002  0.1250004E+03  0.7818608E-02  0.1235069E+00
         -4   -1    0    0    0  501 -0.00000000000E+00  0.00000000000E+00  0.11223211539E+02  0.11294838522E+02  0.12700000000E+01 0. -1.
          4   -1    0    0  501    0  0.00000000000E+00 -0.00000000000E+00 -0.34687356019E+03  0.34687588509E+03  0.12700000000E+01 0. -1.
         25    2    1    2    0    0  0.00000000000E+00  0.00000000000E+00 -0.33565034865E+03  0.35817072362E+03  0.12500044282E+03 0.  0.
    9000005    1    3    3    0    0 -0.13924771875E+02 -0.23073041705E+02 -0.32938177072E+03  0.33048391097E+03  0.10000000000E+01 0.  0.
    9000005    1    3    3    0    0  0.13924771875E+02  0.23073041705E+02 -0.62685779309E+01  0.27686812647E+02  0.10000000000E+01 0.  0.
<mgrwt>
<rscale>  0 0.12500044E+03</rscale>
<asrwt>0</asrwt>
<pdfrwt beam="2">  1        4 0.53370844E-01 0.12500044E+03</pdfrwt>
<pdfrwt beam="1">  1       -4 0.17323368E-02 0.12500044E+03</pdfrwt>
<totfact> 0.68834261E+03</totfact>
</mgrwt>
</event>
<event>
 5    1  0.3199195E-002  0.1250005E+03  0.7818608E-02  0.1235068E+00
          4   -1    0    0  501    0  0.00000000000E+00  0.00000000000E+00  0.26584908891E+03  0.26585212238E+03  0.12700000000E+01 0. -1.
         -4   -1    0    0    0  501 -0.00000000000E+00 -0.00000000000E+00 -0.14663045620E+02  0.14717941665E+02  0.12700000000E+01 0. -1.
         25    2    1    2    0    0  0.00000000000E+00  0.00000000000E+00  0.25118604329E+03  0.28057006405E+03  0.12500052998E+03 0.  0.
    9000005    1    3    3    0    0 -0.31127872214E+02 -0.52023390401E+02  0.91559710739E+02  0.10981601981E+03  0.10000000000E+01 0.  0.
    9000005    1    3    3    0    0  0.31127872214E+02  0.52023390401E+02  0.15962633255E+03  0.17075404423E+03  0.10000000000E+01 0.  0.
<mgrwt>
<rscale>  0 0.12500053E+03</rscale>
<asrwt>0</asrwt>
<pdfrwt beam="1">  1        4 0.40904318E-01 0.12500053E+03</pdfrwt>
<pdfrwt beam="2">  1       -4 0.22603092E-02 0.12500053E+03</pdfrwt>
<totfact> 0.78101656E+03</totfact>
</mgrwt>
</event>
<event>
 5    1  0.3199195E-002  0.1250030E+03  0.7818608E-02  0.1235065E+00
         -4   -1    0    0    0  501 -0.00000000000E+00  0.00000000000E+00  0.78531758251E+02  0.78542026673E+02  0.12700000000E+01 0.  1.
          4   -1    0    0  501    0  0.00000000000E+00 -0.00000000000E+00 -0.49721811136E+02  0.49738027732E+02  0.12700000000E+01 0.  1.
         25    2    1    2    0    0  0.00000000000E+00  0.00000000000E+00  0.28809947115E+02  0.12828005441E+03  0.12500303718E+03 0.  0.
    9000005    1    3    3    0    0  0.82881478219E+01 -0.86707509156E+01 -0.48534459630E+02  0.50004690653E+02  0.10000000000E+01 0.  0.
    9000005    1    3    3    0    0 -0.82881478219E+01  0.86707509156E+01  0.77344406745E+02  0.78275363752E+02  0.10000000000E+01 0.  0.
<mgrwt>
<rscale>  0 0.12500304E+03</rscale>
<asrwt>0</asrwt>
<pdfrwt beam="2">  1        4 0.76515467E-02 0.12500304E+03</pdfrwt>
<pdfrwt beam="1">  1       -4 0.12083846E-01 0.12500304E+03</pdfrwt>
<totfact> 0.10380732E+04</totfact>
</mgrwt>
</event>
<event>
 5    1  0.3199195E-002  0.1250025E+03  0.7818608E-02  0.1235065E+00
         -4   -1    0    0    0  501 -0.00000000000E+00  0.00000000000E+00  0.84378922200E+02  0.84388479140E+02  0.12700000000E+01 0.  1.
          4   -1    0    0  501    0  0.00000000000E+00 -0.00000000000E+00 -0.46275105034E+02  0.46292529051E+02  0.12700000000E+01 0.  1.
         25    2    1    2    0    0  0.00000000000E+00  0.00000000000E+00  0.38103817165E+02  0.13068100819E+03  0.12500250005E+03 0.  0.
    9000005    1    3    3    0    0 -0.28288614882E+02 -0.10789065178E+02  0.76204911132E+02  0.82005110451E+02  0.10000000000E+01 0.  0.
    9000005    1    3    3    0    0  0.28288614882E+02  0.10789065178E+02 -0.38101093967E+02  0.48675897740E+02  0.10000000000E+01 0.  0.
<mgrwt>
<rscale>  0 0.12500250E+03</rscale>
<asrwt>0</asrwt>
<pdfrwt beam="2">  1        4 0.71213225E-02 0.12500250E+03</pdfrwt>
<pdfrwt beam="1">  1       -4 0.12983448E-01 0.12500250E+03</pdfrwt>
<totfact> 0.10329350E+04</totfact>
</mgrwt>
</event>
<event>
 5    1  0.3199195E-002  0.1250013E+03  0.7818608E-02  0.1235067E+00
         -4   -1    0    0    0  501 -0.00000000000E+00  0.00000000000E+00  0.26460392429E+03  0.26460697204E+03  0.12700000000E+01 0. -1.
          4   -1    0    0  501    0  0.00000000000E+00 -0.00000000000E+00 -0.14732494474E+02  0.14787132698E+02  0.12700000000E+01 0. -1.
         25    2    1    2    0    0  0.00000000000E+00  0.00000000000E+00  0.24987142982E+03  0.27939410474E+03  0.12500133728E+03 0.  0.
    9000005    1    3    3    0    0 -0.58713781092E+01 -0.22792831701E+00  0.26399609905E+03  0.26406337373E+03  0.10000000000E+01 0.  0.
    9000005    1    3    3    0    0  0.58713781092E+01  0.22792831701E+00 -0.14124669233E+02  0.15330731005E+02  0.10000000000E+01 0.  0.
<mgrwt>
<rscale>  0 0.12500134E+03</rscale>
<asrwt>0</asrwt>
<pdfrwt beam="2">  1        4 0.22709750E-02 0.12500134E+03</pdfrwt>
<pdfrwt beam="1">  1       -4 0.40712734E-01 0.12500134E+03</pdfrwt>
<totfact> 0.78256183E+03</totfact>
</mgrwt>
</event>
<event>
 5    1  0.3199195E-002  0.1250010E+03  0.7818608E-02  0.1235068E+00
         -4   -1    0    0    0  501 -0.00000000000E+00  0.00000000000E+00  0.27047309126E+03  0.27047607287E+03  0.12700000000E+01 0. -1.
          4   -1    0    0  501    0  0.00000000000E+00 -0.00000000000E+00 -0.14411542891E+02  0.14467393286E+02  0.12700000000E+01 0. -1.
         25    2    1    2    0    0  0.00000000000E+00  0.00000000000E+00  0.25606154837E+03  0.28494346615E+03  0.12500104940E+03 0.  0.
    9000005    1    3    3    0    0 -0.57260880460E+02  0.23513462148E+02  0.10847137547E+03  0.12489487831E+03  0.10000000000E+01 0.  0.
    9000005    1    3    3    0    0  0.57260880460E+02 -0.23513462148E+02  0.14759017290E+03  0.16004858784E+03  0.10000000000E+01 0.  0.
<mgrwt>
<rscale>  0 0.12500105E+03</rscale>
<asrwt>0</asrwt>
<pdfrwt beam="2">  1        4 0.22216861E-02 0.12500105E+03</pdfrwt>
<pdfrwt beam="1">  1       -4 0.41615768E-01 0.12500105E+03</pdfrwt>
<totfact> 0.77525363E+03</totfact>
</mgrwt>
</event>
<event>
 5    1  0.3199195E-002  0.1249949E+03  0.7818608E-02  0.1235077E+00
         -4   -1    0    0    0  501 -0.00000000000E+00  0.00000000000E+00  0.29123186346E+02  0.29150864189E+02  0.12700000000E+01 0. -1.
          4   -1    0    0  501    0  0.00000000000E+00 -0.00000000000E+00 -0.13402325841E+03  0.13402927551E+03  0.12700000000E+01 0. -1.
         25    2    1    2    0    0  0.00000000000E+00  0.00000000000E+00 -0.10490007206E+03  0.16318013970E+03  0.12499493139E+03 0.  0.
    9000005    1    3    3    0    0 -0.17644469410E+02 -0.59894692071E+02 -0.55709010324E+02  0.83685095867E+02  0.10000000000E+01 0.  0.
    9000005    1    3    3    0    0  0.17644469410E+02  0.59894692071E+02 -0.49191061736E+02  0.79495043831E+02  0.10000000000E+01 0.  0.
<mgrwt>
<rscale>  0 0.12499493E+03</rscale>
<asrwt>0</asrwt>
<pdfrwt beam="2">  1        4 0.20621554E-01 0.12499493E+03</pdfrwt>
<pdfrwt beam="1">  1       -4 0.44830822E-02 0.12499493E+03</pdfrwt>
<totfact> 0.96744177E+03</totfact>
</mgrwt>
</event>
<event>
 5    1  0.3199195E-002  0.1250015E+03  0.7818608E-02  0.1235067E+00
          4   -1    0    0  501    0  0.00000000000E+00  0.00000000000E+00  0.70196874571E+02  0.70208362034E+02  0.12700000000E+01 0. -1.
         -4   -1    0    0    0  501 -0.00000000000E+00 -0.00000000000E+00 -0.55625113424E+02  0.55639609483E+02  0.12700000000E+01 0. -1.
         25    2    1    2    0    0  0.00000000000E+00  0.00000000000E+00  0.14571761147E+02  0.12584797152E+03  0.12500150284E+03 0.  0.
    9000005    1    3    3    0    0  0.25266061174E+02  0.52706553990E+02 -0.14976963265E+02  0.60346202113E+02  0.10000000000E+01 0.  0.
    9000005    1    3    3    0    0 -0.25266061174E+02 -0.52706553990E+02  0.29548724412E+02  0.65501769405E+02  0.10000000000E+01 0.  0.
<mgrwt>
<rscale>  0 0.12500150E+03</rscale>
<asrwt>0</asrwt>
<pdfrwt beam="1">  1        4 0.10801518E-01 0.12500150E+03</pdfrwt>
<pdfrwt beam="2">  1       -4 0.85597085E-02 0.12500150E+03</pdfrwt>
<totfact> 0.10433938E+04</totfact>
</mgrwt>
</event>
<event>
 5    1  0.3199195E-002  0.1250045E+03  0.7818608E-02  0.1235062E+00
         -4   -1    0    0    0  501 -0.00000000000E+00  0.00000000000E+00  0.81322666205E+02  0.81332582270E+02  0.12700000000E+01 0. -1.
          4   -1    0    0  501    0  0.00000000000E+00 -0.00000000000E+00 -0.48016143436E+02  0.48032935893E+02  0.12700000000E+01 0. -1.
         25    2    1    2    0    0  0.00000000000E+00  0.00000000000E+00  0.33306522769E+02  0.12936551816E+03  0.12500445124E+03 0.  0.
    9000005    1    3    3    0    0 -0.51110520037E+02 -0.34222711119E+02  0.52202626753E+01  0.61739212476E+02  0.10000000000E+01 0.  0.
    9000005    1    3    3    0    0  0.51110520037E+02  0.34222711119E+02  0.28086260093E+02  0.67626305687E+02  0.10000000000E+01 0.  0.
<mgrwt>
<rscale>  0 0.12500445E+03</rscale>
<asrwt>0</asrwt>
<pdfrwt beam="2">  1        4 0.73891536E-02 0.12500445E+03</pdfrwt>
<pdfrwt beam="1">  1       -4 0.12513234E-01 0.12500445E+03</pdfrwt>
<totfact> 0.10357058E+04</totfact>
</mgrwt>
</event>
<event>
 5    1  0.3199195E-002  0.1250040E+03  0.7818608E-02  0.1235063E+00
          4   -1    0    0  501    0  0.00000000000E+00  0.00000000000E+00  0.29187999387E+01  0.31831263063E+01  0.12700000000E+01 0. -1.
         -4   -1    0    0    0  501 -0.00000000000E+00 -0.00000000000E+00 -0.12801512612E+04  0.12801518911E+04  0.12700000000E+01 0. -1.
         25    2    1    2    0    0  0.00000000000E+00  0.00000000000E+00 -0.12772324612E+04  0.12833350174E+04  0.12500402780E+03 0.  0.
    9000005    1    3    3    0    0  0.15060695881E+02 -0.60531941609E+02 -0.59944068856E+03  0.60267825547E+03  0.10000000000E+01 0.  0.
    9000005    1    3    3    0    0 -0.15060695881E+02  0.60531941609E+02 -0.67779177266E+03  0.68065676196E+03  0.10000000000E+01 0.  0.
<mgrwt>
<rscale>  0 0.12500403E+03</rscale>
<asrwt>0</asrwt>
<pdfrwt beam="1">  1        4 0.46942842E-03 0.12500403E+03</pdfrwt>
<pdfrwt beam="2">  1       -4 0.19696630E+00 0.12500403E+03</pdfrwt>
<totfact> 0.22623366E+03</totfact>
</mgrwt>
</event>
<event>
 5    1  0.3199195E-002  0.1250007E+03  0.7818608E-02  0.1235068E+00
          4   -1    0    0  501    0  0.00000000000E+00  0.00000000000E+00  0.11185734337E+03  0.11186455277E+03  0.12700000000E+01 0.  1.
         -4   -1    0    0    0  501 -0.00000000000E+00 -0.00000000000E+00 -0.34902203396E+02  0.34925301744E+02  0.12700000000E+01 0.  1.
         25    2    1    2    0    0  0.00000000000E+00  0.00000000000E+00  0.76955139976E+02  0.14678985451E+03  0.12500067128E+03 0.  0.
    9000005    1    3    3    0    0 -0.18911809924E+02 -0.59362456429E+02  0.44198553435E+02  0.76394174606E+02  0.10000000000E+01 0.  0.
    9000005    1    3    3    0    0  0.18911809924E+02  0.59362456429E+02  0.32756586540E+02  0.70395679908E+02  0.10000000000E+01 0.  0.
<mgrwt>
<rscale>  0 0.12500067E+03</rscale>
<asrwt>0</asrwt>
<pdfrwt beam="1">  1        4 0.17211153E-01 0.12500067E+03</pdfrwt>
<pdfrwt beam="2">  1       -4 0.53719011E-02 0.12500067E+03</pdfrwt>
<totfact> 0.99945975E+03</totfact>
</mgrwt>
</event>
<event>
 5    1  0.3199195E-002  0.1250014E+03  0.7818608E-02  0.1235067E+00
          4   -1    0    0  501    0  0.00000000000E+00  0.00000000000E+00  0.27388125647E+01  0.30189392615E+01  0.12700000000E+01 0. -1.
         -4   -1    0    0    0  501 -0.00000000000E+00 -0.00000000000E+00 -0.13566173997E+04  0.13566179941E+04  0.12700000000E+01 0. -1.
         25    2    1    2    0    0  0.00000000000E+00  0.00000000000E+00 -0.13538785871E+04  0.13596369334E+04  0.12500144803E+03 0.  0.
    9000005    1    3    3    0    0 -0.61400518290E+02 -0.99835672909E+01 -0.61199983209E+03  0.61515403741E+03  0.10000000000E+01 0.  0.
    9000005    1    3    3    0    0  0.61400518290E+02  0.99835672909E+01 -0.74187875501E+03  0.74448289597E+03  0.10000000000E+01 0.  0.
<mgrwt>
<rscale>  0 0.12500145E+03</rscale>
<asrwt>0</asrwt>
<pdfrwt beam="1">  1        4 0.44295080E-03 0.12500145E+03</pdfrwt>
<pdfrwt beam="2">  1       -4 0.20873145E+00 0.12500145E+03</pdfrwt>
<totfact> 0.20862542E+03</totfact>
</mgrwt>
</event>
<event>
 5    1  0.3199195E-002  0.1249988E+03  0.7818608E-02  0.1235071E+00
         -4   -1    0    0    0  501 -0.00000000000E+00  0.00000000000E+00  0.43535607961E+02  0.43554127939E+02  0.12700000000E+01 0.  1.
          4   -1    0    0  501    0  0.00000000000E+00 -0.00000000000E+00 -0.89681629122E+02  0.89690621037E+02  0.12700000000E+01 0.  1.
         25    2    1    2    0    0  0.00000000000E+00  0.00000000000E+00 -0.46146021160E+02  0.13324474898E+03  0.12499883144E+03 0.  0.
    9000005    1    3    3    0    0  0.73126538854E+00 -0.51594956902E+02  0.14502966797E+02  0.53608864684E+02  0.10000000000E+01 0.  0.
    9000005    1    3    3    0    0 -0.73126538854E+00  0.51594956902E+02 -0.60648987958E+02  0.79635884292E+02  0.10000000000E+01 0.  0.
<mgrwt>
<rscale>  0 0.12499883E+03</rscale>
<asrwt>0</asrwt>
<pdfrwt beam="2">  1        4 0.13799290E-01 0.12499883E+03</pdfrwt>
<pdfrwt beam="1">  1       -4 0.66999022E-02 0.12499883E+03</pdfrwt>
<totfact> 0.10275472E+04</totfact>
</mgrwt>
</event>
<event>
 5    1  0.3199195E-002  0.1249971E+03  0.7818608E-02  0.1235074E+00
          4   -1    0    0  501    0  0.00000000000E+00  0.00000000000E+00  0.11949760729E+02  0.12017057938E+02  0.12700000000E+01 0.  1.
         -4   -1    0    0    0  501 -0.00000000000E+00 -0.00000000000E+00 -0.32588796851E+03  0.32589044312E+03  0.12700000000E+01 0.  1.
         25    2    1    2    0    0  0.00000000000E+00  0.00000000000E+00 -0.31393820778E+03  0.33790750106E+03  0.12499712384E+03 0.  0.
    9000005    1    3    3    0    0 -0.25500898519E+02  0.11325374192E+02 -0.58122843231E+01  0.28519161539E+02  0.10000000000E+01 0.  0.
    9000005    1    3    3    0    0  0.25500898519E+02 -0.11325374192E+02 -0.30812592345E+03  0.30938833952E+03  0.10000000000E+01 0.  0.
<mgrwt>
<rscale>  0 0.12499712E+03</rscale>
<asrwt>0</asrwt>
<pdfrwt beam="1">  1        4 0.18437920E-02 0.12499712E+03</pdfrwt>
<pdfrwt beam="2">  1       -4 0.50141971E-01 0.12499712E+03</pdfrwt>
<totfact> 0.71080221E+03</totfact>
</mgrwt>
</event>
<event>
 5    1  0.3199195E-002  0.1250007E+03  0.7818608E-02  0.1235068E+00
         -4   -1    0    0    0  501 -0.00000000000E+00  0.00000000000E+00  0.61809061347E+02  0.61822107410E+02  0.12700000000E+01 0.  1.
          4   -1    0    0  501    0  0.00000000000E+00 -0.00000000000E+00 -0.63173279370E+02  0.63186043762E+02  0.12700000000E+01 0.  1.
         25    2    1    2    0    0  0.00000000000E+00  0.00000000000E+00 -0.13642180222E+01  0.12500815117E+03  0.12500070707E+03 0.  0.
    9000005    1    3    3    0    0 -0.26044367874E+02 -0.51807418662E+02 -0.23985352110E+02  0.62758384637E+02  0.10000000000E+01 0.  0.
    9000005    1    3    3    0    0  0.26044367874E+02  0.51807418662E+02  0.22621134088E+02  0.62249766536E+02  0.10000000000E+01 0.  0.
<mgrwt>
<rscale>  0 0.12500071E+03</rscale>
<asrwt>0</asrwt>
<pdfrwt beam="2">  1        4 0.97209514E-02 0.12500071E+03</pdfrwt>
<pdfrwt beam="1">  1       -4 0.95110718E-02 0.12500071E+03</pdfrwt>
<totfact> 0.10452518E+04</totfact>
</mgrwt>
</event>
<event>
 5    1  0.3199195E-002  0.1250016E+03  0.7818608E-02  0.1235067E+00
         -4   -1    0    0    0  501 -0.00000000000E+00  0.00000000000E+00  0.72537478652E+02  0.72548595501E+02  0.12700000000E+01 0.  1.
          4   -1    0    0  501    0  0.00000000000E+00 -0.00000000000E+00 -0.53830111263E+02  0.53845090571E+02  0.12700000000E+01 0.  1.
         25    2    1    2    0    0  0.00000000000E+00  0.00000000000E+00  0.18707367388E+02  0.12639368607E+03  0.12500159313E+03 0.  0.
    9000005    1    3    3    0    0  0.20211359713E+02 -0.58078398855E+02 -0.18945052722E+01  0.61532013012E+02  0.10000000000E+01 0.  0.
    9000005    1    3    3    0    0 -0.20211359713E+02  0.58078398855E+02  0.20601872660E+02  0.64861673060E+02  0.10000000000E+01 0.  0.
<mgrwt>
<rscale>  0 0.12500159E+03</rscale>
<asrwt>0</asrwt>
<pdfrwt beam="2">  1        4 0.82835630E-02 0.12500159E+03</pdfrwt>
<pdfrwt beam="1">  1       -4 0.11161620E-01 0.12500159E+03</pdfrwt>
<totfact> 0.10421973E+04</totfact>
</mgrwt>
</event>
<event>
 5    1  0.3199195E-002  0.1249966E+03  0.7818608E-02  0.1235075E+00
          4   -1    0    0  501    0  0.00000000000E+00  0.00000000000E+00  0.68989029021E+02  0.69000717571E+02  0.12700000000E+01 0. -1.
         -4   -1    0    0    0  501 -0.00000000000E+00 -0.00000000000E+00 -0.56594666407E+02  0.56608914189E+02  0.12700000000E+01 0. -1.
         25    2    1    2    0    0  0.00000000000E+00  0.00000000000E+00  0.12394362615E+02  0.12560963176E+03  0.12499663742E+03 0.  0.
    9000005    1    3    3    0    0 -0.44470716609E+02 -0.35675314842E+02 -0.19514760474E+02  0.60267724373E+02  0.10000000000E+01 0.  0.
    9000005    1    3    3    0    0  0.44470716609E+02  0.35675314842E+02  0.31909123089E+02  0.65341907387E+02  0.10000000000E+01 0.  0.
<mgrwt>
<rscale>  0 0.12499664E+03</rscale>
<asrwt>0</asrwt>
<pdfrwt beam="1">  1        4 0.10615692E-01 0.12499664E+03</pdfrwt>
<pdfrwt beam="2">  1       -4 0.87088668E-02 0.12499664E+03</pdfrwt>
<totfact> 0.10440327E+04</totfact>
</mgrwt>
</event>
<event>
 5    1  0.3199195E-002  0.1249995E+03  0.7818608E-02  0.1235070E+00
         -4   -1    0    0    0  501 -0.00000000000E+00  0.00000000000E+00  0.18876576604E+02  0.18919250627E+02  0.12700000000E+01 0.  1.
          4   -1    0    0  501    0  0.00000000000E+00 -0.00000000000E+00 -0.20665649574E+03  0.20666039807E+03  0.12700000000E+01 0.  1.
         25    2    1    2    0    0  0.00000000000E+00  0.00000000000E+00 -0.18777991914E+03  0.22557964870E+03  0.12499951951E+03 0.  0.
    9000005    1    3    3    0    0 -0.35958913500E+02  0.49593918382E+02 -0.11618442009E+03  0.13134846658E+03  0.10000000000E+01 0.  0.
    9000005    1    3    3    0    0  0.35958913500E+02 -0.49593918382E+02 -0.71595499049E+02  0.94231182125E+02  0.10000000000E+01 0.  0.
<mgrwt>
<rscale>  0 0.12499952E+03</rscale>
<asrwt>0</asrwt>
<pdfrwt beam="2">  1        4 0.31796888E-01 0.12499952E+03</pdfrwt>
<pdfrwt beam="1">  1       -4 0.29076717E-02 0.12499952E+03</pdfrwt>
<totfact> 0.85993923E+03</totfact>
</mgrwt>
</event>
<event>
 5    1  0.3199195E-002  0.1250350E+03  0.7818608E-02  0.1235015E+00
          4   -1    0    0  501    0  0.00000000000E+00  0.00000000000E+00  0.42415676243E+02  0.42434685002E+02  0.12700000000E+01 0.  1.
         -4   -1    0    0    0  501 -0.00000000000E+00 -0.00000000000E+00 -0.92102094621E+02  0.92110850249E+02  0.12700000000E+01 0.  1.
         25    2    1    2    0    0  0.00000000000E+00  0.00000000000E+00 -0.49686418377E+02  0.13454553525E+03  0.12503503863E+03 0.  0.
    9000005    1    3    3    0    0  0.31762190780E+02 -0.40368823156E+02 -0.63175236942E+02  0.81428429979E+02  0.10000000000E+01 0.  0.
    9000005    1    3    3    0    0 -0.31762190780E+02  0.40368823156E+02  0.13488818564E+02  0.53117105271E+02  0.10000000000E+01 0.  0.
<mgrwt>
<rscale>  0 0.12503504E+03</rscale>
<asrwt>0</asrwt>
<pdfrwt beam="1">  1        4 0.65276244E-02 0.12503504E+03</pdfrwt>
<pdfrwt beam="2">  1       -4 0.14171689E-01 0.12503504E+03</pdfrwt>
<totfact> 0.10239565E+04</totfact>
</mgrwt>
</event>
<event>
 5    1  0.3199195E-002  0.1249982E+03  0.7818608E-02  0.1235072E+00
         -4   -1    0    0    0  501 -0.00000000000E+00  0.00000000000E+00  0.76716857399E+01  0.77760955557E+01  0.12700000000E+01 0.  1.
          4   -1    0    0  501    0  0.00000000000E+00 -0.00000000000E+00 -0.50561608109E+03  0.50561767607E+03  0.12700000000E+01 0.  1.
         25    2    1    2    0    0  0.00000000000E+00  0.00000000000E+00 -0.49794439535E+03  0.51339377163E+03  0.12499817553E+03 0.  0.
    9000005    1    3    3    0    0  0.51164787599E+02  0.60465718042E+01 -0.39422694854E+03  0.39758053709E+03  0.10000000000E+01 0.  0.
    9000005    1    3    3    0    0 -0.51164787599E+02 -0.60465718042E+01 -0.10371744682E+03  0.11581323454E+03  0.10000000000E+01 0.  0.
<mgrwt>
<rscale>  0 0.12499818E+03</rscale>
<asrwt>0</asrwt>
<pdfrwt beam="2">  1        4 0.77795218E-01 0.12499818E+03</pdfrwt>
<pdfrwt beam="1">  1       -4 0.11884140E-02 0.12499818E+03</pdfrwt>
<totfact> 0.54842157E+03</totfact>
</mgrwt>
</event>
<event>
 5    1  0.3199195E-002  0.1250016E+03  0.7818608E-02  0.1235067E+00
          4   -1    0    0  501    0  0.00000000000E+00  0.00000000000E+00  0.29942509586E+01  0.32524511992E+01  0.12700000000E+01 0.  1.
         -4   -1    0    0    0  501 -0.00000000000E+00 -0.00000000000E+00 -0.12504333785E+04  0.12504340234E+04  0.12700000000E+01 0.  1.
         25    2    1    2    0    0  0.00000000000E+00  0.00000000000E+00 -0.12474391275E+04  0.12536864746E+04  0.12500159904E+03 0.  0.
    9000005    1    3    3    0    0 -0.21374775174E+02  0.56889660700E+02 -0.47767762429E+03  0.48152905131E+03  0.10000000000E+01 0.  0.
    9000005    1    3    3    0    0  0.21374775174E+02 -0.56889660700E+02 -0.76976150323E+03  0.77215742330E+03  0.10000000000E+01 0.  0.
<mgrwt>
<rscale>  0 0.12500160E+03</rscale>
<asrwt>0</asrwt>
<pdfrwt beam="1">  1        4 0.48056616E-03 0.12500160E+03</pdfrwt>
<pdfrwt beam="2">  1       -4 0.19239388E+00 0.12500160E+03</pdfrwt>
<totfact> 0.23347904E+03</totfact>
</mgrwt>
</event>
<event>
 4    1  0.3199195E-002  0.1257221E+03  0.7818608E-02  0.1233945E+00
         -4   -1    0    0    0  501 -0.00000000000E+00  0.00000000000E+00  0.11478978494E+02  0.11549019321E+02  0.12700000000E+01 0.  1.
          4   -1    0    0  501    0  0.00000000000E+00 -0.00000000000E+00 -0.34312046958E+03  0.34312281991E+03  0.12700000000E+01 0.  1.
    9000005    1    1    2    0    0 -0.59271749382E+01  0.46724115454E+02 -0.28323438865E+03  0.28712539644E+03  0.10000000000E+01 0.  0.
    9000005    1    1    2    0    0  0.59271749382E+01 -0.46724115454E+02 -0.48407102435E+02  0.67546442792E+02  0.10000000000E+01 0.  0.
<mgrwt>
<rscale>  0 0.12572205E+03</rscale>
<asrwt>0</asrwt>
<pdfrwt beam="2">  1        4 0.52793325E-01 0.12572205E+03</pdfrwt>
<pdfrwt beam="1">  1       -4 0.17715655E-02 0.12572205E+03</pdfrwt>
<totfact> 0.68119479E+03</totfact>
</mgrwt>
</event>
<event>
 5    1  0.3199195E-002  0.1249974E+03  0.7818608E-02  0.1235073E+00
          4   -1    0    0  501    0  0.00000000000E+00  0.00000000000E+00  0.49894376028E+03  0.49894537659E+03  0.12700000000E+01 0.  1.
         -4   -1    0    0    0  501 -0.00000000000E+00 -0.00000000000E+00 -0.77755647365E+01  0.78785980334E+01  0.12700000000E+01 0.  1.
         25    2    1    2    0    0  0.00000000000E+00  0.00000000000E+00  0.49116819554E+03  0.50682397462E+03  0.12499737974E+03 0.  0.
    9000005    1    3    3    0    0 -0.20153072479E+02  0.35628875880E+00  0.48542133056E+03  0.48584065436E+03  0.10000000000E+01 0.  0.
    9000005    1    3    3    0    0  0.20153072479E+02 -0.35628875880E+00  0.57468649852E+01  0.20983320261E+02  0.10000000000E+01 0.  0.
<mgrwt>
<rscale>  0 0.12499738E+03</rscale>
<asrwt>0</asrwt>
<pdfrwt beam="1">  1        4 0.76768624E-01 0.12499738E+03</pdfrwt>
<pdfrwt beam="2">  1       -4 0.12042908E-02 0.12499738E+03</pdfrwt>
<totfact> 0.55341959E+03</totfact>
</mgrwt>
</event>
<event>
 5    1  0.3199195E-002  0.1250016E+03  0.7818608E-02  0.1235067E+00
          4   -1    0    0  501    0  0.00000000000E+00  0.00000000000E+00  0.16218743203E+02  0.16268390550E+02  0.12700000000E+01 0. -1.
         -4   -1    0    0    0  501 -0.00000000000E+00 -0.00000000000E+00 -0.24043479301E+03  0.24043814712E+03  0.12700000000E+01 0. -1.
         25    2    1    2    0    0  0.00000000000E+00  0.00000000000E+00 -0.22421604981E+03  0.25670653767E+03  0.12500163795E+03 0.  0.
    9000005    1    3    3    0    0 -0.24542483422E+02 -0.44484160136E+02 -0.18683793699E+03  0.19362486590E+03  0.10000000000E+01 0.  0.
    9000005    1    3    3    0    0  0.24542483422E+02  0.44484160136E+02 -0.37378112816E+02  0.63081671769E+02  0.10000000000E+01 0.  0.
<mgrwt>
<rscale>  0 0.12500164E+03</rscale>
<asrwt>0</asrwt>
<pdfrwt beam="1">  1        4 0.24992685E-02 0.12500164E+03</pdfrwt>
<pdfrwt beam="2">  1       -4 0.36994043E-01 0.12500164E+03</pdfrwt>
<totfact> 0.81367518E+03</totfact>
</mgrwt>
</event>
<event>
 5    1  0.3199195E-002  0.1249945E+03  0.7818608E-02  0.1235078E+00
          4   -1    0    0  501    0  0.00000000000E+00  0.00000000000E+00  0.33210423919E+03  0.33210666748E+03  0.12700000000E+01 0. -1.
         -4   -1    0    0    0  501 -0.00000000000E+00 -0.00000000000E+00 -0.11724321916E+02  0.11792905681E+02  0.12700000000E+01 0. -1.
         25    2    1    2    0    0  0.00000000000E+00  0.00000000000E+00  0.32037991727E+03  0.34389957316E+03  0.12499450000E+03 0.  0.
    9000005    1    3    3    0    0  0.81770478222E+01  0.38432611174E+02  0.29387615578E+03  0.29649304317E+03  0.10000000000E+01 0.  0.
    9000005    1    3    3    0    0 -0.81770478222E+01 -0.38432611174E+02  0.26503761490E+02  0.47406529992E+02  0.10000000000E+01 0.  0.
<mgrwt>
<rscale>  0 0.12499450E+03</rscale>
<asrwt>0</asrwt>
<pdfrwt beam="1">  1        4 0.51098422E-01 0.12499450E+03</pdfrwt>
<pdfrwt beam="2">  1       -4 0.18092043E-02 0.12499450E+03</pdfrwt>
<totfact> 0.70409503E+03</totfact>
</mgrwt>
</event>
<event>
 5    1  0.3199195E-002  0.1249955E+03  0.7818608E-02  0.1235076E+00
          4   -1    0    0  501    0  0.00000000000E+00  0.00000000000E+00  0.15885623536E+03  0.15886131188E+03  0.12700000000E+01 0. -1.
         -4   -1    0    0    0  501 -0.00000000000E+00 -0.00000000000E+00 -0.24566195810E+02  0.24599001536E+02  0.12700000000E+01 0. -1.
         25    2    1    2    0    0  0.00000000000E+00  0.00000000000E+00  0.13429003955E+03  0.18346031342E+03  0.12499548743E+03 0.  0.
    9000005    1    3    3    0    0 -0.80758404412E+01  0.13351923653E+02  0.15595787404E+03  0.15673975737E+03  0.10000000000E+01 0.  0.
    9000005    1    3    3    0    0  0.80758404412E+01 -0.13351923653E+02 -0.21667834491E+02  0.26720556050E+02  0.10000000000E+01 0.  0.
<mgrwt>
<rscale>  0 0.12499549E+03</rscale>
<asrwt>0</asrwt>
<pdfrwt beam="1">  1        4 0.24442334E-01 0.12499549E+03</pdfrwt>
<pdfrwt beam="2">  1       -4 0.37823289E-02 0.12499549E+03</pdfrwt>
<totfact> 0.93007225E+03</totfact>
</mgrwt>
</event>
<event>
 5    1  0.3199195E-002  0.1249997E+03  0.7818608E-02  0.1235070E+00
         -4   -1    0    0    0  501 -0.00000000000E+00  0.00000000000E+00  0.82825160374E+02  0.82834896577E+02  0.12700000000E+01 0.  1.
          4   -1    0    0  501    0  0.00000000000E+00 -0.00000000000E+00 -0.47141292694E+02  0.47158396674E+02  0.12700000000E+01 0.  1.
         25    2    1    2    0    0  0.00000000000E+00  0.00000000000E+00  0.35683867680E+02  0.12999329325E+03  0.12499967151E+03 0.  0.
    9000005    1    3    3    0    0 -0.32063061135E+02  0.46254756500E+02 -0.10403494395E+02  0.57243122590E+02  0.10000000000E+01 0.  0.
    9000005    1    3    3    0    0  0.32063061135E+02 -0.46254756500E+02  0.46087362075E+02  0.72750170661E+02  0.10000000000E+01 0.  0.
<mgrwt>
<rscale>  0 0.12499967E+03</rscale>
<asrwt>0</asrwt>
<pdfrwt beam="2">  1        4 0.72545713E-02 0.12499967E+03</pdfrwt>
<pdfrwt beam="1">  1       -4 0.12744397E-01 0.12499967E+03</pdfrwt>
<totfact> 0.10344728E+04</totfact>
</mgrwt>
</event>
<event>
 5    1  0.3199195E-002  0.1249980E+03  0.7818608E-02  0.1235072E+00
         -4   -1    0    0    0  501 -0.00000000000E+00  0.00000000000E+00  0.31996215798E+02  0.32021410421E+02  0.12700000000E+01 0.  1.
          4   -1    0    0  501    0  0.00000000000E+00 -0.00000000000E+00 -0.12200426115E+03  0.12201087099E+03  0.12700000000E+01 0.  1.
         25    2    1    2    0    0  0.00000000000E+00  0.00000000000E+00 -0.90008045356E+02  0.15403228141E+03  0.12499798193E+03 0.  0.
    9000005    1    3    3    0    0 -0.13861958159E+02  0.60326612305E+02 -0.55580805754E+02  0.83196634574E+02  0.10000000000E+01 0.  0.
    9000005    1    3    3    0    0  0.13861958159E+02 -0.60326612305E+02 -0.34427239602E+02  0.70835646837E+02  0.10000000000E+01 0.  0.
<mgrwt>
<rscale>  0 0.12499798E+03</rscale>
<asrwt>0</asrwt>
<pdfrwt beam="2">  1        4 0.18772333E-01 0.12499798E+03</pdfrwt>
<pdfrwt beam="1">  1       -4 0.49249413E-02 0.12499798E+03</pdfrwt>
<totfact> 0.98510281E+03</totfact>
</mgrwt>
</event>
<event>
 5    1  0.3199195E-002  0.1249959E+03  0.7818608E-02  0.1235076E+00
         -4   -1    0    0    0  501 -0.00000000000E+00  0.00000000000E+00  0.28645620636E+01  0.31334670600E+01  0.12700000000E+01 0. -1.
          4   -1    0    0  501    0  0.00000000000E+00 -0.00000000000E+00 -0.13021565613E+04  0.13021571806E+04  0.12700000000E+01 0. -1.
         25    2    1    2    0    0  0.00000000000E+00  0.00000000000E+00 -0.12992919992E+04  0.13052906476E+04  0.12499590248E+03 0.  0.
    9000005    1    3    3    0    0  0.15904691966E+02  0.58034766123E+02 -0.47366285187E+03  0.47747093163E+03  0.10000000000E+01 0.  0.
    9000005    1    3    3    0    0 -0.15904691966E+02 -0.58034766123E+02 -0.82562914733E+03  0.82781971602E+03  0.10000000000E+01 0.  0.
<mgrwt>
<rscale>  0 0.12499590E+03</rscale>
<asrwt>0</asrwt>
<pdfrwt beam="2">  1        4 0.20035206E+00 0.12499590E+03</pdfrwt>
<pdfrwt beam="1">  1       -4 0.46143553E-03 0.12499590E+03</pdfrwt>
<totfact> 0.22106035E+03</totfact>
</mgrwt>
</event>
<event>
 5    1  0.3199195E-002  0.1249984E+03  0.7818608E-02  0.1235072E+00
         -4   -1    0    0    0  501 -0.00000000000E+00  0.00000000000E+00  0.10806338765E+02  0.10880710340E+02  0.12700000000E+01 0.  1.
          4   -1    0    0  501    0  0.00000000000E+00 -0.00000000000E+00 -0.36015325273E+03  0.36015549191E+03  0.12700000000E+01 0.  1.
         25    2    1    2    0    0  0.00000000000E+00  0.00000000000E+00 -0.34934691397E+03  0.37103620225E+03  0.12499838832E+03 0.  0.
    9000005    1    3    3    0    0  0.20942441389E+02  0.41691715384E+02 -0.29807753587E+03  0.30170847249E+03  0.10000000000E+01 0.  0.
    9000005    1    3    3    0    0 -0.20942441389E+02 -0.41691715384E+02 -0.51269378094E+02  0.69327729756E+02  0.10000000000E+01 0.  0.
<mgrwt>
<rscale>  0 0.12499839E+03</rscale>
<asrwt>0</asrwt>
<pdfrwt beam="2">  1        4 0.55414077E-01 0.12499839E+03</pdfrwt>
<pdfrwt beam="1">  1       -4 0.16684071E-02 0.12499839E+03</pdfrwt>
<totfact> 0.67473078E+03</totfact>
</mgrwt>
</event>
<event>
 5    1  0.3199195E-002  0.1249970E+03  0.7818608E-02  0.1235074E+00
          4   -1    0    0  501    0  0.00000000000E+00  0.00000000000E+00  0.64968215964E+02  0.64980627771E+02  0.12700000000E+01 0. -1.
         -4   -1    0    0    0  501 -0.00000000000E+00 -0.00000000000E+00 -0.60097764172E+02  0.60111181643E+02  0.12700000000E+01 0. -1.
         25    2    1    2    0    0  0.00000000000E+00  0.00000000000E+00  0.48704517914E+01  0.12509180941E+03  0.12499695789E+03 0.  0.
    9000005    1    3    3    0    0  0.60490595667E+02  0.14324908649E+02  0.88232270361E+01  0.62794621643E+02  0.10000000000E+01 0.  0.
    9000005    1    3    3    0    0 -0.60490595667E+02 -0.14324908649E+02 -0.39527752448E+01  0.62297187770E+02  0.10000000000E+01 0.  0.
<mgrwt>
<rscale>  0 0.12499696E+03</rscale>
<asrwt>0</asrwt>
<pdfrwt beam="1">  1        4 0.99970970E-02 0.12499696E+03</pdfrwt>
<pdfrwt beam="2">  1       -4 0.92477967E-02 0.12499696E+03</pdfrwt>
<totfact> 0.10451587E+04</totfact>
</mgrwt>
</event>
<event>
 5    1  0.3199195E-002  0.1250040E+03  0.7818608E-02  0.1235063E+00
         -4   -1    0    0    0  501 -0.00000000000E+00  0.00000000000E+00  0.91467928274E+03  0.91468016441E+03  0.12700000000E+01 0.  1.
          4   -1    0    0  501    0  0.00000000000E+00 -0.00000000000E+00 -0.41755799530E+01  0.43644436007E+01  0.12700000000E+01 0.  1.
         25    2    1    2    0    0  0.00000000000E+00  0.00000000000E+00  0.91050370279E+03  0.91904460801E+03  0.12500399487E+03 0.  0.
    9000005    1    3    3    0    0  0.62460677707E+02  0.12937625327E+01  0.44365132540E+03  0.44802958453E+03  0.10000000000E+01 0.  0.
    9000005    1    3    3    0    0 -0.62460677707E+02 -0.12937625327E+01  0.46685237738E+03  0.47101502348E+03  0.10000000000E+01 0.  0.
<mgrwt>
<rscale>  0 0.12500399E+03</rscale>
<asrwt>0</asrwt>
<pdfrwt beam="2">  1        4 0.65699202E-03 0.12500399E+03</pdfrwt>
<pdfrwt beam="1">  1       -4 0.14073463E+00 0.12500399E+03</pdfrwt>
<totfact> 0.33438146E+03</totfact>
</mgrwt>
</event>
<event>
 5    1  0.3199195E-002  0.1249957E+03  0.7818608E-02  0.1235076E+00
          4   -1    0    0  501    0  0.00000000000E+00  0.00000000000E+00  0.19705192579E+03  0.19705601832E+03  0.12700000000E+01 0.  1.
         -4   -1    0    0    0  501 -0.00000000000E+00 -0.00000000000E+00 -0.19797439511E+02  0.19838132754E+02  0.12700000000E+01 0.  1.
         25    2    1    2    0    0  0.00000000000E+00  0.00000000000E+00  0.17725448628E+03  0.21689415108E+03  0.12499567939E+03 0.  0.
    9000005    1    3    3    0    0  0.49072171929E+02 -0.27887501842E+02  0.42092812715E+02  0.70417296874E+02  0.10000000000E+01 0.  0.
    9000005    1    3    3    0    0 -0.49072171929E+02  0.27887501842E+02  0.13516167356E+03  0.14647685420E+03  0.10000000000E+01 0.  0.
<mgrwt>
<rscale>  0 0.12499568E+03</rscale>
<asrwt>0</asrwt>
<pdfrwt beam="1">  1        4 0.30319127E-01 0.12499568E+03</pdfrwt>
<pdfrwt beam="2">  1       -4 0.30492049E-02 0.12499568E+03</pdfrwt>
<totfact> 0.87370640E+03</totfact>
</mgrwt>
</event>
<event>
 5    1  0.3199195E-002  0.1250005E+03  0.7818608E-02  0.1235068E+00
         -4   -1    0    0    0  501 -0.00000000000E+00  0.00000000000E+00  0.18017979540E+02  0.18062682157E+02  0.12700000000E+01 0. -1.
          4   -1    0    0  501    0  0.00000000000E+00 -0.00000000000E+00 -0.21648398533E+03  0.21648771052E+03  0.12700000000E+01 0. -1.
         25    2    1    2    0    0  0.00000000000E+00  0.00000000000E+00 -0.19846600579E+03  0.23455039267E+03  0.12500052499E+03 0.  0.
    9000005    1    3    3    0    0  0.42529203744E+02  0.24654977578E+01 -0.13441080989E+02  0.44681925971E+02  0.10000000000E+01 0.  0.
    9000005    1    3    3    0    0 -0.42529203744E+02 -0.24654977578E+01 -0.18502492480E+03  0.18986846670E+03  0.10000000000E+01 0.  0.
<mgrwt>
<rscale>  0 0.12500052E+03</rscale>
<asrwt>0</asrwt>
<pdfrwt beam="2">  1        4 0.33308952E-01 0.12500052E+03</pdfrwt>
<pdfrwt beam="1">  1       -4 0.27757222E-02 0.12500052E+03</pdfrwt>
<totfact> 0.84614753E+03</totfact>
</mgrwt>
</event>
<event>
 5    1  0.3199195E-002  0.1250010E+03  0.7818608E-02  0.1235068E+00
         -4   -1    0    0    0  501 -0.00000000000E+00  0.00000000000E+00  0.11564696454E+02  0.11634221249E+02  0.12700000000E+01 0. -1.
          4   -1    0    0  501    0  0.00000000000E+00 -0.00000000000E+00 -0.33669611224E+03  0.33669850742E+03  0.12700000000E+01 0. -1.
         25    2    1    2    0    0  0.00000000000E+00  0.00000000000E+00 -0.32513141579E+03  0.34833272867E+03  0.12500100932E+03 0.  0.
    9000005    1    3    3    0    0  0.18986021555E+02  0.58663578238E+02 -0.13422561931E+03  0.14771391710E+03  0.10000000000E+01 0.  0.
    9000005    1    3    3    0    0 -0.18986021555E+02 -0.58663578238E+02 -0.19090579648E+03  0.20061881157E+03  0.10000000000E+01 0.  0.
<mgrwt>
<rscale>  0 0.12500101E+03</rscale>
<asrwt>0</asrwt>
<pdfrwt beam="2">  1        4 0.51804927E-01 0.12500101E+03</pdfrwt>
<pdfrwt beam="1">  1       -4 0.17847166E-02 0.12500101E+03</pdfrwt>
<totfact> 0.69906808E+03</totfact>
</mgrwt>
</event>
<event>
 5    1  0.3199195E-002  0.1250009E+03  0.7818608E-02  0.1235068E+00
          4   -1    0    0  501    0  0.00000000000E+00  0.00000000000E+00  0.53474155650E+02  0.53489234641E+02  0.12700000000E+01 0.  1.
         -4   -1    0    0    0  501 -0.00000000000E+00 -0.00000000000E+00 -0.73019460728E+02  0.73030504209E+02  0.12700000000E+01 0.  1.
         25    2    1    2    0    0  0.00000000000E+00  0.00000000000E+00 -0.19545305077E+02  0.12651973885E+03  0.12500090147E+03 0.  0.
    9000005    1    3    3    0    0  0.42813883666E+02  0.17004980311E+02 -0.52512602456E+02  0.69862517895E+02  0.10000000000E+01 0.  0.
    9000005    1    3    3    0    0 -0.42813883666E+02 -0.17004980311E+02  0.32967297378E+02  0.56657220955E+02  0.10000000000E+01 0.  0.
<mgrwt>
<rscale>  0 0.12500090E+03</rscale>
<asrwt>0</asrwt>
<pdfrwt beam="1">  1        4 0.82288026E-02 0.12500090E+03</pdfrwt>
<pdfrwt beam="2">  1       -4 0.11235773E-01 0.12500090E+03</pdfrwt>
<totfact> 0.10419386E+04</totfact>
</mgrwt>
</event>
<event>
 5    1  0.3199195E-002  0.1249978E+03  0.7818608E-02  0.1235073E+00
         -4   -1    0    0    0  501 -0.00000000000E+00  0.00000000000E+00  0.18732386868E+01  0.22631666262E+01  0.12700000000E+01 0.  1.
          4   -1    0    0  501    0  0.00000000000E+00 -0.00000000000E+00 -0.18882605629E+04  0.18882609900E+04  0.12700000000E+01 0.  1.
         25    2    1    2    0    0  0.00000000000E+00  0.00000000000E+00 -0.18863873242E+04  0.18905241566E+04  0.12499779911E+03 0.  0.
    9000005    1    3    3    0    0  0.41289631751E+02 -0.35333363444E+02 -0.47657719918E+03  0.47966666243E+03  0.10000000000E+01 0.  0.
    9000005    1    3    3    0    0 -0.41289631751E+02  0.35333363444E+02 -0.14098101251E+04  0.14108574942E+04  0.10000000000E+01 0.  0.
<mgrwt>
<rscale>  0 0.12499780E+03</rscale>
<asrwt>0</asrwt>
<pdfrwt beam="2">  1        4 0.29053027E+00 0.12499780E+03</pdfrwt>
<pdfrwt beam="1">  1       -4 0.31821939E-03 0.12499780E+03</pdfrwt>
<totfact> 0.11359285E+03</totfact>
</mgrwt>
</event>
<event>
 5    1  0.3199195E-002  0.1250049E+03  0.7818608E-02  0.1235062E+00
          4   -1    0    0  501    0  0.00000000000E+00  0.00000000000E+00  0.20523213229E+02  0.20562470212E+02  0.12700000000E+01 0. -1.
         -4   -1    0    0    0  501 -0.00000000000E+00 -0.00000000000E+00 -0.19012502457E+03  0.19012926621E+03  0.12700000000E+01 0. -1.
         25    2    1    2    0    0  0.00000000000E+00  0.00000000000E+00 -0.16960181134E+03  0.21069173642E+03  0.12500493344E+03 0.  0.
    9000005    1    3    3    0    0  0.27093337738E+02 -0.50760027598E+02 -0.43690390714E+02  0.72252886394E+02  0.10000000000E+01 0.  0.
    9000005    1    3    3    0    0 -0.27093337738E+02  0.50760027598E+02 -0.12591142063E+03  0.13843885002E+03  0.10000000000E+01 0.  0.
<mgrwt>
<rscale>  0 0.12500493E+03</rscale>
<asrwt>0</asrwt>
<pdfrwt beam="1">  1        4 0.31607636E-02 0.12500493E+03</pdfrwt>
<pdfrwt beam="2">  1       -4 0.29253349E-01 0.12500493E+03</pdfrwt>
<totfact> 0.88353292E+03</totfact>
</mgrwt>
</event>
<event>
 5    1  0.3199195E-002  0.1250001E+03  0.7818608E-02  0.1235069E+00
          4   -1    0    0  501    0  0.00000000000E+00  0.00000000000E+00  0.41620027880E+03  0.41620221644E+03  0.12700000000E+01 0. -1.
         -4   -1    0    0    0  501 -0.00000000000E+00 -0.00000000000E+00 -0.93405822823E+01  0.94265252014E+01  0.12700000000E+01 0. -1.
         25    2    1    2    0    0  0.00000000000E+00  0.00000000000E+00  0.40685969652E+03  0.42562874164E+03  0.12500005226E+03 0.  0.
    9000005    1    3    3    0    0 -0.26648902889E+01 -0.61634015492E+02  0.16948190865E+03  0.18036344105E+03  0.10000000000E+01 0.  0.
    9000005    1    3    3    0    0  0.26648902889E+01  0.61634015492E+02  0.23737778786E+03  0.24526530060E+03  0.10000000000E+01 0.  0.
<mgrwt>
<rscale>  0 0.12500005E+03</rscale>
<asrwt>0</asrwt>
<pdfrwt beam="1">  1        4 0.64037569E-01 0.12500005E+03</pdfrwt>
<pdfrwt beam="2">  1       -4 0.14437728E-02 0.12500005E+03</pdfrwt>
<totfact> 0.62134155E+03</totfact>
</mgrwt>
</event>
<event>
 5    1  0.3199195E-002  0.1250002E+03  0.7818608E-02  0.1235069E+00
          4   -1    0    0  501    0  0.00000000000E+00  0.00000000000E+00  0.10928871458E+03  0.10929609341E+03  0.12700000000E+01 0.  1.
         -4   -1    0    0    0  501 -0.00000000000E+00 -0.00000000000E+00 -0.35722718217E+02  0.35745286358E+02  0.12700000000E+01 0.  1.
         25    2    1    2    0    0  0.00000000000E+00  0.00000000000E+00  0.73565996363E+02  0.14504137977E+03  0.12500018410E+03 0.  0.
    9000005    1    3    3    0    0  0.41840633649E+02  0.46413163003E+02  0.36012289755E+02  0.72129781210E+02  0.10000000000E+01 0.  0.
    9000005    1    3    3    0    0 -0.41840633649E+02 -0.46413163003E+02  0.37553706608E+02  0.72911598557E+02  0.10000000000E+01 0.  0.
<mgrwt>
<rscale>  0 0.12500018E+03</rscale>
<asrwt>0</asrwt>
<pdfrwt beam="1">  1        4 0.16815951E-01 0.12500018E+03</pdfrwt>
<pdfrwt beam="2">  1       -4 0.54981066E-02 0.12500018E+03</pdfrwt>
<totfact> 0.10030106E+04</totfact>
</mgrwt>
</event>
<event>
 5    1  0.3199195E-002  0.1249922E+03  0.7818608E-02  0.1235081E+00
         -4   -1    0    0    0  501 -0.00000000000E+00  0.00000000000E+00  0.25849078030E+02  0.25880257630E+02  0.12700000000E+01 0. -1.
          4   -1    0    0  501    0  0.00000000000E+00 -0.00000000000E+00 -0.15097388987E+03  0.15097923142E+03  0.12700000000E+01 0. -1.
         25    2    1    2    0    0  0.00000000000E+00  0.00000000000E+00 -0.12512481184E+03  0.17685948905E+03  0.12499224108E+03 0.  0.
    9000005    1    3    3    0    0 -0.62176627029E+02  0.33223548782E+01 -0.55102702560E+02  0.83152142606E+02  0.10000000000E+01 0.  0.
    9000005    1    3    3    0    0  0.62176627029E+02 -0.33223548782E+01 -0.70022109275E+02  0.93707346446E+02  0.10000000000E+01 0.  0.
<mgrwt>
<rscale>  0 0.12499224E+03</rscale>
<asrwt>0</asrwt>
<pdfrwt beam="2">  1        4 0.23229561E-01 0.12499224E+03</pdfrwt>
<pdfrwt beam="1">  1       -4 0.39795907E-02 0.12499224E+03</pdfrwt>
<totfact> 0.94201772E+03</totfact>
</mgrwt>
</event>
<event>
 5    1  0.3199195E-002  0.1249862E+03  0.7818608E-02  0.1235091E+00
         -4   -1    0    0    0  501 -0.00000000000E+00  0.00000000000E+00  0.36799572373E+01  0.38929404399E+01  0.12700000000E+01 0.  1.
          4   -1    0    0  501    0  0.00000000000E+00 -0.00000000000E+00 -0.10311977927E+04  0.10311985747E+04  0.12700000000E+01 0.  1.
         25    2    1    2    0    0  0.00000000000E+00  0.00000000000E+00 -0.10275178355E+04  0.10350915152E+04  0.12498616974E+03 0.  0.
    9000005    1    3    3    0    0 -0.54654400747E+02  0.17815281689E+02 -0.31091805411E+03  0.31618906394E+03  0.10000000000E+01 0.  0.
    9000005    1    3    3    0    0  0.54654400747E+02 -0.17815281689E+02 -0.71659978134E+03  0.71890245124E+03  0.10000000000E+01 0.  0.
<mgrwt>
<rscale>  0 0.12498617E+03</rscale>
<asrwt>0</asrwt>
<pdfrwt beam="2">  1        4 0.15866203E+00 0.12498617E+03</pdfrwt>
<pdfrwt beam="1">  1       -4 0.58259157E-03 0.12498617E+03</pdfrwt>
<totfact> 0.29473807E+03</totfact>
</mgrwt>
</event>
<event>
 5    1  0.3199195E-002  0.1250107E+03  0.7818608E-02  0.1235053E+00
          4   -1    0    0  501    0  0.00000000000E+00  0.00000000000E+00  0.12250672719E+03  0.12251330992E+03  0.12700000000E+01 0.  1.
         -4   -1    0    0    0  501 -0.00000000000E+00 -0.00000000000E+00 -0.31871376269E+02  0.31896669502E+02  0.12700000000E+01 0.  1.
         25    2    1    2    0    0  0.00000000000E+00  0.00000000000E+00  0.90635350924E+02  0.15440997942E+03  0.12501069917E+03 0.  0.
    9000005    1    3    3    0    0  0.51052204879E+02 -0.93826983188E+01  0.88310892284E+02  0.10244108720E+03  0.10000000000E+01 0.  0.
    9000005    1    3    3    0    0 -0.51052204879E+02  0.93826983188E+01  0.23244586398E+01  0.51968892222E+02  0.10000000000E+01 0.  0.
<mgrwt>
<rscale>  0 0.12501070E+03</rscale>
<asrwt>0</asrwt>
<pdfrwt beam="1">  1        4 0.18849641E-01 0.12501070E+03</pdfrwt>
<pdfrwt beam="2">  1       -4 0.49057407E-02 0.12501070E+03</pdfrwt>
<totfact> 0.98407769E+03</totfact>
</mgrwt>
</event>
<event>
 5    1  0.3199195E-002  0.1249990E+03  0.7818608E-02  0.1235071E+00
          4   -1    0    0  501    0  0.00000000000E+00  0.00000000000E+00  0.76595779446E+01  0.77641505838E+01  0.12700000000E+01 0.  1.
         -4   -1    0    0    0  501 -0.00000000000E+00 -0.00000000000E+00 -0.50641098839E+03  0.50641258087E+03  0.12700000000E+01 0.  1.
         25    2    1    2    0    0  0.00000000000E+00  0.00000000000E+00 -0.49875141044E+03  0.51417673145E+03  0.12499896698E+03 0.  0.
    9000005    1    3    3    0    0 -0.31596604058E+02 -0.15697685975E+02 -0.37207003962E+02  0.51284733370E+02  0.10000000000E+01 0.  0.
    9000005    1    3    3    0    0  0.31596604058E+02  0.15697685975E+02 -0.46154440648E+03  0.46289199808E+03  0.10000000000E+01 0.  0.
<mgrwt>
<rscale>  0 0.12499897E+03</rscale>
<asrwt>0</asrwt>
<pdfrwt beam="1">  1        4 0.11865636E-02 0.12499897E+03</pdfrwt>
<pdfrwt beam="2">  1       -4 0.77917523E-01 0.12499897E+03</pdfrwt>
<totfact> 0.54782218E+03</totfact>
</mgrwt>
</event>
<event>
 5    1  0.3199195E-002  0.1250014E+03  0.7818608E-02  0.1235067E+00
         -4   -1    0    0    0  501 -0.00000000000E+00  0.00000000000E+00  0.24156409761E+02  0.24189771238E+02  0.12700000000E+01 0. -1.
          4   -1    0    0  501    0  0.00000000000E+00 -0.00000000000E+00 -0.16156267465E+03  0.16156766614E+03  0.12700000000E+01 0. -1.
         25    2    1    2    0    0  0.00000000000E+00  0.00000000000E+00 -0.13740626489E+03  0.18575743738E+03  0.12500137563E+03 0.  0.
    9000005    1    3    3    0    0 -0.26782092401E+02 -0.21893977012E+02 -0.14604463696E+03  0.15008884931E+03  0.10000000000E+01 0.  0.
    9000005    1    3    3    0    0  0.26782092401E+02  0.21893977012E+02  0.86383720645E+01  0.35668588067E+02  0.10000000000E+01 0.  0.
<mgrwt>
<rscale>  0 0.12500138E+03</rscale>
<asrwt>0</asrwt>
<pdfrwt beam="2">  1        4 0.24858746E-01 0.12500138E+03</pdfrwt>
<pdfrwt beam="1">  1       -4 0.37193211E-02 0.12500138E+03</pdfrwt>
<totfact> 0.92587938E+03</totfact>
</mgrwt>
</event>
<event>
 5    1  0.3199195E-002  0.1250032E+03  0.7818608E-02  0.1235064E+00
          4   -1    0    0  501    0  0.00000000000E+00  0.00000000000E+00  0.54467731079E+02  0.54482535081E+02  0.12700000000E+01 0.  1.
         -4   -1    0    0    0  501 -0.00000000000E+00 -0.00000000000E+00 -0.71690268752E+02  0.71701516956E+02  0.12700000000E+01 0.  1.
         25    2    1    2    0    0  0.00000000000E+00  0.00000000000E+00 -0.17222537674E+02  0.12618405204E+03  0.12500319670E+03 0.  0.
    9000005    1    3    3    0    0  0.52286404967E+02 -0.36346644382E+00  0.25938499835E+02  0.58376416693E+02  0.10000000000E+01 0.  0.
    9000005    1    3    3    0    0 -0.52286404967E+02  0.36346644382E+00 -0.43161037509E+02  0.67807635344E+02  0.10000000000E+01 0.  0.
<mgrwt>
<rscale>  0 0.12500320E+03</rscale>
<asrwt>0</asrwt>
<pdfrwt beam="1">  1        4 0.83816550E-02 0.12500320E+03</pdfrwt>
<pdfrwt beam="2">  1       -4 0.11031276E-01 0.12500320E+03</pdfrwt>
<totfact> 0.10426175E+04</totfact>
</mgrwt>
</event>
<event>
 5    1  0.3199195E-002  0.1249993E+03  0.7818608E-02  0.1235070E+00
         -4   -1    0    0    0  501 -0.00000000000E+00  0.00000000000E+00  0.11872402352E+04  0.11872409145E+04  0.12700000000E+01 0. -1.
          4   -1    0    0  501    0  0.00000000000E+00 -0.00000000000E+00 -0.31668980276E+01  0.34120584868E+01  0.12700000000E+01 0. -1.
         25    2    1    2    0    0  0.00000000000E+00  0.00000000000E+00  0.11840733372E+04  0.11906529729E+04  0.12499933678E+03 0.  0.
    9000005    1    3    3    0    0 -0.21171378902E+02 -0.30488386801E+02  0.11316639429E+03  0.11910248449E+03  0.10000000000E+01 0.  0.
    9000005    1    3    3    0    0  0.21171378902E+02  0.30488386801E+02  0.10709069429E+04  0.10715504885E+04  0.10000000000E+01 0.  0.
<mgrwt>
<rscale>  0 0.12499934E+03</rscale>
<asrwt>0</asrwt>
<pdfrwt beam="2">  1        4 0.50612562E-03 0.12499934E+03</pdfrwt>
<pdfrwt beam="1">  1       -4 0.18267133E+00 0.12499934E+03</pdfrwt>
<totfact> 0.24959072E+03</totfact>
</mgrwt>
</event>
<event>
 5    1  0.3199195E-002  0.1250006E+03  0.7818608E-02  0.1235068E+00
         -4   -1    0    0    0  501 -0.00000000000E+00  0.00000000000E+00  0.34577223847E+02  0.34600539142E+02  0.12700000000E+01 0. -1.
          4   -1    0    0  501    0  0.00000000000E+00 -0.00000000000E+00 -0.11290782600E+03  0.11291496832E+03  0.12700000000E+01 0. -1.
         25    2    1    2    0    0  0.00000000000E+00  0.00000000000E+00 -0.78330602149E+02  0.14751550746E+03  0.12500056684E+03 0.  0.
    9000005    1    3    3    0    0 -0.90722648048E+01  0.49571507794E+02  0.44455551370E+01  0.50600428201E+02  0.10000000000E+01 0.  0.
    9000005    1    3    3    0    0  0.90722648048E+01 -0.49571507794E+02 -0.82776157286E+02  0.96915079264E+02  0.10000000000E+01 0.  0.
<mgrwt>
<rscale>  0 0.12500057E+03</rscale>
<asrwt>0</asrwt>
<pdfrwt beam="2">  1        4 0.17372777E-01 0.12500057E+03</pdfrwt>
<pdfrwt beam="1">  1       -4 0.53219159E-02 0.12500057E+03</pdfrwt>
<totfact> 0.99799996E+03</totfact>
</mgrwt>
</event>
<event>
 5    1  0.3199195E-002  0.1249951E+03  0.7818608E-02  0.1235077E+00
          4   -1    0    0  501    0  0.00000000000E+00  0.00000000000E+00  0.80574274593E+02  0.80584282750E+02  0.12700000000E+01 0.  1.
         -4   -1    0    0    0  501 -0.00000000000E+00 -0.00000000000E+00 -0.48454940712E+02  0.48471581152E+02  0.12700000000E+01 0.  1.
         25    2    1    2    0    0  0.00000000000E+00  0.00000000000E+00  0.32119333882E+02  0.12905586390E+03  0.12499505750E+03 0.  0.
    9000005    1    3    3    0    0  0.12355755683E+02 -0.59195346919E+02  0.32325439023E+02  0.68576146023E+02  0.10000000000E+01 0.  0.
    9000005    1    3    3    0    0 -0.12355755683E+02  0.59195346919E+02 -0.20610514126E+00  0.60479717878E+02  0.10000000000E+01 0.  0.
<mgrwt>
<rscale>  0 0.12499506E+03</rscale>
<asrwt>0</asrwt>
<pdfrwt beam="1">  1        4 0.12398092E-01 0.12499506E+03</pdfrwt>
<pdfrwt beam="2">  1       -4 0.74566563E-02 0.12499506E+03</pdfrwt>
<totfact> 0.10365903E+04</totfact>
</mgrwt>
</event>
<event>
 5    1  0.3199195E-002  0.1249979E+03  0.7818608E-02  0.1235073E+00
         -4   -1    0    0    0  501 -0.00000000000E+00  0.00000000000E+00  0.12389875996E+03  0.12390526873E+03  0.12700000000E+01 0.  1.
          4   -1    0    0  501    0  0.00000000000E+00 -0.00000000000E+00 -0.31506556009E+02  0.31532141880E+02  0.12700000000E+01 0.  1.
         25    2    1    2    0    0  0.00000000000E+00  0.00000000000E+00  0.92392203952E+02  0.15543741061E+03  0.12499787705E+03 0.  0.
    9000005    1    3    3    0    0 -0.20493660792E+02 -0.56914208921E+02  0.26696210857E+02  0.66127944047E+02  0.10000000000E+01 0.  0.
    9000005    1    3    3    0    0  0.20493660792E+02  0.56914208921E+02  0.65695993095E+02  0.89309466567E+02  0.10000000000E+01 0.  0.
<mgrwt>
<rscale>  0 0.12499788E+03</rscale>
<asrwt>0</asrwt>
<pdfrwt beam="2">  1        4 0.48496313E-02 0.12499788E+03</pdfrwt>
<pdfrwt beam="1">  1       -4 0.19063817E-01 0.12499788E+03</pdfrwt>
<totfact> 0.98234388E+03</totfact>
</mgrwt>
</event>
<event>
 5    1  0.3199195E-002  0.1250001E+03  0.7818608E-02  0.1235069E+00
         -4   -1    0    0    0  501 -0.00000000000E+00  0.00000000000E+00  0.67879604373E+01  0.69057444854E+01  0.12700000000E+01 0.  1.
          4   -1    0    0  501    0  0.00000000000E+00 -0.00000000000E+00 -0.57039973272E+03  0.57040114656E+03  0.12700000000E+01 0.  1.
         25    2    1    2    0    0  0.00000000000E+00  0.00000000000E+00 -0.56361177229E+03  0.57730689104E+03  0.12500006633E+03 0.  0.
    9000005    1    3    3    0    0  0.52186014725E+02  0.33584646261E+02 -0.24788444427E+03  0.25553670246E+03  0.10000000000E+01 0.  0.
    9000005    1    3    3    0    0 -0.52186014725E+02 -0.33584646261E+02 -0.31572732802E+03  0.32177018858E+03  0.10000000000E+01 0.  0.
<mgrwt>
<rscale>  0 0.12500007E+03</rscale>
<asrwt>0</asrwt>
<pdfrwt beam="2">  1        4 0.87762937E-01 0.12500007E+03</pdfrwt>
<pdfrwt beam="1">  1       -4 0.10534711E-02 0.12500007E+03</pdfrwt>
<totfact> 0.50332071E+03</totfact>
</mgrwt>
</event>
<event>
 5    1  0.3199195E-002  0.1250011E+03  0.7818608E-02  0.1235068E+00
          4   -1    0    0  501    0  0.00000000000E+00  0.00000000000E+00  0.11972545307E+02  0.12039715159E+02  0.12700000000E+01 0.  1.
         -4   -1    0    0    0  501 -0.00000000000E+00 -0.00000000000E+00 -0.32529213095E+03  0.32529461010E+03  0.12700000000E+01 0.  1.
         25    2    1    2    0    0  0.00000000000E+00  0.00000000000E+00 -0.31331958565E+03  0.33733432526E+03  0.12500113699E+03 0.  0.
    9000005    1    3    3    0    0  0.23965951999E+02  0.68192175740E+00 -0.91964388338E+00  0.24014112879E+02  0.10000000000E+01 0.  0.
    9000005    1    3    3    0    0 -0.23965951999E+02 -0.68192175740E+00 -0.31239994176E+03  0.31332021238E+03  0.10000000000E+01 0.  0.
<mgrwt>
<rscale>  0 0.12500114E+03</rscale>
<asrwt>0</asrwt>
<pdfrwt beam="1">  1        4 0.18472879E-02 0.12500114E+03</pdfrwt>
<pdfrwt beam="2">  1       -4 0.50050294E-01 0.12500114E+03</pdfrwt>
<totfact> 0.71138996E+03</totfact>
</mgrwt>
</event>
<event>
 5    1  0.3199195E-002  0.1249675E+03  0.7818608E-02  0.1235120E+00
          4   -1    0    0  501    0  0.00000000000E+00  0.00000000000E+00  0.82737613988E+02  0.82747360492E+02  0.12700000000E+01 0.  1.
         -4   -1    0    0    0  501 -0.00000000000E+00 -0.00000000000E+00 -0.47166881853E+02  0.47183976557E+02  0.12700000000E+01 0.  1.
         25    2    1    2    0    0  0.00000000000E+00  0.00000000000E+00  0.35570732135E+02  0.12993133705E+03  0.12496749723E+03 0.  0.
    9000005    1    3    3    0    0  0.52880064213E+01 -0.43494507237E+02  0.64090713806E+02  0.77642480433E+02  0.10000000000E+01 0.  0.
    9000005    1    3    3    0    0 -0.52880064213E+01  0.43494507237E+02 -0.28519981671E+02  0.52288856616E+02  0.10000000000E+01 0.  0.
<mgrwt>
<rscale>  0 0.12496750E+03</rscale>
<asrwt>0</asrwt>
<pdfrwt beam="1">  1        4 0.12730928E-01 0.12496750E+03</pdfrwt>
<pdfrwt beam="2">  1       -4 0.72585081E-02 0.12496750E+03</pdfrwt>
<totfact> 0.10353571E+04</totfact>
</mgrwt>
</event>
<event>
 5    1  0.3199195E-002  0.1249994E+03  0.7818608E-02  0.1235070E+00
          4   -1    0    0  501    0  0.00000000000E+00  0.00000000000E+00  0.22416272245E+04  0.22416275843E+04  0.12700000000E+01 0.  1.
         -4   -1    0    0    0  501 -0.00000000000E+00 -0.00000000000E+00 -0.15107762485E+01  0.19736628063E+01  0.12700000000E+01 0.  1.
         25    2    1    2    0    0  0.00000000000E+00  0.00000000000E+00  0.22401164483E+04  0.22436012471E+04  0.12499941646E+03 0.  0.
    9000005    1    3    3    0    0  0.31751418687E+02 -0.44257361632E+02  0.16698767824E+04  0.16707651945E+04  0.10000000000E+01 0.  0.
    9000005    1    3    3    0    0 -0.31751418687E+02  0.44257361632E+02  0.57023966589E+03  0.57283605264E+03  0.10000000000E+01 0.  0.
<mgrwt>
<rscale>  0 0.12499942E+03</rscale>
<asrwt>0</asrwt>
<pdfrwt beam="1">  1        4 0.34490126E+00 0.12499942E+03</pdfrwt>
<pdfrwt beam="2">  1       -4 0.26806153E-03 0.12499942E+03</pdfrwt>
<totfact> 0.70074219E+02</totfact>
</mgrwt>
</event>
<event>
 5    1  0.3199195E-002  0.1250014E+03  0.7818608E-02  0.1235067E+00
         -4   -1    0    0    0  501 -0.00000000000E+00  0.00000000000E+00  0.73242406219E+02  0.73253416089E+02  0.12700000000E+01 0.  1.
          4   -1    0    0  501    0  0.00000000000E+00 -0.00000000000E+00 -0.53311798138E+02  0.53326923038E+02  0.12700000000E+01 0.  1.
         25    2    1    2    0    0  0.00000000000E+00  0.00000000000E+00  0.19930608080E+02  0.12658033913E+03  0.12500141245E+03 0.  0.
    9000005    1    3    3    0    0  0.41895538925E+02  0.45401886843E+02  0.42447039984E+00  0.61787925081E+02  0.10000000000E+01 0.  0.
    9000005    1    3    3    0    0 -0.41895538925E+02 -0.45401886843E+02  0.19506137681E+02  0.64792414046E+02  0.10000000000E+01 0.  0.
<mgrwt>
<rscale>  0 0.12500141E+03</rscale>
<asrwt>0</asrwt>
<pdfrwt beam="2">  1        4 0.82038255E-02 0.12500141E+03</pdfrwt>
<pdfrwt beam="1">  1       -4 0.11270073E-01 0.12500141E+03</pdfrwt>
<totfact> 0.10417945E+04</totfact>
</mgrwt>
</event>
<event>
 5    1  0.3199195E-002  0.1250110E+03  0.7818608E-02  0.1235052E+00
          4   -1    0    0  501    0  0.00000000000E+00  0.00000000000E+00  0.12355389760E+02  0.12420489367E+02  0.12700000000E+01 0.  1.
         -4   -1    0    0    0  501 -0.00000000000E+00 -0.00000000000E+00 -0.31531587034E+03  0.31531842793E+03  0.12700000000E+01 0.  1.
         25    2    1    2    0    0  0.00000000000E+00  0.00000000000E+00 -0.30296048058E+03  0.32773891729E+03  0.12501097997E+03 0.  0.
    9000005    1    3    3    0    0  0.15395129252E+01 -0.72922519853E-02  0.12318525581E+02  0.12454566460E+02  0.10000000000E+01 0.  0.
    9000005    1    3    3    0    0 -0.15395129252E+01  0.72922519853E-02 -0.31527900616E+03  0.31528435083E+03  0.10000000000E+01 0.  0.
<mgrwt>
<rscale>  0 0.12501098E+03</rscale>
<asrwt>0</asrwt>
<pdfrwt beam="1">  1        4 0.19060338E-02 0.12501098E+03</pdfrwt>
<pdfrwt beam="2">  1       -4 0.48515332E-01 0.12501098E+03</pdfrwt>
<totfact> 0.72227470E+03</totfact>
</mgrwt>
</event>
<event>
 5    1  0.3199195E-002  0.1250007E+03  0.7818608E-02  0.1235068E+00
          4   -1    0    0  501    0  0.00000000000E+00  0.00000000000E+00  0.45287938882E+02  0.45305742552E+02  0.12700000000E+01 0.  1.
         -4   -1    0    0    0  501 -0.00000000000E+00 -0.00000000000E+00 -0.86215159292E+02  0.86224512708E+02  0.12700000000E+01 0.  1.
         25    2    1    2    0    0  0.00000000000E+00  0.00000000000E+00 -0.40927220410E+02  0.13153025526E+03  0.12500068271E+03 0.  0.
    9000005    1    3    3    0    0 -0.13445219035E+02  0.77109340867E+01  0.43238502656E+02  0.45943449276E+02  0.10000000000E+01 0.  0.
    9000005    1    3    3    0    0  0.13445219035E+02 -0.77109340867E+01 -0.84165723066E+02  0.85586805985E+02  0.10000000000E+01 0.  0.
<mgrwt>
<rscale>  0 0.12500068E+03</rscale>
<asrwt>0</asrwt>
<pdfrwt beam="1">  1        4 0.69694642E-02 0.12500068E+03</pdfrwt>
<pdfrwt beam="2">  1       -4 0.13265960E-01 0.12500068E+03</pdfrwt>
<totfact> 0.10311576E+04</totfact>
</mgrwt>
</event>
<event>
 5    1  0.3199195E-002  0.1250010E+03  0.7818608E-02  0.1235068E+00
          4   -1    0    0  501    0  0.00000000000E+00  0.00000000000E+00  0.47690507797E+02  0.47707414874E+02  0.12700000000E+01 0. -1.
         -4   -1    0    0    0  501 -0.00000000000E+00 -0.00000000000E+00 -0.81873295480E+02  0.81883144864E+02  0.12700000000E+01 0. -1.
         25    2    1    2    0    0  0.00000000000E+00  0.00000000000E+00 -0.34182787683E+02  0.12959055974E+03  0.12500100079E+03 0.  0.
    9000005    1    3    3    0    0 -0.14092055809E+02  0.12773529354E+02 -0.78804866198E+02  0.81073769035E+02  0.10000000000E+01 0.  0.
    9000005    1    3    3    0    0  0.14092055809E+02 -0.12773529354E+02  0.44622078515E+02  0.48516790703E+02  0.10000000000E+01 0.  0.
<mgrwt>
<rscale>  0 0.12500100E+03</rscale>
<asrwt>0</asrwt>
<pdfrwt beam="1">  1        4 0.73390594E-02 0.12500100E+03</pdfrwt>
<pdfrwt beam="2">  1       -4 0.12597950E-01 0.12500100E+03</pdfrwt>
<totfact> 0.10353040E+04</totfact>
</mgrwt>
</event>
<event>
 5    1  0.3199195E-002  0.1249979E+03  0.7818608E-02  0.1235073E+00
         -4   -1    0    0    0  501 -0.00000000000E+00  0.00000000000E+00  0.52263217426E+01  0.53784141675E+01  0.12700000000E+01 0.  1.
          4   -1    0    0  501    0  0.00000000000E+00 -0.00000000000E+00 -0.73652152386E+03  0.73652261880E+03  0.12700000000E+01 0.  1.
         25    2    1    2    0    0  0.00000000000E+00  0.00000000000E+00 -0.73129520212E+03  0.74190103297E+03  0.12499788032E+03 0.  0.
    9000005    1    3    3    0    0  0.26097187449E+02 -0.56385643068E+02 -0.32595924884E+03  0.33182952829E+03  0.10000000000E+01 0.  0.
    9000005    1    3    3    0    0 -0.26097187449E+02  0.56385643068E+02 -0.40533595328E+03  0.41007150469E+03  0.10000000000E+01 0.  0.
<mgrwt>
<rscale>  0 0.12499788E+03</rscale>
<asrwt>0</asrwt>
<pdfrwt beam="2">  1        4 0.11332271E+00 0.12499788E+03</pdfrwt>
<pdfrwt beam="1">  1       -4 0.81583373E-03 0.12499788E+03</pdfrwt>
<totfact> 0.40966461E+03</totfact>
</mgrwt>
</event>
<event>
 5    1  0.3199195E-002  0.1250013E+03  0.7818608E-02  0.1235067E+00
         -4   -1    0    0    0  501 -0.00000000000E+00  0.00000000000E+00  0.21116146553E+03  0.21116528462E+03  0.12700000000E+01 0. -1.
          4   -1    0    0  501    0  0.00000000000E+00 -0.00000000000E+00 -0.18473480968E+02  0.18517083978E+02  0.12700000000E+01 0. -1.
         25    2    1    2    0    0  0.00000000000E+00  0.00000000000E+00  0.19268798457E+03  0.22968236859E+03  0.12500132418E+03 0.  0.
    9000005    1    3    3    0    0 -0.45109854201E+02 -0.35646868409E+02  0.51346056383E+02  0.77090957184E+02  0.10000000000E+01 0.  0.
    9000005    1    3    3    0    0  0.45109854201E+02  0.35646868409E+02  0.14134192818E+03  0.15259141141E+03  0.10000000000E+01 0.  0.
<mgrwt>
<rscale>  0 0.12500132E+03</rscale>
<asrwt>0</asrwt>
<pdfrwt beam="2">  1        4 0.28457219E-02 0.12500132E+03</pdfrwt>
<pdfrwt beam="1">  1       -4 0.32490027E-01 0.12500132E+03</pdfrwt>
<totfact> 0.85355871E+03</totfact>
</mgrwt>
</event>
<event>
 5    1  0.3199195E-002  0.1250005E+03  0.7818608E-02  0.1235069E+00
         -4   -1    0    0    0  501 -0.00000000000E+00  0.00000000000E+00  0.49591855682E+02  0.49608114760E+02  0.12700000000E+01 0. -1.
          4   -1    0    0  501    0  0.00000000000E+00 -0.00000000000E+00 -0.78734278937E+02  0.78744520950E+02  0.12700000000E+01 0. -1.
         25    2    1    2    0    0  0.00000000000E+00  0.00000000000E+00 -0.29142423254E+02  0.12835263571E+03  0.12500047304E+03 0.  0.
    9000005    1    3    3    0    0 -0.26222269903E+02  0.54413005134E+01  0.43405913426E+02  0.51012630892E+02  0.10000000000E+01 0.  0.
    9000005    1    3    3    0    0  0.26222269903E+02 -0.54413005134E+01 -0.72548336681E+02  0.77340004818E+02  0.10000000000E+01 0.  0.
<mgrwt>
<rscale>  0 0.12500047E+03</rscale>
<asrwt>0</asrwt>
<pdfrwt beam="2">  1        4 0.12115005E-01 0.12500047E+03</pdfrwt>
<pdfrwt beam="1">  1       -4 0.76315548E-02 0.12500047E+03</pdfrwt>
<totfact> 0.10379768E+04</totfact>
</mgrwt>
</event>
<event>
 5    1  0.3199195E-002  0.1249987E+03  0.7818608E-02  0.1235071E+00
          4   -1    0    0  501    0  0.00000000000E+00  0.00000000000E+00  0.14670452614E+02  0.14725321045E+02  0.12700000000E+01 0.  1.
         -4   -1    0    0    0  501 -0.00000000000E+00 -0.00000000000E+00 -0.26570743414E+03  0.26571046923E+03  0.12700000000E+01 0.  1.
         25    2    1    2    0    0  0.00000000000E+00  0.00000000000E+00 -0.25103698153E+03  0.28043579028E+03  0.12499866548E+03 0.  0.
    9000005    1    3    3    0    0  0.14893646182E+02 -0.32846947005E+02 -0.24001280086E+03  0.24270947077E+03  0.10000000000E+01 0.  0.
    9000005    1    3    3    0    0 -0.14893646182E+02  0.32846947005E+02 -0.11024180670E+02  0.37726319508E+02  0.10000000000E+01 0.  0.
<mgrwt>
<rscale>  0 0.12499867E+03</rscale>
<asrwt>0</asrwt>
<pdfrwt beam="1">  1        4 0.22614470E-02 0.12499867E+03</pdfrwt>
<pdfrwt beam="2">  1       -4 0.40882517E-01 0.12499867E+03</pdfrwt>
<totfact> 0.78122677E+03</totfact>
</mgrwt>
</event>
<event>
 5    1  0.3199195E-002  0.1250008E+03  0.7818608E-02  0.1235068E+00
         -4   -1    0    0    0  501 -0.00000000000E+00  0.00000000000E+00  0.11696166937E+03  0.11696856416E+03  0.12700000000E+01 0.  1.
          4   -1    0    0  501    0  0.00000000000E+00 -0.00000000000E+00 -0.33378184990E+02  0.33402337242E+02  0.12700000000E+01 0.  1.
         25    2    1    2    0    0  0.00000000000E+00  0.00000000000E+00  0.83583484378E+02  0.15037090140E+03  0.12500083651E+03 0.  0.
    9000005    1    3    3    0    0  0.48316207620E+02  0.22152576840E+02  0.22564623246E+01  0.53209813020E+02  0.10000000000E+01 0.  0.
    9000005    1    3    3    0    0 -0.48316207620E+02 -0.22152576840E+02  0.81327022054E+02  0.97161088382E+02  0.10000000000E+01 0.  0.
<mgrwt>
<rscale>  0 0.12500084E+03</rscale>
<asrwt>0</asrwt>
<pdfrwt beam="2">  1        4 0.51374935E-02 0.12500084E+03</pdfrwt>
<pdfrwt beam="1">  1       -4 0.17996492E-01 0.12500084E+03</pdfrwt>
<totfact> 0.99227947E+03</totfact>
</mgrwt>
</event>
<event>
 5    1  0.3199195E-002  0.1249949E+03  0.7818608E-02  0.1235077E+00
          4   -1    0    0  501    0  0.00000000000E+00  0.00000000000E+00  0.57263952973E+01  0.58655351930E+01  0.12700000000E+01 0.  1.
         -4   -1    0    0    0  501 -0.00000000000E+00 -0.00000000000E+00 -0.67376556870E+03  0.67376676563E+03  0.12700000000E+01 0.  1.
         25    2    1    2    0    0  0.00000000000E+00  0.00000000000E+00 -0.66803917341E+03  0.67963230083E+03  0.12499490837E+03 0.  0.
    9000005    1    3    3    0    0 -0.29857107229E+02  0.51323465521E+02 -0.22811304043E+03  0.23571615171E+03  0.10000000000E+01 0.  0.
    9000005    1    3    3    0    0  0.29857107229E+02 -0.51323465521E+02 -0.43992613298E+03  0.44391614911E+03  0.10000000000E+01 0.  0.
<mgrwt>
<rscale>  0 0.12499491E+03</rscale>
<asrwt>0</asrwt>
<pdfrwt beam="1">  1        4 0.89177956E-03 0.12499491E+03</pdfrwt>
<pdfrwt beam="2">  1       -4 0.10366697E+00 0.12499491E+03</pdfrwt>
<totfact> 0.44188857E+03</totfact>
</mgrwt>
</event>
<event>
 5    1  0.3199195E-002  0.1249967E+03  0.7818608E-02  0.1235074E+00
          4   -1    0    0  501    0  0.00000000000E+00  0.00000000000E+00  0.15051518766E+01  0.19693608536E+01  0.12700000000E+01 0.  1.
         -4   -1    0    0    0  501 -0.00000000000E+00 -0.00000000000E+00 -0.22479333695E+04  0.22479337282E+04  0.12700000000E+01 0.  1.
         25    2    1    2    0    0  0.00000000000E+00  0.00000000000E+00 -0.22464282176E+04  0.22499030891E+04  0.12499669368E+03 0.  0.
    9000005    1    3    3    0    0  0.52102577941E+02  0.34240353457E+02 -0.11995016840E+04  0.12011212971E+04  0.10000000000E+01 0.  0.
    9000005    1    3    3    0    0 -0.52102577941E+02 -0.34240353457E+02 -0.10469265336E+04  0.10487817920E+04  0.10000000000E+01 0.  0.
<mgrwt>
<rscale>  0 0.12499669E+03</rscale>
<asrwt>0</asrwt>
<pdfrwt beam="1">  1        4 0.26729961E-03 0.12499669E+03</pdfrwt>
<pdfrwt beam="2">  1       -4 0.34586931E+00 0.12499669E+03</pdfrwt>
<totfact> 0.69425401E+02</totfact>
</mgrwt>
</event>
<event>
 5    1  0.3199195E-002  0.1250001E+03  0.7818608E-02  0.1235069E+00
          4   -1    0    0  501    0  0.00000000000E+00  0.00000000000E+00  0.12889819922E+03  0.12890445556E+03  0.12700000000E+01 0.  1.
         -4   -1    0    0    0  501 -0.00000000000E+00 -0.00000000000E+00 -0.30284652171E+02  0.30311269474E+02  0.12700000000E+01 0.  1.
         25    2    1    2    0    0  0.00000000000E+00  0.00000000000E+00  0.98613547051E+02  0.15921572503E+03  0.12500006174E+03 0.  0.
    9000005    1    3    3    0    0  0.26581223755E+02 -0.22577285233E+02  0.11535600805E+03  0.12051681981E+03  0.10000000000E+01 0.  0.
    9000005    1    3    3    0    0 -0.26581223755E+02  0.22577285233E+02 -0.16742460998E+02  0.38698905219E+02  0.10000000000E+01 0.  0.
<mgrwt>
<rscale>  0 0.12500006E+03</rscale>
<asrwt>0</asrwt>
<pdfrwt beam="1">  1        4 0.19833021E-01 0.12500006E+03</pdfrwt>
<pdfrwt beam="2">  1       -4 0.46617061E-02 0.12500006E+03</pdfrwt>
<totfact> 0.97494065E+03</totfact>
</mgrwt>
</event>
<event>
 5    1  0.3199195E-002  0.1250014E+03  0.7818608E-02  0.1235067E+00
          4   -1    0    0  501    0  0.00000000000E+00  0.00000000000E+00  0.11086500586E+03  0.11087227979E+03  0.12700000000E+01 0.  1.
         -4   -1    0    0    0  501 -0.00000000000E+00 -0.00000000000E+00 -0.35215222905E+02  0.35238116071E+02  0.12700000000E+01 0.  1.
         25    2    1    2    0    0  0.00000000000E+00  0.00000000000E+00  0.75649782958E+02  0.14611039586E+03  0.12500143245E+03 0.  0.
    9000005    1    3    3    0    0 -0.31881405914E+02  0.17470636249E+02  0.97238581715E+02  0.10381709372E+03  0.10000000000E+01 0.  0.
    9000005    1    3    3    0    0  0.31881405914E+02 -0.17470636249E+02 -0.21588798758E+02  0.42293302138E+02  0.10000000000E+01 0.  0.
<mgrwt>
<rscale>  0 0.12500143E+03</rscale>
<asrwt>0</asrwt>
<pdfrwt beam="1">  1        4 0.17058475E-01 0.12500143E+03</pdfrwt>
<pdfrwt beam="2">  1       -4 0.54200472E-02 0.12500143E+03</pdfrwt>
<totfact> 0.10008154E+04</totfact>
</mgrwt>
</event>
<event>
 5    1  0.3199195E-002  0.1250013E+03  0.7818608E-02  0.1235067E+00
         -4   -1    0    0    0  501 -0.00000000000E+00  0.00000000000E+00  0.84392171689E+02  0.84401727129E+02  0.12700000000E+01 0. -1.
          4   -1    0    0  501    0  0.00000000000E+00 -0.00000000000E+00 -0.46266972362E+02  0.46284399440E+02  0.12700000000E+01 0. -1.
         25    2    1    2    0    0  0.00000000000E+00  0.00000000000E+00  0.38125199328E+02  0.13068612657E+03  0.12500133141E+03 0.  0.
    9000005    1    3    3    0    0 -0.25985296371E+02  0.50483379040E+01 -0.40121162099E+02  0.48077323046E+02  0.10000000000E+01 0.  0.
    9000005    1    3    3    0    0  0.25985296371E+02 -0.50483379040E+01  0.78246361427E+02  0.82608803523E+02  0.10000000000E+01 0.  0.
<mgrwt>
<rscale>  0 0.12500133E+03</rscale>
<asrwt>0</asrwt>
<pdfrwt beam="2">  1        4 0.71200713E-02 0.12500133E+03</pdfrwt>
<pdfrwt beam="1">  1       -4 0.12985487E-01 0.12500133E+03</pdfrwt>
<totfact> 0.10329513E+04</totfact>
</mgrwt>
</event>
<event>
 5    1  0.3199195E-002  0.1249992E+03  0.7818608E-02  0.1235071E+00
          4   -1    0    0  501    0  0.00000000000E+00  0.00000000000E+00  0.86301287150E+02  0.86310631232E+02  0.12700000000E+01 0. -1.
         -4   -1    0    0    0  501 -0.00000000000E+00 -0.00000000000E+00 -0.45241653997E+02  0.45259475874E+02  0.12700000000E+01 0. -1.
         25    2    1    2    0    0  0.00000000000E+00  0.00000000000E+00  0.41059633152E+02  0.13157010711E+03  0.12499919843E+03 0.  0.
    9000005    1    3    3    0    0 -0.12741801249E+02 -0.30700264348E+02 -0.35170209112E+02  0.48402513768E+02  0.10000000000E+01 0.  0.
    9000005    1    3    3    0    0  0.12741801249E+02  0.30700264348E+02  0.76229842264E+02  0.83167593338E+02  0.10000000000E+01 0.  0.
<mgrwt>
<rscale>  0 0.12499920E+03</rscale>
<asrwt>0</asrwt>
<pdfrwt beam="1">  1        4 0.13279211E-01 0.12499920E+03</pdfrwt>
<pdfrwt beam="2">  1       -4 0.69623442E-02 0.12499920E+03</pdfrwt>
<totfact> 0.10311069E+04</totfact>
</mgrwt>
</event>
<event>
 5    1  0.3199195E-002  0.1250010E+03  0.7818608E-02  0.1235068E+00
          4   -1    0    0  501    0  0.00000000000E+00  0.00000000000E+00  0.64749749687E+01  0.65983483422E+01  0.12700000000E+01 0. -1.
         -4   -1    0    0    0  501 -0.00000000000E+00 -0.00000000000E+00 -0.59747614602E+03  0.59747749578E+03  0.12700000000E+01 0. -1.
         25    2    1    2    0    0  0.00000000000E+00  0.00000000000E+00 -0.59100117105E+03  0.60407584412E+03  0.12500096507E+03 0.  0.
    9000005    1    3    3    0    0  0.38724402784E+02  0.49021682866E+02 -0.28769998190E+03  0.29440615542E+03  0.10000000000E+01 0.  0.
    9000005    1    3    3    0    0 -0.38724402784E+02 -0.49021682866E+02 -0.30330118915E+03  0.30966968870E+03  0.10000000000E+01 0.  0.
<mgrwt>
<rscale>  0 0.12500097E+03</rscale>
<asrwt>0</asrwt>
<pdfrwt beam="1">  1        4 0.10057446E-02 0.12500097E+03</pdfrwt>
<pdfrwt beam="2">  1       -4 0.91928958E-01 0.12500097E+03</pdfrwt>
<totfact> 0.48610326E+03</totfact>
</mgrwt>
</event>
<event>
 5    1  0.3199195E-002  0.1249646E+03  0.7818608E-02  0.1235125E+00
         -4   -1    0    0    0  501 -0.00000000000E+00  0.00000000000E+00  0.29150486073E+02  0.29178138019E+02  0.12700000000E+01 0. -1.
          4   -1    0    0  501    0  0.00000000000E+00 -0.00000000000E+00 -0.13383287883E+03  0.13383890449E+03  0.12700000000E+01 0. -1.
         25    2    1    2    0    0  0.00000000000E+00  0.00000000000E+00 -0.10468239276E+03  0.16301704251E+03  0.12496460617E+03 0.  0.
    9000005    1    3    3    0    0 -0.53028360187E+02 -0.31923571393E+02 -0.41278495353E+02  0.74404540004E+02  0.10000000000E+01 0.  0.
    9000005    1    3    3    0    0  0.53028360187E+02  0.31923571393E+02 -0.63403897403E+02  0.88612502507E+02  0.10000000000E+01 0.  0.
<mgrwt>
<rscale>  0 0.12496461E+03</rscale>
<asrwt>0</asrwt>
<pdfrwt beam="2">  1        4 0.20592264E-01 0.12496461E+03</pdfrwt>
<pdfrwt beam="1">  1       -4 0.44872808E-02 0.12496461E+03</pdfrwt>
<totfact> 0.96841252E+03</totfact>
</mgrwt>
</event>
<event>
 5    1  0.3199195E-002  0.1250183E+03  0.7818608E-02  0.1235041E+00
          4   -1    0    0  501    0  0.00000000000E+00  0.00000000000E+00  0.15660940275E+03  0.15661455211E+03  0.12700000000E+01 0. -1.
         -4   -1    0    0    0  501 -0.00000000000E+00 -0.00000000000E+00 -0.24928187909E+02  0.24960517872E+02  0.12700000000E+01 0. -1.
         25    2    1    2    0    0  0.00000000000E+00  0.00000000000E+00  0.13168121485E+03  0.18157506998E+03  0.12501825344E+03 0.  0.
    9000005    1    3    3    0    0 -0.15944021034E+02  0.16324597050E+01  0.15358115113E+03  0.15441841443E+03  0.10000000000E+01 0.  0.
    9000005    1    3    3    0    0  0.15944021034E+02 -0.16324597050E+01 -0.21899936285E+02  0.27156655550E+02  0.10000000000E+01 0.  0.
<mgrwt>
<rscale>  0 0.12501825E+03</rscale>
<asrwt>0</asrwt>
<pdfrwt beam="1">  1        4 0.24096637E-01 0.12501825E+03</pdfrwt>
<pdfrwt beam="2">  1       -4 0.38379888E-02 0.12501825E+03</pdfrwt>
<totfact> 0.93296068E+03</totfact>
</mgrwt>
</event>
<event>
 5    1  0.3199195E-002  0.1249970E+03  0.7818608E-02  0.1235074E+00
          4   -1    0    0  501    0  0.00000000000E+00  0.00000000000E+00  0.18450566658E+03  0.18451003739E+03  0.12700000000E+01 0.  1.
         -4   -1    0    0    0  501 -0.00000000000E+00 -0.00000000000E+00 -0.21146749632E+02  0.21184851192E+02  0.12700000000E+01 0.  1.
         25    2    1    2    0    0  0.00000000000E+00  0.00000000000E+00  0.16335891695E+03  0.20569488859E+03  0.12499700574E+03 0.  0.
    9000005    1    3    3    0    0 -0.35942750036E+02 -0.23132240675E+02  0.15669567010E+03  0.16242387407E+03  0.10000000000E+01 0.  0.
    9000005    1    3    3    0    0  0.35942750036E+02  0.23132240675E+02  0.66632468426E+01  0.43271014516E+02  0.10000000000E+01 0.  0.
<mgrwt>
<rscale>  0 0.12499701E+03</rscale>
<asrwt>0</asrwt>
<pdfrwt beam="1">  1        4 0.28388756E-01 0.12499701E+03</pdfrwt>
<pdfrwt beam="2">  1       -4 0.32566130E-02 0.12499701E+03</pdfrwt>
<totfact> 0.89189795E+03</totfact>
</mgrwt>
</event>
<event>
 5    1  0.3199195E-002  0.1249980E+03  0.7818608E-02  0.1235072E+00
          4   -1    0    0  501    0  0.00000000000E+00  0.00000000000E+00  0.44854581155E+03  0.44854760947E+03  0.12700000000E+01 0. -1.
         -4   -1    0    0    0  501 -0.00000000000E+00 -0.00000000000E+00 -0.86602873613E+01  0.87529124970E+01  0.12700000000E+01 0. -1.
         25    2    1    2    0    0  0.00000000000E+00  0.00000000000E+00  0.43988552419E+03  0.45730052196E+03  0.12499797198E+03 0.  0.
    9000005    1    3    3    0    0 -0.29440913621E+02  0.54825411751E+02  0.19907666120E+03  0.20857878656E+03  0.10000000000E+01 0.  0.
    9000005    1    3    3    0    0  0.29440913621E+02 -0.54825411751E+02  0.24080886299E+03  0.24872173540E+03  0.10000000000E+01 0.  0.
<mgrwt>
<rscale>  0 0.12499797E+03</rscale>
<asrwt>0</asrwt>
<pdfrwt beam="1">  1        4 0.69014311E-01 0.12499797E+03</pdfrwt>
<pdfrwt beam="2">  1       -4 0.13396152E-02 0.12499797E+03</pdfrwt>
<totfact> 0.59339177E+03</totfact>
</mgrwt>
</event>
<event>
 4    1  0.3199195E-002  0.1250725E+03  0.7818608E-02  0.1234956E+00
          4   -1    0    0  501    0  0.00000000000E+00  0.00000000000E+00  0.33559585747E+03  0.33559826050E+03  0.12700000000E+01 0.  1.
         -4   -1    0    0    0  501 -0.00000000000E+00 -0.00000000000E+00 -0.11616188457E+02  0.11685406894E+02  0.12700000000E+01 0.  1.
    9000005    1    1    2    0    0  0.30523773118E+02  0.30146318312E+02  0.28829821530E+03  0.29147446231E+03  0.10000000000E+01 0.  0.
    9000005    1    1    2    0    0 -0.30523773118E+02 -0.30146318312E+02  0.35681453711E+02  0.55809205084E+02  0.10000000000E+01 0.  0.
<mgrwt>
<rscale>  0 0.12507246E+03</rscale>
<asrwt>0</asrwt>
<pdfrwt beam="1">  1        4 0.51635635E-01 0.12507246E+03</pdfrwt>
<pdfrwt beam="2">  1       -4 0.17926155E-02 0.12507246E+03</pdfrwt>
<totfact> 0.69912243E+03</totfact>
</mgrwt>
</event>
<event>
 5    1  0.3199195E-002  0.1250062E+03  0.7818608E-02  0.1235060E+00
         -4   -1    0    0    0  501 -0.00000000000E+00  0.00000000000E+00  0.27253495745E+02  0.27283070398E+02  0.12700000000E+01 0. -1.
          4   -1    0    0  501    0  0.00000000000E+00 -0.00000000000E+00 -0.14323421582E+03  0.14323984599E+03  0.12700000000E+01 0. -1.
         25    2    1    2    0    0  0.00000000000E+00  0.00000000000E+00 -0.11598072007E+03  0.17052291639E+03  0.12500615020E+03 0.  0.
    9000005    1    3    3    0    0 -0.22540785305E+02  0.17385956420E+02  0.17902523712E+02  0.33643109815E+02  0.10000000000E+01 0.  0.
    9000005    1    3    3    0    0  0.22540785305E+02 -0.17385956420E+02 -0.13388324378E+03  0.13687980658E+03  0.10000000000E+01 0.  0.
<mgrwt>
<rscale>  0 0.12500615E+03</rscale>
<asrwt>0</asrwt>
<pdfrwt beam="2">  1        4 0.22038741E-01 0.12500615E+03</pdfrwt>
<pdfrwt beam="1">  1       -4 0.41955536E-02 0.12500615E+03</pdfrwt>
<totfact> 0.95338101E+03</totfact>
</mgrwt>
</event>
<event>
 5    1  0.3199195E-002  0.1250000E+03  0.7818608E-02  0.1235069E+00
          4   -1    0    0  501    0  0.00000000000E+00  0.00000000000E+00  0.14293153118E+02  0.14349464313E+02  0.12700000000E+01 0.  1.
         -4   -1    0    0    0  501 -0.00000000000E+00 -0.00000000000E+00 -0.27270026014E+03  0.27270321740E+03  0.12700000000E+01 0.  1.
         25    2    1    2    0    0  0.00000000000E+00  0.00000000000E+00 -0.25840710702E+03  0.28705268172E+03  0.12500003648E+03 0.  0.
    9000005    1    3    3    0    0  0.17462832785E+02 -0.44417424665E+02 -0.36563703704E+02  0.60131211291E+02  0.10000000000E+01 0.  0.
    9000005    1    3    3    0    0 -0.17462832785E+02  0.44417424665E+02 -0.22184340332E+03  0.22692147042E+03  0.10000000000E+01 0.  0.
<mgrwt>
<rscale>  0 0.12500004E+03</rscale>
<asrwt>0</asrwt>
<pdfrwt beam="1">  1        4 0.22035060E-02 0.12500004E+03</pdfrwt>
<pdfrwt beam="2">  1       -4 0.41958441E-01 0.12500004E+03</pdfrwt>
<totfact> 0.77252108E+03</totfact>
</mgrwt>
</event>
<event>
 5    1  0.3199195E-002  0.1249861E+03  0.7818608E-02  0.1235091E+00
          4   -1    0    0  501    0  0.00000000000E+00  0.00000000000E+00  0.39721348284E+02  0.39741645782E+02  0.12700000000E+01 0. -1.
         -4   -1    0    0    0  501 -0.00000000000E+00 -0.00000000000E+00 -0.98269934511E+02  0.98278140646E+02  0.12700000000E+01 0. -1.
         25    2    1    2    0    0  0.00000000000E+00  0.00000000000E+00 -0.58548586227E+02  0.13801978643E+03  0.12498609721E+03 0.  0.
    9000005    1    3    3    0    0  0.51972699305E+02 -0.34418879895E+02 -0.34031727610E+02  0.71028017362E+02  0.10000000000E+01 0.  0.
    9000005    1    3    3    0    0 -0.51972699305E+02  0.34418879895E+02 -0.24516858617E+02  0.66991769067E+02  0.10000000000E+01 0.  0.
<mgrwt>
<rscale>  0 0.12498610E+03</rscale>
<asrwt>0</asrwt>
<pdfrwt beam="1">  1        4 0.61131693E-02 0.12498610E+03</pdfrwt>
<pdfrwt beam="2">  1       -4 0.15120644E-01 0.12498610E+03</pdfrwt>
<totfact> 0.10177981E+04</totfact>
</mgrwt>
</event>
<event>
 5    1  0.3199195E-002  0.1250005E+03  0.7818608E-02  0.1235069E+00
          4   -1    0    0  501    0  0.00000000000E+00  0.00000000000E+00  0.65584793006E+02  0.65597088149E+02  0.12700000000E+01 0.  1.
         -4   -1    0    0    0  501 -0.00000000000E+00 -0.00000000000E+00 -0.59536113888E+02  0.59549657907E+02  0.12700000000E+01 0.  1.
         25    2    1    2    0    0  0.00000000000E+00  0.00000000000E+00  0.60486791186E+01  0.12514674606E+03  0.12500048612E+03 0.  0.
    9000005    1    3    3    0    0 -0.36148191524E+01  0.62032196069E+02 -0.36332619570E+01  0.62251593225E+02  0.10000000000E+01 0.  0.
    9000005    1    3    3    0    0  0.36148191524E+01 -0.62032196069E+02  0.96819410756E+01  0.62895152831E+02  0.10000000000E+01 0.  0.
<mgrwt>
<rscale>  0 0.12500049E+03</rscale>
<asrwt>0</asrwt>
<pdfrwt beam="1">  1        4 0.10091956E-01 0.12500049E+03</pdfrwt>
<pdfrwt beam="2">  1       -4 0.91613898E-02 0.12500049E+03</pdfrwt>
<totfact> 0.10449561E+04</totfact>
</mgrwt>
</event>
