<event>
 5    1  0.3269032E-002  0.1250050E+03  0.7818608E-02  0.1235061E+00
         -4   -1    0    0    0  501 -0.00000000000E+00  0.00000000000E+00  0.30138156300E+03  0.30138423884E+03  0.12700000000E+01 0. -1.
          4   -1    0    0  501    0  0.00000000000E+00 -0.00000000000E+00 -0.12928334466E+02  0.12990563192E+02  0.12700000000E+01 0. -1.
         25    2    1    2    0    0  0.00000000000E+00  0.00000000000E+00  0.28845322854E+03  0.31437480203E+03  0.12500500428E+03 0.  0.
    9000005    1    3    3    0    0 -0.34261199106E+02 -0.51657995351E+02  0.12423602041E+03  0.13884511880E+03  0.10000000000E+01 0.  0.
    9000005    1    3    3    0    0  0.34261199106E+02  0.51657995351E+02  0.16421720813E+03  0.17552968323E+03  0.10000000000E+01 0.  0.
<mgrwt>
<rscale>  0 0.12500500E+03</rscale>
<asrwt>0</asrwt>
<pdfrwt beam="2">  1        4 0.19939674E-02 0.12500500E+03</pdfrwt>
<pdfrwt beam="1">  1       -4 0.46371383E-01 0.12500500E+03</pdfrwt>
<totfact> 0.73822010E+03</totfact>
</mgrwt>
</event>
<event>
 5    1  0.3269032E-002  0.1250024E+03  0.7818608E-02  0.1235066E+00
         -4   -1    0    0    0  501 -0.00000000000E+00  0.00000000000E+00  0.33551239368E+03  0.33551479731E+03  0.12700000000E+01 0.  1.
          4   -1    0    0  501    0  0.00000000000E+00 -0.00000000000E+00 -0.11606005715E+02  0.11675284521E+02  0.12700000000E+01 0.  1.
         25    2    1    2    0    0  0.00000000000E+00  0.00000000000E+00  0.32390638797E+03  0.34719008183E+03  0.12500241900E+03 0.  0.
    9000005    1    3    3    0    0  0.41068710767E+02  0.22341594311E+02  0.46776515707E+02  0.66142484547E+02  0.10000000000E+01 0.  0.
    9000005    1    3    3    0    0 -0.41068710767E+02 -0.22341594311E+02  0.27712987226E+03  0.28104759729E+03  0.10000000000E+01 0.  0.
<mgrwt>
<rscale>  0 0.12500242E+03</rscale>
<asrwt>0</asrwt>
<pdfrwt beam="2">  1        4 0.17910535E-02 0.12500242E+03</pdfrwt>
<pdfrwt beam="1">  1       -4 0.51622803E-01 0.12500242E+03</pdfrwt>
<totfact> 0.70031042E+03</totfact>
</mgrwt>
</event>
<event>
 5    1  0.3269032E-002  0.1249970E+03  0.7818608E-02  0.1235074E+00
         -4   -1    0    0    0  501 -0.00000000000E+00  0.00000000000E+00  0.16911100799E+03  0.16911577668E+03  0.12700000000E+01 0. -1.
          4   -1    0    0  501    0  0.00000000000E+00 -0.00000000000E+00 -0.23075064343E+02  0.23109986898E+02  0.12700000000E+01 0. -1.
         25    2    1    2    0    0  0.00000000000E+00  0.00000000000E+00  0.14603594365E+03  0.19222576358E+03  0.12499698935E+03 0.  0.
    9000005    1    3    3    0    0 -0.22892753965E+02 -0.38689469843E+01  0.16223958250E+03  0.16389548213E+03  0.10000000000E+01 0.  0.
    9000005    1    3    3    0    0  0.22892753965E+02  0.38689469843E+01 -0.16203638851E+02  0.28330281447E+02  0.10000000000E+01 0.  0.
<mgrwt>
<rscale>  0 0.12499699E+03</rscale>
<asrwt>0</asrwt>
<pdfrwt beam="2">  1        4 0.35530632E-02 0.12499699E+03</pdfrwt>
<pdfrwt beam="1">  1       -4 0.26020131E-01 0.12499699E+03</pdfrwt>
<totfact> 0.91467642E+03</totfact>
</mgrwt>
</event>
<event>
 5    1  0.3269032E-002  0.1250029E+03  0.7818608E-02  0.1235065E+00
         -4   -1    0    0    0  501 -0.00000000000E+00  0.00000000000E+00  0.11427471789E+04  0.11427478846E+04  0.12700000000E+01 0.  1.
          4   -1    0    0  501    0  0.00000000000E+00 -0.00000000000E+00 -0.32997707780E+01  0.35357300784E+01  0.12700000000E+01 0.  1.
         25    2    1    2    0    0  0.00000000000E+00  0.00000000000E+00  0.11394474081E+04  0.11462836147E+04  0.12500291769E+03 0.  0.
    9000005    1    3    3    0    0 -0.37351752007E+02  0.80800136353E+01  0.10231541603E+04  0.10238680949E+04  0.10000000000E+01 0.  0.
    9000005    1    3    3    0    0  0.37351752007E+02 -0.80800136353E+01  0.11629324781E+03  0.12241551979E+03  0.10000000000E+01 0.  0.
<mgrwt>
<rscale>  0 0.12500292E+03</rscale>
<asrwt>0</asrwt>
<pdfrwt beam="2">  1        4 0.52586161E-03 0.12500292E+03</pdfrwt>
<pdfrwt beam="1">  1       -4 0.17582561E+00 0.12500292E+03</pdfrwt>
<totfact> 0.26161881E+03</totfact>
</mgrwt>
</event>
<event>
 5    1  0.3269032E-002  0.1249924E+03  0.7818608E-02  0.1235081E+00
          4   -1    0    0  501    0  0.00000000000E+00  0.00000000000E+00  0.41120662848E+02  0.41140269968E+02  0.12700000000E+01 0.  1.
         -4   -1    0    0    0  501 -0.00000000000E+00 -0.00000000000E+00 -0.94936841749E+02  0.94945335964E+02  0.12700000000E+01 0.  1.
         25    2    1    2    0    0  0.00000000000E+00  0.00000000000E+00 -0.53816178901E+02  0.13608560593E+03  0.12499244389E+03 0.  0.
    9000005    1    3    3    0    0 -0.25946837832E+02 -0.53343690772E+02 -0.55178094732E+01  0.59583839756E+02  0.10000000000E+01 0.  0.
    9000005    1    3    3    0    0  0.25946837832E+02  0.53343690772E+02 -0.48298369428E+02  0.76501766176E+02  0.10000000000E+01 0.  0.
<mgrwt>
<rscale>  0 0.12499244E+03</rscale>
<asrwt>0</asrwt>
<pdfrwt beam="1">  1        4 0.63284175E-02 0.12499244E+03</pdfrwt>
<pdfrwt beam="2">  1       -4 0.14607830E-01 0.12499244E+03</pdfrwt>
<totfact> 0.10216980E+04</totfact>
</mgrwt>
</event>
<event>
 5    1  0.3269032E-002  0.1250013E+03  0.7818608E-02  0.1235067E+00
          4   -1    0    0  501    0  0.00000000000E+00  0.00000000000E+00  0.19098766548E+03  0.19099188796E+03  0.12700000000E+01 0.  1.
         -4   -1    0    0    0  501 -0.00000000000E+00 -0.00000000000E+00 -0.20429164047E+02  0.20468601409E+02  0.12700000000E+01 0.  1.
         25    2    1    2    0    0  0.00000000000E+00  0.00000000000E+00  0.17055850143E+03  0.21146048937E+03  0.12500134460E+03 0.  0.
    9000005    1    3    3    0    0 -0.37900522607E+02 -0.14312464337E+02  0.16577193008E+03  0.17065353512E+03  0.10000000000E+01 0.  0.
    9000005    1    3    3    0    0  0.37900522607E+02  0.14312464337E+02  0.47865713586E+01  0.40806954244E+02  0.10000000000E+01 0.  0.
<mgrwt>
<rscale>  0 0.12500134E+03</rscale>
<asrwt>0</asrwt>
<pdfrwt beam="1">  1        4 0.29386078E-01 0.12500134E+03</pdfrwt>
<pdfrwt beam="2">  1       -4 0.31463066E-02 0.12500134E+03</pdfrwt>
<totfact> 0.88235264E+03</totfact>
</mgrwt>
</event>
<event>
 5    1  0.3269032E-002  0.1250005E+03  0.7818608E-02  0.1235068E+00
          4   -1    0    0  501    0  0.00000000000E+00  0.00000000000E+00  0.32223257698E+03  0.32223507967E+03  0.12700000000E+01 0.  1.
         -4   -1    0    0    0  501 -0.00000000000E+00 -0.00000000000E+00 -0.12086735734E+02  0.12153274485E+02  0.12700000000E+01 0.  1.
         25    2    1    2    0    0  0.00000000000E+00  0.00000000000E+00  0.31014584125E+03  0.33438835415E+03  0.12500051420E+03 0.  0.
    9000005    1    3    3    0    0 -0.29246027733E+02  0.51177541432E+02  0.99548649888E+02  0.11569530924E+03  0.10000000000E+01 0.  0.
    9000005    1    3    3    0    0  0.29246027733E+02 -0.51177541432E+02  0.21059719136E+03  0.21869304491E+03  0.10000000000E+01 0.  0.
<mgrwt>
<rscale>  0 0.12500051E+03</rscale>
<asrwt>0</asrwt>
<pdfrwt beam="1">  1        4 0.49579551E-01 0.12500051E+03</pdfrwt>
<pdfrwt beam="2">  1       -4 0.18648088E-02 0.12500051E+03</pdfrwt>
<totfact> 0.71476065E+03</totfact>
</mgrwt>
</event>
<event>
 5    1  0.3269032E-002  0.1249986E+03  0.7818608E-02  0.1235072E+00
          4   -1    0    0  501    0  0.00000000000E+00  0.00000000000E+00  0.73155607968E+03  0.73155718205E+03  0.12700000000E+01 0.  1.
         -4   -1    0    0    0  501 -0.00000000000E+00 -0.00000000000E+00 -0.52628832043E+01  0.54139486165E+01  0.12700000000E+01 0.  1.
         25    2    1    2    0    0  0.00000000000E+00  0.00000000000E+00  0.72629319647E+03  0.73697113067E+03  0.12499856078E+03 0.  0.
    9000005    1    3    3    0    0 -0.30501466762E+02 -0.37384571491E+01  0.42332634137E+02  0.52319857124E+02  0.10000000000E+01 0.  0.
    9000005    1    3    3    0    0  0.30501466762E+02  0.37384571491E+01  0.68396056233E+03  0.68465127354E+03  0.10000000000E+01 0.  0.
<mgrwt>
<rscale>  0 0.12499856E+03</rscale>
<asrwt>0</asrwt>
<pdfrwt beam="1">  1        4 0.11255872E+00 0.12499856E+03</pdfrwt>
<pdfrwt beam="2">  1       -4 0.82138011E-03 0.12499856E+03</pdfrwt>
<totfact> 0.41206516E+03</totfact>
</mgrwt>
</event>
<event>
 5    1  0.3269032E-002  0.1249882E+03  0.7818608E-02  0.1235088E+00
         -4   -1    0    0    0  501 -0.00000000000E+00  0.00000000000E+00  0.66506401319E+02  0.66518526115E+02  0.12700000000E+01 0. -1.
          4   -1    0    0  501    0  0.00000000000E+00 -0.00000000000E+00 -0.58699509239E+02  0.58713246248E+02  0.12700000000E+01 0. -1.
         25    2    1    2    0    0  0.00000000000E+00  0.00000000000E+00  0.78068920801E+01  0.12523177236E+03  0.12498819642E+03 0.  0.
    9000005    1    3    3    0    0 -0.60333762429E+02  0.16257946582E+02  0.37340148879E+01  0.62605323920E+02  0.10000000000E+01 0.  0.
    9000005    1    3    3    0    0  0.60333762429E+02 -0.16257946582E+02  0.40728771922E+01  0.62626448443E+02  0.10000000000E+01 0.  0.
<mgrwt>
<rscale>  0 0.12498820E+03</rscale>
<asrwt>0</asrwt>
<pdfrwt beam="2">  1        4 0.90326831E-02 0.12498820E+03</pdfrwt>
<pdfrwt beam="1">  1       -4 0.10233743E-01 0.12498820E+03</pdfrwt>
<totfact> 0.10450618E+04</totfact>
</mgrwt>
</event>
<event>
 5    1  0.3269032E-002  0.1250028E+03  0.7818608E-02  0.1235065E+00
         -4   -1    0    0    0  501 -0.00000000000E+00  0.00000000000E+00  0.62311598630E+02  0.62324539499E+02  0.12700000000E+01 0. -1.
          4   -1    0    0  501    0  0.00000000000E+00 -0.00000000000E+00 -0.62665883057E+02  0.62678750780E+02  0.12700000000E+01 0. -1.
         25    2    1    2    0    0  0.00000000000E+00  0.00000000000E+00 -0.35428442765E+00  0.12500329028E+03  0.12500278822E+03 0.  0.
    9000005    1    3    3    0    0  0.73267210800E+01 -0.29587009235E+02 -0.54733317088E+02  0.62656268295E+02  0.10000000000E+01 0.  0.
    9000005    1    3    3    0    0 -0.73267210800E+01  0.29587009235E+02  0.54379032660E+02  0.62347021984E+02  0.10000000000E+01 0.  0.
<mgrwt>
<rscale>  0 0.12500279E+03</rscale>
<asrwt>0</asrwt>
<pdfrwt beam="2">  1        4 0.96428904E-02 0.12500279E+03</pdfrwt>
<pdfrwt beam="1">  1       -4 0.95883850E-02 0.12500279E+03</pdfrwt>
<totfact> 0.10452132E+04</totfact>
</mgrwt>
</event>
<event>
 5    1  0.3269032E-002  0.1250019E+03  0.7818608E-02  0.1235066E+00
          4   -1    0    0  501    0  0.00000000000E+00  0.00000000000E+00  0.10578520781E+03  0.10579283100E+03  0.12700000000E+01 0.  1.
         -4   -1    0    0    0  501 -0.00000000000E+00 -0.00000000000E+00 -0.36907508960E+02  0.36929353063E+02  0.12700000000E+01 0.  1.
         25    2    1    2    0    0  0.00000000000E+00  0.00000000000E+00  0.68877698850E+02  0.14272218406E+03  0.12500193769E+03 0.  0.
    9000005    1    3    3    0    0  0.57081591991E+02  0.24297365892E+02  0.43036306041E+02  0.75510222958E+02  0.10000000000E+01 0.  0.
    9000005    1    3    3    0    0 -0.57081591991E+02 -0.24297365892E+02  0.25841392810E+02  0.67211961107E+02  0.10000000000E+01 0.  0.
<mgrwt>
<rscale>  0 0.12500194E+03</rscale>
<asrwt>0</asrwt>
<pdfrwt beam="1">  1        4 0.16276914E-01 0.12500194E+03</pdfrwt>
<pdfrwt beam="2">  1       -4 0.56803451E-02 0.12500194E+03</pdfrwt>
<totfact> 0.10077036E+04</totfact>
</mgrwt>
</event>
<event>
 5    1  0.3269032E-002  0.1250045E+03  0.7818608E-02  0.1235062E+00
         -4   -1    0    0    0  501 -0.00000000000E+00  0.00000000000E+00  0.43600130992E+03  0.43600315957E+03  0.12700000000E+01 0. -1.
          4   -1    0    0  501    0  0.00000000000E+00 -0.00000000000E+00 -0.89130195869E+01  0.90030449380E+01  0.12700000000E+01 0. -1.
         25    2    1    2    0    0  0.00000000000E+00  0.00000000000E+00  0.42708829033E+03  0.44500620451E+03  0.12500445715E+03 0.  0.
    9000005    1    3    3    0    0  0.45714847863E+02 -0.18170988378E+02  0.76337111310E+02  0.90820629248E+02  0.10000000000E+01 0.  0.
    9000005    1    3    3    0    0 -0.45714847863E+02  0.18170988378E+02  0.35075117902E+03  0.35418557526E+03  0.10000000000E+01 0.  0.
<mgrwt>
<rscale>  0 0.12500446E+03</rscale>
<asrwt>0</asrwt>
<pdfrwt beam="2">  1        4 0.13783010E-02 0.12500446E+03</pdfrwt>
<pdfrwt beam="1">  1       -4 0.67084194E-01 0.12500446E+03</pdfrwt>
<totfact> 0.60392928E+03</totfact>
</mgrwt>
</event>
<event>
 5    1  0.3269032E-002  0.1250010E+03  0.7818608E-02  0.1235068E+00
          4   -1    0    0  501    0  0.00000000000E+00  0.00000000000E+00  0.21253636210E+02  0.21291546495E+02  0.12700000000E+01 0.  1.
         -4   -1    0    0    0  501 -0.00000000000E+00 -0.00000000000E+00 -0.18359103277E+03  0.18359542536E+03  0.12700000000E+01 0.  1.
         25    2    1    2    0    0  0.00000000000E+00  0.00000000000E+00 -0.16233739656E+03  0.20488697185E+03  0.12500096365E+03 0.  0.
    9000005    1    3    3    0    0 -0.59008617616E+02  0.18393590867E+02 -0.66059846247E+02  0.90472340658E+02  0.10000000000E+01 0.  0.
    9000005    1    3    3    0    0  0.59008617616E+02 -0.18393590867E+02 -0.96277550312E+02  0.11441463120E+03  0.10000000000E+01 0.  0.
<mgrwt>
<rscale>  0 0.12500096E+03</rscale>
<asrwt>0</asrwt>
<pdfrwt beam="1">  1        4 0.32730444E-02 0.12500096E+03</pdfrwt>
<pdfrwt beam="2">  1       -4 0.28248027E-01 0.12500096E+03</pdfrwt>
<totfact> 0.89315849E+03</totfact>
</mgrwt>
</event>
<event>
 5    1  0.3269032E-002  0.1249950E+03  0.7818608E-02  0.1235077E+00
         -4   -1    0    0    0  501 -0.00000000000E+00  0.00000000000E+00  0.23336760153E+03  0.23337105721E+03  0.12700000000E+01 0.  1.
          4   -1    0    0  501    0  0.00000000000E+00 -0.00000000000E+00 -0.16709609880E+02  0.16757803028E+02  0.12700000000E+01 0.  1.
         25    2    1    2    0    0  0.00000000000E+00  0.00000000000E+00  0.21665799165E+03  0.25012886024E+03  0.12499504542E+03 0.  0.
    9000005    1    3    3    0    0  0.56996590977E+02  0.21303621782E+02  0.13680421462E+03  0.14972925173E+03  0.10000000000E+01 0.  0.
    9000005    1    3    3    0    0 -0.56996590977E+02 -0.21303621782E+02  0.79853777026E+02  0.10039960851E+03  0.10000000000E+01 0.  0.
<mgrwt>
<rscale>  0 0.12499505E+03</rscale>
<asrwt>0</asrwt>
<pdfrwt beam="2">  1        4 0.25746824E-02 0.12499505E+03</pdfrwt>
<pdfrwt beam="1">  1       -4 0.35906679E-01 0.12499505E+03</pdfrwt>
<totfact> 0.82320693E+03</totfact>
</mgrwt>
</event>
<event>
 5    1  0.3269032E-002  0.1250015E+03  0.7818608E-02  0.1235067E+00
          4   -1    0    0  501    0  0.00000000000E+00  0.00000000000E+00  0.31326106382E+03  0.31326363818E+03  0.12700000000E+01 0.  1.
         -4   -1    0    0    0  501 -0.00000000000E+00 -0.00000000000E+00 -0.12434958135E+02  0.12499643347E+02  0.12700000000E+01 0.  1.
         25    2    1    2    0    0  0.00000000000E+00  0.00000000000E+00  0.30082610568E+03  0.32576328152E+03  0.12500147891E+03 0.  0.
    9000005    1    3    3    0    0  0.57829707877E+02 -0.85557081645E+01  0.20797530533E+03  0.21603750341E+03  0.10000000000E+01 0.  0.
    9000005    1    3    3    0    0 -0.57829707877E+02  0.85557081645E+01  0.92850800357E+02  0.10972577811E+03  0.10000000000E+01 0.  0.
<mgrwt>
<rscale>  0 0.12500148E+03</rscale>
<asrwt>0</asrwt>
<pdfrwt beam="1">  1        4 0.48199178E-01 0.12500148E+03</pdfrwt>
<pdfrwt beam="2">  1       -4 0.19182445E-02 0.12500148E+03</pdfrwt>
<totfact> 0.72473489E+03</totfact>
</mgrwt>
</event>
<event>
 5    1  0.3269032E-002  0.1249952E+03  0.7818608E-02  0.1235077E+00
          4   -1    0    0  501    0  0.00000000000E+00  0.00000000000E+00  0.11182826239E+02  0.11254710245E+02  0.12700000000E+01 0. -1.
         -4   -1    0    0    0  501 -0.00000000000E+00 -0.00000000000E+00 -0.34808895857E+03  0.34809127535E+03  0.12700000000E+01 0. -1.
         25    2    1    2    0    0  0.00000000000E+00  0.00000000000E+00 -0.33690613233E+03  0.35934598560E+03  0.12499518136E+03 0.  0.
    9000005    1    3    3    0    0 -0.29325764667E+02 -0.49368488682E+02 -0.23932338594E+03  0.24611771818E+03  0.10000000000E+01 0.  0.
    9000005    1    3    3    0    0  0.29325764667E+02  0.49368488682E+02 -0.97582746394E+02  0.11322826741E+03  0.10000000000E+01 0.  0.
<mgrwt>
<rscale>  0 0.12499518E+03</rscale>
<asrwt>0</asrwt>
<pdfrwt beam="1">  1        4 0.17261428E-02 0.12499518E+03</pdfrwt>
<pdfrwt beam="2">  1       -4 0.53557847E-01 0.12499518E+03</pdfrwt>
<totfact> 0.68715802E+03</totfact>
</mgrwt>
</event>
<event>
 5    1  0.3269032E-002  0.1250005E+03  0.7818608E-02  0.1235068E+00
         -4   -1    0    0    0  501 -0.00000000000E+00  0.00000000000E+00  0.29265939965E+02  0.29293482928E+02  0.12700000000E+01 0. -1.
          4   -1    0    0  501    0  0.00000000000E+00 -0.00000000000E+00 -0.13338202154E+03  0.13338806758E+03  0.12700000000E+01 0. -1.
         25    2    1    2    0    0  0.00000000000E+00  0.00000000000E+00 -0.10411608158E+03  0.16268155050E+03  0.12500051372E+03 0.  0.
    9000005    1    3    3    0    0 -0.87051941320E+01 -0.60827885739E+02 -0.37249539371E+02  0.71863344424E+02  0.10000000000E+01 0.  0.
    9000005    1    3    3    0    0  0.87051941320E+01  0.60827885739E+02 -0.66866542209E+02  0.90818206079E+02  0.10000000000E+01 0.  0.
<mgrwt>
<rscale>  0 0.12500051E+03</rscale>
<asrwt>0</asrwt>
<pdfrwt beam="2">  1        4 0.20522894E-01 0.12500051E+03</pdfrwt>
<pdfrwt beam="1">  1       -4 0.45050362E-02 0.12500051E+03</pdfrwt>
<totfact> 0.96827163E+03</totfact>
</mgrwt>
</event>
<event>
 5    1  0.3269032E-002  0.1250013E+03  0.7818608E-02  0.1235067E+00
         -4   -1    0    0    0  501 -0.00000000000E+00  0.00000000000E+00  0.28949019946E+02  0.28976864147E+02  0.12700000000E+01 0.  1.
          4   -1    0    0  501    0  0.00000000000E+00 -0.00000000000E+00 -0.13484262140E+03  0.13484860194E+03  0.12700000000E+01 0.  1.
         25    2    1    2    0    0  0.00000000000E+00  0.00000000000E+00 -0.10589360146E+03  0.16382546609E+03  0.12500131404E+03 0.  0.
    9000005    1    3    3    0    0  0.62640109030E+01 -0.61257003212E+02 -0.38973560563E+02  0.72880701821E+02  0.10000000000E+01 0.  0.
    9000005    1    3    3    0    0 -0.62640109030E+01  0.61257003212E+02 -0.66920040894E+02  0.90944764271E+02  0.10000000000E+01 0.  0.
<mgrwt>
<rscale>  0 0.12500131E+03</rscale>
<asrwt>0</asrwt>
<pdfrwt beam="2">  1        4 0.20747620E-01 0.12500131E+03</pdfrwt>
<pdfrwt beam="1">  1       -4 0.44562974E-02 0.12500131E+03</pdfrwt>
<totfact> 0.96607442E+03</totfact>
</mgrwt>
</event>
<event>
 5    1  0.3269032E-002  0.1249991E+03  0.7818608E-02  0.1235071E+00
          4   -1    0    0  501    0  0.00000000000E+00  0.00000000000E+00  0.55485093081E+02  0.55499625712E+02  0.12700000000E+01 0. -1.
         -4   -1    0    0    0  501 -0.00000000000E+00 -0.00000000000E+00 -0.70371264162E+02  0.70382723162E+02  0.12700000000E+01 0. -1.
         25    2    1    2    0    0  0.00000000000E+00  0.00000000000E+00 -0.14886171080E+02  0.12588234887E+03  0.12499907067E+03 0.  0.
    9000005    1    3    3    0    0  0.56449097235E+02 -0.24027596716E+02 -0.19416842486E+02  0.64357126681E+02  0.10000000000E+01 0.  0.
    9000005    1    3    3    0    0 -0.56449097235E+02  0.24027596716E+02  0.45306714059E+01  0.61525222193E+02  0.10000000000E+01 0.  0.
<mgrwt>
<rscale>  0 0.12499907E+03</rscale>
<asrwt>0</asrwt>
<pdfrwt beam="1">  1        4 0.85381675E-02 0.12499907E+03</pdfrwt>
<pdfrwt beam="2">  1       -4 0.10828348E-01 0.12499907E+03</pdfrwt>
<totfact> 0.10433756E+04</totfact>
</mgrwt>
</event>
<event>
 5    1  0.3269032E-002  0.1249994E+03  0.7818608E-02  0.1235070E+00
         -4   -1    0    0    0  501 -0.00000000000E+00  0.00000000000E+00  0.12058545569E+03  0.12059214330E+03  0.12700000000E+01 0.  1.
          4   -1    0    0  501    0  0.00000000000E+00 -0.00000000000E+00 -0.32373702332E+02  0.32398603407E+02  0.12700000000E+01 0.  1.
         25    2    1    2    0    0  0.00000000000E+00  0.00000000000E+00  0.88211753360E+02  0.15299074670E+03  0.12499942058E+03 0.  0.
    9000005    1    3    3    0    0 -0.20649989915E+02  0.51100871000E+02  0.80571378639E+01  0.55710309379E+02  0.10000000000E+01 0.  0.
    9000005    1    3    3    0    0  0.20649989915E+02 -0.51100871000E+02  0.80154615496E+02  0.97280437324E+02  0.10000000000E+01 0.  0.
<mgrwt>
<rscale>  0 0.12499942E+03</rscale>
<asrwt>0</asrwt>
<pdfrwt beam="2">  1        4 0.49829995E-02 0.12499942E+03</pdfrwt>
<pdfrwt beam="1">  1       -4 0.18554038E-01 0.12499942E+03</pdfrwt>
<totfact> 0.98712130E+03</totfact>
</mgrwt>
</event>
<event>
 5    1  0.3269032E-002  0.1249965E+03  0.7818608E-02  0.1235075E+00
          4   -1    0    0  501    0  0.00000000000E+00  0.00000000000E+00  0.24988888997E+02  0.25021140528E+02  0.12700000000E+01 0. -1.
         -4   -1    0    0    0  501 -0.00000000000E+00 -0.00000000000E+00 -0.15617519190E+03  0.15618035556E+03  0.12700000000E+01 0. -1.
         25    2    1    2    0    0  0.00000000000E+00  0.00000000000E+00 -0.13118630290E+03  0.18120149609E+03  0.12499654442E+03 0.  0.
    9000005    1    3    3    0    0  0.10679456087E+02  0.45484082318E+02 -0.12575251490E+03  0.13415493853E+03  0.10000000000E+01 0.  0.
    9000005    1    3    3    0    0 -0.10679456087E+02 -0.45484082318E+02 -0.54337879952E+01  0.47046557564E+02  0.10000000000E+01 0.  0.
<mgrwt>
<rscale>  0 0.12499654E+03</rscale>
<asrwt>0</asrwt>
<pdfrwt beam="1">  1        4 0.38473226E-02 0.12499654E+03</pdfrwt>
<pdfrwt beam="2">  1       -4 0.24029830E-01 0.12499654E+03</pdfrwt>
<totfact> 0.93408412E+03</totfact>
</mgrwt>
</event>
<event>
 5    1  0.3269032E-002  0.1249947E+03  0.7818608E-02  0.1235078E+00
         -4   -1    0    0    0  501 -0.00000000000E+00  0.00000000000E+00  0.68632103846E+03  0.68632221349E+03  0.12700000000E+01 0.  1.
          4   -1    0    0  501    0  0.00000000000E+00 -0.00000000000E+00 -0.56190478621E+01  0.57607810995E+01  0.12700000000E+01 0.  1.
         25    2    1    2    0    0  0.00000000000E+00  0.00000000000E+00  0.68070199059E+03  0.69208299459E+03  0.12499468548E+03 0.  0.
    9000005    1    3    3    0    0  0.47233477000E+01  0.61500421035E+02  0.39580465226E+03  0.40058324298E+03  0.10000000000E+01 0.  0.
    9000005    1    3    3    0    0 -0.47233477000E+01 -0.61500421035E+02  0.28489733833E+03  0.29149975161E+03  0.10000000000E+01 0.  0.
<mgrwt>
<rscale>  0 0.12499469E+03</rscale>
<asrwt>0</asrwt>
<pdfrwt beam="2">  1        4 0.87546149E-03 0.12499469E+03</pdfrwt>
<pdfrwt beam="1">  1       -4 0.10559889E+00 0.12499469E+03</pdfrwt>
<totfact> 0.43512969E+03</totfact>
</mgrwt>
</event>
<event>
 5    1  0.3269032E-002  0.1250023E+03  0.7818608E-02  0.1235066E+00
         -4   -1    0    0    0  501 -0.00000000000E+00  0.00000000000E+00  0.14980103931E+02  0.15033842282E+02  0.12700000000E+01 0.  1.
          4   -1    0    0  501    0  0.00000000000E+00 -0.00000000000E+00 -0.26025002737E+03  0.26025312610E+03  0.12700000000E+01 0.  1.
         25    2    1    2    0    0  0.00000000000E+00  0.00000000000E+00 -0.24526992344E+03  0.27528696838E+03  0.12500231845E+03 0.  0.
    9000005    1    3    3    0    0 -0.30305922958E+02 -0.43314453024E+02 -0.19603331587E+03  0.20303854742E+03  0.10000000000E+01 0.  0.
    9000005    1    3    3    0    0  0.30305922958E+02  0.43314453024E+02 -0.49236607569E+02  0.72248420965E+02  0.10000000000E+01 0.  0.
<mgrwt>
<rscale>  0 0.12500232E+03</rscale>
<asrwt>0</asrwt>
<pdfrwt beam="2">  1        4 0.40042835E-01 0.12500232E+03</pdfrwt>
<pdfrwt beam="1">  1       -4 0.23090036E-02 0.12500232E+03</pdfrwt>
<totfact> 0.78803136E+03</totfact>
</mgrwt>
</event>
<event>
 5    1  0.3269032E-002  0.1250032E+03  0.7818608E-02  0.1235064E+00
         -4   -1    0    0    0  501 -0.00000000000E+00  0.00000000000E+00  0.20411803980E+02  0.20451274819E+02  0.12700000000E+01 0.  1.
          4   -1    0    0  501    0  0.00000000000E+00 -0.00000000000E+00 -0.19115536395E+03  0.19115958272E+03  0.12700000000E+01 0.  1.
         25    2    1    2    0    0  0.00000000000E+00  0.00000000000E+00 -0.17074355997E+03  0.21161085754E+03  0.12500316699E+03 0.  0.
    9000005    1    3    3    0    0 -0.44298078792E+01  0.62112272585E+02 -0.76431650583E+02  0.98591859778E+02  0.10000000000E+01 0.  0.
    9000005    1    3    3    0    0  0.44298078792E+01 -0.62112272585E+02 -0.94311909385E+02  0.11301899776E+03  0.10000000000E+01 0.  0.
<mgrwt>
<rscale>  0 0.12500317E+03</rscale>
<asrwt>0</asrwt>
<pdfrwt beam="2">  1        4 0.29411877E-01 0.12500317E+03</pdfrwt>
<pdfrwt beam="1">  1       -4 0.31436384E-02 0.12500317E+03</pdfrwt>
<totfact> 0.88207237E+03</totfact>
</mgrwt>
</event>
<event>
 5    1  0.3269032E-002  0.1249987E+03  0.7818608E-02  0.1235071E+00
          4   -1    0    0  501    0  0.00000000000E+00  0.00000000000E+00  0.41956550380E+02  0.41975767054E+02  0.12700000000E+01 0. -1.
         -4   -1    0    0    0  501 -0.00000000000E+00 -0.00000000000E+00 -0.93055412882E+02  0.93064078820E+02  0.12700000000E+01 0. -1.
         25    2    1    2    0    0  0.00000000000E+00  0.00000000000E+00 -0.51098862502E+02  0.13503984587E+03  0.12499866489E+03 0.  0.
    9000005    1    3    3    0    0  0.38989302757E+02 -0.15385557398E+02  0.24523446644E+02  0.48572425729E+02  0.10000000000E+01 0.  0.
    9000005    1    3    3    0    0 -0.38989302757E+02  0.15385557398E+02 -0.75622309147E+02  0.86467420145E+02  0.10000000000E+01 0.  0.
<mgrwt>
<rscale>  0 0.12499866E+03</rscale>
<asrwt>0</asrwt>
<pdfrwt beam="1">  1        4 0.64569988E-02 0.12499866E+03</pdfrwt>
<pdfrwt beam="2">  1       -4 0.14318362E-01 0.12499866E+03</pdfrwt>
<totfact> 0.10237539E+04</totfact>
</mgrwt>
</event>
<event>
 5    1  0.3269032E-002  0.1250025E+03  0.7818608E-02  0.1235065E+00
          4   -1    0    0  501    0  0.00000000000E+00  0.00000000000E+00  0.16778350753E+03  0.16778831395E+03  0.12700000000E+01 0. -1.
         -4   -1    0    0    0  501 -0.00000000000E+00 -0.00000000000E+00 -0.23259951754E+02  0.23294597133E+02  0.12700000000E+01 0. -1.
         25    2    1    2    0    0  0.00000000000E+00  0.00000000000E+00  0.14452355577E+03  0.19108291108E+03  0.12500248291E+03 0.  0.
    9000005    1    3    3    0    0 -0.10367697635E+02 -0.23336290299E+01 -0.21876077097E+02  0.24341276216E+02  0.10000000000E+01 0.  0.
    9000005    1    3    3    0    0  0.10367697635E+02  0.23336290299E+01  0.16639963287E+03  0.16674163487E+03  0.10000000000E+01 0.  0.
<mgrwt>
<rscale>  0 0.12500248E+03</rscale>
<asrwt>0</asrwt>
<pdfrwt beam="1">  1        4 0.25815882E-01 0.12500248E+03</pdfrwt>
<pdfrwt beam="2">  1       -4 0.35814888E-02 0.12500248E+03</pdfrwt>
<totfact> 0.91654135E+03</totfact>
</mgrwt>
</event>
<event>
 5    1  0.3269032E-002  0.1249965E+03  0.7818608E-02  0.1235075E+00
          4   -1    0    0  501    0  0.00000000000E+00  0.00000000000E+00  0.93271039323E+02  0.93279685229E+02  0.12700000000E+01 0. -1.
         -4   -1    0    0    0  501 -0.00000000000E+00 -0.00000000000E+00 -0.41858036476E+02  0.41877298356E+02  0.12700000000E+01 0. -1.
         25    2    1    2    0    0  0.00000000000E+00  0.00000000000E+00  0.51413002848E+02  0.13515698359E+03  0.12499645335E+03 0.  0.
    9000005    1    3    3    0    0 -0.45435554873E+02  0.36828601433E+02  0.19110027982E+01  0.58526809770E+02  0.10000000000E+01 0.  0.
    9000005    1    3    3    0    0  0.45435554873E+02 -0.36828601433E+02  0.49502000049E+02  0.76630173815E+02  0.10000000000E+01 0.  0.
<mgrwt>
<rscale>  0 0.12499645E+03</rscale>
<asrwt>0</asrwt>
<pdfrwt beam="1">  1        4 0.14351537E-01 0.12499645E+03</pdfrwt>
<pdfrwt beam="2">  1       -4 0.64418448E-02 0.12499645E+03</pdfrwt>
<totfact> 0.10235582E+04</totfact>
</mgrwt>
</event>
<event>
 5    1  0.3269032E-002  0.1250031E+03  0.7818608E-02  0.1235065E+00
         -4   -1    0    0    0  501 -0.00000000000E+00  0.00000000000E+00  0.31900364723E+02  0.31925634989E+02  0.12700000000E+01 0.  1.
          4   -1    0    0  501    0  0.00000000000E+00 -0.00000000000E+00 -0.12238051057E+03  0.12238710009E+03  0.12700000000E+01 0.  1.
         25    2    1    2    0    0  0.00000000000E+00  0.00000000000E+00 -0.90480145847E+02  0.15431273507E+03  0.12500305362E+03 0.  0.
    9000005    1    3    3    0    0  0.58111751970E+02 -0.66693065891E+01 -0.72398043635E+02  0.93080245432E+02  0.10000000000E+01 0.  0.
    9000005    1    3    3    0    0 -0.58111751970E+02  0.66693065891E+01 -0.18082102212E+02  0.61232489642E+02  0.10000000000E+01 0.  0.
<mgrwt>
<rscale>  0 0.12500305E+03</rscale>
<asrwt>0</asrwt>
<pdfrwt beam="2">  1        4 0.18830221E-01 0.12500305E+03</pdfrwt>
<pdfrwt beam="1">  1       -4 0.49101992E-02 0.12500305E+03</pdfrwt>
<totfact> 0.98443825E+03</totfact>
</mgrwt>
</event>
<event>
 5    1  0.3269032E-002  0.1250014E+03  0.7818608E-02  0.1235067E+00
         -4   -1    0    0    0  501 -0.00000000000E+00  0.00000000000E+00  0.84650328490E+02  0.84659854792E+02  0.12700000000E+01 0.  1.
          4   -1    0    0  501    0  0.00000000000E+00 -0.00000000000E+00 -0.46125869841E+02  0.46143350210E+02  0.12700000000E+01 0.  1.
         25    2    1    2    0    0  0.00000000000E+00  0.00000000000E+00  0.38524458648E+02  0.13080320500E+03  0.12500137809E+03 0.  0.
    9000005    1    3    3    0    0  0.45889764317E+02  0.13221696973E+02 -0.22915559835E+02  0.52979303718E+02  0.10000000000E+01 0.  0.
    9000005    1    3    3    0    0 -0.45889764317E+02 -0.13221696973E+02  0.61440018483E+02  0.77823901284E+02  0.10000000000E+01 0.  0.
<mgrwt>
<rscale>  0 0.12500138E+03</rscale>
<asrwt>0</asrwt>
<pdfrwt beam="2">  1        4 0.70983652E-02 0.12500138E+03</pdfrwt>
<pdfrwt beam="1">  1       -4 0.13025205E-01 0.12500138E+03</pdfrwt>
<totfact> 0.10326989E+04</totfact>
</mgrwt>
</event>
<event>
 5    1  0.3269032E-002  0.1249999E+03  0.7818608E-02  0.1235069E+00
         -4   -1    0    0    0  501 -0.00000000000E+00  0.00000000000E+00  0.15248032921E+02  0.15300830303E+02  0.12700000000E+01 0. -1.
          4   -1    0    0  501    0  0.00000000000E+00 -0.00000000000E+00 -0.25568323044E+03  0.25568638452E+03  0.12700000000E+01 0. -1.
         25    2    1    2    0    0  0.00000000000E+00  0.00000000000E+00 -0.24043519752E+03  0.27098721482E+03  0.12499994556E+03 0.  0.
    9000005    1    3    3    0    0  0.20359328732E+02  0.47020324222E+02 -0.42661544755E+02  0.66681485865E+02  0.10000000000E+01 0.  0.
    9000005    1    3    3    0    0 -0.20359328732E+02 -0.47020324222E+02 -0.19777365276E+03  0.20430572895E+03  0.10000000000E+01 0.  0.
<mgrwt>
<rscale>  0 0.12499995E+03</rscale>
<asrwt>0</asrwt>
<pdfrwt beam="2">  1        4 0.39340183E-01 0.12499995E+03</pdfrwt>
<pdfrwt beam="1">  1       -4 0.23501554E-02 0.12499995E+03</pdfrwt>
<totfact> 0.79388563E+03</totfact>
</mgrwt>
</event>
<event>
 5    1  0.3269032E-002  0.1249979E+03  0.7818608E-02  0.1235073E+00
         -4   -1    0    0    0  501 -0.00000000000E+00  0.00000000000E+00  0.79478047782E+03  0.79478149251E+03  0.12700000000E+01 0. -1.
          4   -1    0    0  501    0  0.00000000000E+00 -0.00000000000E+00 -0.48316314040E+01  0.49957543999E+01  0.12700000000E+01 0. -1.
         25    2    1    2    0    0  0.00000000000E+00  0.00000000000E+00  0.78994884642E+03  0.79977724691E+03  0.12499785881E+03 0.  0.
    9000005    1    3    3    0    0  0.28396783081E+02 -0.48091397575E+02  0.57435098242E+03  0.57706083806E+03  0.10000000000E+01 0.  0.
    9000005    1    3    3    0    0 -0.28396783081E+02  0.48091397575E+02  0.21559786400E+03  0.22271640885E+03  0.10000000000E+01 0.  0.
<mgrwt>
<rscale>  0 0.12499786E+03</rscale>
<asrwt>0</asrwt>
<pdfrwt beam="2">  1        4 0.75603095E-03 0.12499786E+03</pdfrwt>
<pdfrwt beam="1">  1       -4 0.12228660E+00 0.12499786E+03</pdfrwt>
<totfact> 0.38276467E+03</totfact>
</mgrwt>
</event>
<event>
 5    1  0.3269032E-002  0.1250016E+03  0.7818608E-02  0.1235067E+00
          4   -1    0    0  501    0  0.00000000000E+00  0.00000000000E+00  0.98035352862E+02  0.98043578631E+02  0.12700000000E+01 0.  1.
         -4   -1    0    0    0  501 -0.00000000000E+00 -0.00000000000E+00 -0.39826304965E+02  0.39846549000E+02  0.12700000000E+01 0.  1.
         25    2    1    2    0    0  0.00000000000E+00  0.00000000000E+00  0.58209047896E+02  0.13789012763E+03  0.12500157615E+03 0.  0.
    9000005    1    3    3    0    0  0.13053047220E+02 -0.54654108654E+02 -0.10628817143E+01  0.56210171250E+02  0.10000000000E+01 0.  0.
    9000005    1    3    3    0    0 -0.13053047220E+02  0.54654108654E+02  0.59271929611E+02  0.81679956380E+02  0.10000000000E+01 0.  0.
<mgrwt>
<rscale>  0 0.12500158E+03</rscale>
<asrwt>0</asrwt>
<pdfrwt beam="1">  1        4 0.15084552E-01 0.12500158E+03</pdfrwt>
<pdfrwt beam="2">  1       -4 0.61293139E-02 0.12500158E+03</pdfrwt>
<totfact> 0.10177141E+04</totfact>
</mgrwt>
</event>
<event>
 5    1  0.3269032E-002  0.1250036E+03  0.7818608E-02  0.1235064E+00
         -4   -1    0    0    0  501 -0.00000000000E+00  0.00000000000E+00  0.79912071396E+03  0.79912172313E+03  0.12700000000E+01 0. -1.
          4   -1    0    0  501    0  0.00000000000E+00 -0.00000000000E+00 -0.48049499965E+01  0.49699541717E+01  0.12700000000E+01 0. -1.
         25    2    1    2    0    0  0.00000000000E+00  0.00000000000E+00  0.79431576396E+03  0.80409167730E+03  0.12500357046E+03 0.  0.
    9000005    1    3    3    0    0 -0.12362130420E+02 -0.37478943805E+02  0.85462538484E+02  0.94139996715E+02  0.10000000000E+01 0.  0.
    9000005    1    3    3    0    0  0.12362130420E+02  0.37478943805E+02  0.70885322548E+03  0.70995168059E+03  0.10000000000E+01 0.  0.
<mgrwt>
<rscale>  0 0.12500357E+03</rscale>
<asrwt>0</asrwt>
<pdfrwt beam="2">  1        4 0.75199276E-03 0.12500357E+03</pdfrwt>
<pdfrwt beam="1">  1       -4 0.12295451E+00 0.12500357E+03</pdfrwt>
<totfact> 0.38079715E+03</totfact>
</mgrwt>
</event>
<event>
 5    1  0.3269032E-002  0.1249998E+03  0.7818608E-02  0.1235070E+00
         -4   -1    0    0    0  501 -0.00000000000E+00  0.00000000000E+00  0.46835766364E+01  0.48527095637E+01  0.12700000000E+01 0.  1.
          4   -1    0    0  501    0  0.00000000000E+00 -0.00000000000E+00 -0.81906712138E+03  0.81906810598E+03  0.12700000000E+01 0.  1.
         25    2    1    2    0    0  0.00000000000E+00  0.00000000000E+00 -0.81438354475E+03  0.82392081554E+03  0.12499980932E+03 0.  0.
    9000005    1    3    3    0    0 -0.49973722591E+02 -0.25987475845E+02 -0.22879592088E+03  0.23562957213E+03  0.10000000000E+01 0.  0.
    9000005    1    3    3    0    0  0.49973722591E+02  0.25987475845E+02 -0.58558762387E+03  0.58829124342E+03  0.10000000000E+01 0.  0.
<mgrwt>
<rscale>  0 0.12499981E+03</rscale>
<asrwt>0</asrwt>
<pdfrwt beam="2">  1        4 0.12602330E+00 0.12499981E+03</pdfrwt>
<pdfrwt beam="1">  1       -4 0.73363686E-03 0.12499981E+03</pdfrwt>
<totfact> 0.37219071E+03</totfact>
</mgrwt>
</event>
<event>
 5    1  0.3269032E-002  0.1249997E+03  0.7818608E-02  0.1235070E+00
          4   -1    0    0  501    0  0.00000000000E+00  0.00000000000E+00  0.90184522841E+02  0.90193464619E+02  0.12700000000E+01 0.  1.
         -4   -1    0    0    0  501 -0.00000000000E+00 -0.00000000000E+00 -0.43293383498E+02  0.43312007050E+02  0.12700000000E+01 0.  1.
         25    2    1    2    0    0  0.00000000000E+00  0.00000000000E+00  0.46891139344E+02  0.13350547167E+03  0.12499972807E+03 0.  0.
    9000005    1    3    3    0    0  0.22329124962E+02 -0.38304284362E+02  0.70481148187E+02  0.83273046491E+02  0.10000000000E+01 0.  0.
    9000005    1    3    3    0    0 -0.22329124962E+02  0.38304284362E+02 -0.23590008844E+02  0.50232425178E+02  0.10000000000E+01 0.  0.
<mgrwt>
<rscale>  0 0.12499973E+03</rscale>
<asrwt>0</asrwt>
<pdfrwt beam="1">  1        4 0.13876662E-01 0.12499973E+03</pdfrwt>
<pdfrwt beam="2">  1       -4 0.66626410E-02 0.12499973E+03</pdfrwt>
<totfact> 0.10269732E+04</totfact>
</mgrwt>
</event>
<event>
 5    1  0.3269032E-002  0.1249993E+03  0.7818608E-02  0.1235070E+00
         -4   -1    0    0    0  501 -0.00000000000E+00  0.00000000000E+00  0.15593639110E+02  0.15645270233E+02  0.12700000000E+01 0. -1.
          4   -1    0    0  501    0  0.00000000000E+00 -0.00000000000E+00 -0.25003285911E+03  0.25003608447E+03  0.12700000000E+01 0. -1.
         25    2    1    2    0    0  0.00000000000E+00  0.00000000000E+00 -0.23443922000E+03  0.26568135470E+03  0.12499933744E+03 0.  0.
    9000005    1    3    3    0    0 -0.65019222367E+01 -0.57471297882E+02 -0.66922736707E+02  0.88458339128E+02  0.10000000000E+01 0.  0.
    9000005    1    3    3    0    0  0.65019222367E+01  0.57471297882E+02 -0.16751648330E+03  0.17722301557E+03  0.10000000000E+01 0.  0.
<mgrwt>
<rscale>  0 0.12499934E+03</rscale>
<asrwt>0</asrwt>
<pdfrwt beam="2">  1        4 0.38470810E-01 0.12499934E+03</pdfrwt>
<pdfrwt beam="1">  1       -4 0.24032413E-02 0.12499934E+03</pdfrwt>
<totfact> 0.80116499E+03</totfact>
</mgrwt>
</event>
<event>
 5    1  0.3269032E-002  0.1249977E+03  0.7818608E-02  0.1235073E+00
         -4   -1    0    0    0  501 -0.00000000000E+00  0.00000000000E+00  0.10441875998E+02  0.10518824761E+02  0.12700000000E+01 0.  1.
          4   -1    0    0  501    0  0.00000000000E+00 -0.00000000000E+00 -0.37262942790E+03  0.37263159210E+03  0.12700000000E+01 0.  1.
         25    2    1    2    0    0  0.00000000000E+00  0.00000000000E+00 -0.36218755190E+03  0.38315041687E+03  0.12499767675E+03 0.  0.
    9000005    1    3    3    0    0 -0.55495873701E+02 -0.28409786998E+02 -0.19416947489E+03  0.20393551180E+03  0.10000000000E+01 0.  0.
    9000005    1    3    3    0    0  0.55495873701E+02  0.28409786998E+02 -0.16801807701E+03  0.17921490507E+03  0.10000000000E+01 0.  0.
<mgrwt>
<rscale>  0 0.12499768E+03</rscale>
<asrwt>0</asrwt>
<pdfrwt beam="2">  1        4 0.57333680E-01 0.12499768E+03</pdfrwt>
<pdfrwt beam="1">  1       -4 0.16125284E-02 0.12499768E+03</pdfrwt>
<totfact> 0.66228632E+03</totfact>
</mgrwt>
</event>
<event>
 5    1  0.3269032E-002  0.1250178E+03  0.7818608E-02  0.1235041E+00
          4   -1    0    0  501    0  0.00000000000E+00  0.00000000000E+00  0.80981051129E+02  0.80991009019E+02  0.12700000000E+01 0.  1.
         -4   -1    0    0    0  501 -0.00000000000E+00 -0.00000000000E+00 -0.48229080548E+02  0.48245798889E+02  0.12700000000E+01 0.  1.
         25    2    1    2    0    0  0.00000000000E+00  0.00000000000E+00  0.32751970581E+02  0.12923680791E+03  0.12501784249E+03 0.  0.
    9000005    1    3    3    0    0  0.29043632675E+02  0.22733732537E+02  0.68536789530E+02  0.77837309261E+02  0.10000000000E+01 0.  0.
    9000005    1    3    3    0    0 -0.29043632675E+02 -0.22733732537E+02 -0.35784818948E+02  0.51399498647E+02  0.10000000000E+01 0.  0.
<mgrwt>
<rscale>  0 0.12501784E+03</rscale>
<asrwt>0</asrwt>
<pdfrwt beam="1">  1        4 0.12460675E-01 0.12501784E+03</pdfrwt>
<pdfrwt beam="2">  1       -4 0.74219107E-02 0.12501784E+03</pdfrwt>
<totfact> 0.10356689E+04</totfact>
</mgrwt>
</event>
<event>
 5    1  0.3269032E-002  0.1249937E+03  0.7818608E-02  0.1235079E+00
          4   -1    0    0  501    0  0.00000000000E+00  0.00000000000E+00  0.31098450196E+03  0.31098709516E+03  0.12700000000E+01 0. -1.
         -4   -1    0    0    0  501 -0.00000000000E+00 -0.00000000000E+00 -0.12524884122E+02  0.12589107286E+02  0.12700000000E+01 0. -1.
         25    2    1    2    0    0  0.00000000000E+00  0.00000000000E+00  0.29845961783E+03  0.32357620245E+03  0.12499366109E+03 0.  0.
    9000005    1    3    3    0    0  0.24260088047E+02  0.73199874553E+01  0.29709926322E+03  0.29817965439E+03  0.10000000000E+01 0.  0.
    9000005    1    3    3    0    0 -0.24260088047E+02 -0.73199874553E+01  0.13603546148E+01  0.25396548054E+02  0.10000000000E+01 0.  0.
<mgrwt>
<rscale>  0 0.12499366E+03</rscale>
<asrwt>0</asrwt>
<pdfrwt beam="1">  1        4 0.47848908E-01 0.12499366E+03</pdfrwt>
<pdfrwt beam="2">  1       -4 0.19320450E-02 0.12499366E+03</pdfrwt>
<totfact> 0.72743010E+03</totfact>
</mgrwt>
</event>
<event>
 5    1  0.3269032E-002  0.1250045E+03  0.7818608E-02  0.1235062E+00
         -4   -1    0    0    0  501 -0.00000000000E+00  0.00000000000E+00  0.10149469660E+02  0.10228618401E+02  0.12700000000E+01 0. -1.
          4   -1    0    0  501    0  0.00000000000E+00 -0.00000000000E+00 -0.38332475717E+03  0.38332686100E+03  0.12700000000E+01 0. -1.
         25    2    1    2    0    0  0.00000000000E+00  0.00000000000E+00 -0.37317528751E+03  0.39355547940E+03  0.12500448053E+03 0.  0.
    9000005    1    3    3    0    0  0.62403674478E+01  0.99914811045E-01 -0.38235657240E+03  0.38240881348E+03  0.10000000000E+01 0.  0.
    9000005    1    3    3    0    0 -0.62403674478E+01 -0.99914811045E-01  0.91812848891E+01  0.11146665917E+02  0.10000000000E+01 0.  0.
<mgrwt>
<rscale>  0 0.12500448E+03</rscale>
<asrwt>0</asrwt>
<pdfrwt beam="2">  1        4 0.58979279E-01 0.12500448E+03</pdfrwt>
<pdfrwt beam="1">  1       -4 0.15677074E-02 0.12500448E+03</pdfrwt>
<totfact> 0.65177994E+03</totfact>
</mgrwt>
</event>
<event>
 5    1  0.3269032E-002  0.1249949E+03  0.7818608E-02  0.1235077E+00
         -4   -1    0    0    0  501 -0.00000000000E+00  0.00000000000E+00  0.63432318825E+02  0.63445031102E+02  0.12700000000E+01 0.  1.
          4   -1    0    0  501    0  0.00000000000E+00 -0.00000000000E+00 -0.61550953026E+02  0.61564053784E+02  0.12700000000E+01 0.  1.
         25    2    1    2    0    0  0.00000000000E+00  0.00000000000E+00  0.18813657997E+01  0.12500908489E+03  0.12499492696E+03 0.  0.
    9000005    1    3    3    0    0 -0.24440911511E+02  0.57308414494E+02 -0.38889855845E+01  0.62431856741E+02  0.10000000000E+01 0.  0.
    9000005    1    3    3    0    0  0.24440911511E+02 -0.57308414494E+02  0.57703513841E+01  0.62577228145E+02  0.10000000000E+01 0.  0.
<mgrwt>
<rscale>  0 0.12499493E+03</rscale>
<asrwt>0</asrwt>
<pdfrwt beam="2">  1        4 0.94713630E-02 0.12499493E+03</pdfrwt>
<pdfrwt beam="1">  1       -4 0.97608039E-02 0.12499493E+03</pdfrwt>
<totfact> 0.10453864E+04</totfact>
</mgrwt>
</event>
<event>
 5    1  0.3269032E-002  0.1249777E+03  0.7818608E-02  0.1235104E+00
          4   -1    0    0  501    0  0.00000000000E+00  0.00000000000E+00  0.38676242871E+01  0.40708006124E+01  0.12700000000E+01 0.  1.
         -4   -1    0    0    0  501 -0.00000000000E+00 -0.00000000000E+00 -0.98358197599E+03  0.98358279590E+03  0.12700000000E+01 0.  1.
         25    2    1    2    0    0  0.00000000000E+00  0.00000000000E+00 -0.97971435171E+03  0.98765359652E+03  0.12497766110E+03 0.  0.
    9000005    1    3    3    0    0 -0.27993019939E+02  0.16465465860E+02 -0.91167860078E+03  0.91225741534E+03  0.10000000000E+01 0.  0.
    9000005    1    3    3    0    0  0.27993019939E+02 -0.16465465860E+02 -0.68035750930E+02  0.75396181176E+02  0.10000000000E+01 0.  0.
<mgrwt>
<rscale>  0 0.12497766E+03</rscale>
<asrwt>0</asrwt>
<pdfrwt beam="1">  1        4 0.61071192E-03 0.12497766E+03</pdfrwt>
<pdfrwt beam="2">  1       -4 0.15133580E+00 0.12497766E+03</pdfrwt>
<totfact> 0.31030838E+03</totfact>
</mgrwt>
</event>
<event>
 5    1  0.3269032E-002  0.1249987E+03  0.7818608E-02  0.1235071E+00
         -4   -1    0    0    0  501 -0.00000000000E+00  0.00000000000E+00  0.56927144798E+01  0.58326578975E+01  0.12700000000E+01 0. -1.
          4   -1    0    0  501    0  0.00000000000E+00 -0.00000000000E+00 -0.67769814257E+03  0.67769933255E+03  0.12700000000E+01 0. -1.
         25    2    1    2    0    0  0.00000000000E+00  0.00000000000E+00 -0.67200542809E+03  0.68353199045E+03  0.12499874634E+03 0.  0.
    9000005    1    3    3    0    0 -0.60944403564E+02 -0.13506971262E+02 -0.32004775348E+03  0.32608008695E+03  0.10000000000E+01 0.  0.
    9000005    1    3    3    0    0  0.60944403564E+02  0.13506971262E+02 -0.35195767461E+03  0.35745190350E+03  0.10000000000E+01 0.  0.
<mgrwt>
<rscale>  0 0.12499875E+03</rscale>
<asrwt>0</asrwt>
<pdfrwt beam="2">  1        4 0.10427205E+00 0.12499875E+03</pdfrwt>
<pdfrwt beam="1">  1       -4 0.88665918E-03 0.12499875E+03</pdfrwt>
<totfact> 0.43971622E+03</totfact>
</mgrwt>
</event>
<event>
 5    1  0.3269032E-002  0.1250056E+03  0.7818608E-02  0.1235061E+00
          4   -1    0    0  501    0  0.00000000000E+00  0.00000000000E+00  0.23011458384E+03  0.23011808837E+03  0.12700000000E+01 0. -1.
         -4   -1    0    0    0  501 -0.00000000000E+00 -0.00000000000E+00 -0.16949359359E+02  0.16996872732E+02  0.12700000000E+01 0. -1.
         25    2    1    2    0    0  0.00000000000E+00  0.00000000000E+00  0.21316522448E+03  0.24711496110E+03  0.12500556417E+03 0.  0.
    9000005    1    3    3    0    0 -0.32372305087E+02 -0.32895841728E+02  0.23285595023E+02  0.51704172706E+02  0.10000000000E+01 0.  0.
    9000005    1    3    3    0    0  0.32372305087E+02  0.32895841728E+02  0.18987962946E+03  0.19541078840E+03  0.10000000000E+01 0.  0.
<mgrwt>
<rscale>  0 0.12500556E+03</rscale>
<asrwt>0</asrwt>
<pdfrwt beam="1">  1        4 0.35406168E-01 0.12500556E+03</pdfrwt>
<pdfrwt beam="2">  1       -4 0.26115182E-02 0.12500556E+03</pdfrwt>
<totfact> 0.82738742E+03</totfact>
</mgrwt>
</event>
<event>
 5    1  0.3269032E-002  0.1249998E+03  0.7818608E-02  0.1235070E+00
          4   -1    0    0  501    0  0.00000000000E+00  0.00000000000E+00  0.10094034062E+02  0.10173614090E+02  0.12700000000E+01 0. -1.
         -4   -1    0    0    0  501 -0.00000000000E+00 -0.00000000000E+00 -0.38538475014E+03  0.38538684272E+03  0.12700000000E+01 0. -1.
         25    2    1    2    0    0  0.00000000000E+00  0.00000000000E+00 -0.37529071608E+03  0.39556045681E+03  0.12499981366E+03 0.  0.
    9000005    1    3    3    0    0 -0.52695169276E+02  0.31914105894E+02 -0.22082684589E+03  0.22926139423E+03  0.10000000000E+01 0.  0.
    9000005    1    3    3    0    0  0.52695169276E+02 -0.31914105894E+02 -0.15446387019E+03  0.16629906258E+03  0.10000000000E+01 0.  0.
<mgrwt>
<rscale>  0 0.12499981E+03</rscale>
<asrwt>0</asrwt>
<pdfrwt beam="1">  1        4 0.15592111E-02 0.12499981E+03</pdfrwt>
<pdfrwt beam="2">  1       -4 0.59296233E-01 0.12499981E+03</pdfrwt>
<totfact> 0.64987149E+03</totfact>
</mgrwt>
</event>
<event>
 5    1  0.3269032E-002  0.1249992E+03  0.7818608E-02  0.1235071E+00
         -4   -1    0    0    0  501 -0.00000000000E+00  0.00000000000E+00  0.10847901122E+02  0.10921989688E+02  0.12700000000E+01 0.  1.
          4   -1    0    0  501    0  0.00000000000E+00 -0.00000000000E+00 -0.35878731163E+03  0.35878955934E+03  0.12700000000E+01 0.  1.
         25    2    1    2    0    0  0.00000000000E+00  0.00000000000E+00 -0.34793941051E+03  0.36971154902E+03  0.12499918438E+03 0.  0.
    9000005    1    3    3    0    0  0.54826635786E+02  0.29456599629E+02 -0.19058240341E+03  0.20049015872E+03  0.10000000000E+01 0.  0.
    9000005    1    3    3    0    0 -0.54826635786E+02 -0.29456599629E+02 -0.15735700710E+03  0.16922139031E+03  0.10000000000E+01 0.  0.
<mgrwt>
<rscale>  0 0.12499918E+03</rscale>
<asrwt>0</asrwt>
<pdfrwt beam="2">  1        4 0.55203911E-01 0.12499918E+03</pdfrwt>
<pdfrwt beam="1">  1       -4 0.16747802E-02 0.12499918E+03</pdfrwt>
<totfact> 0.67610348E+03</totfact>
</mgrwt>
</event>
<event>
 5    1  0.3269032E-002  0.1249996E+03  0.7818608E-02  0.1235070E+00
         -4   -1    0    0    0  501 -0.00000000000E+00  0.00000000000E+00  0.26454821449E+02  0.26485287952E+02  0.12700000000E+01 0. -1.
          4   -1    0    0  501    0  0.00000000000E+00 -0.00000000000E+00 -0.14753835500E+03  0.14754382094E+03  0.12700000000E+01 0. -1.
         25    2    1    2    0    0  0.00000000000E+00  0.00000000000E+00 -0.12108353355E+03  0.17402910889E+03  0.12499963457E+03 0.  0.
    9000005    1    3    3    0    0 -0.24871463146E+02  0.33960030346E+02 -0.12484674537E+03  0.13175577092E+03  0.10000000000E+01 0.  0.
    9000005    1    3    3    0    0  0.24871463146E+02 -0.33960030346E+02  0.37632118171E+01  0.42273337972E+02  0.10000000000E+01 0.  0.
<mgrwt>
<rscale>  0 0.12499963E+03</rscale>
<asrwt>0</asrwt>
<pdfrwt beam="2">  1        4 0.22700972E-01 0.12499963E+03</pdfrwt>
<pdfrwt beam="1">  1       -4 0.40727366E-02 0.12499963E+03</pdfrwt>
<totfact> 0.94703735E+03</totfact>
</mgrwt>
</event>
<event>
 5    1  0.3269032E-002  0.1250025E+03  0.7818608E-02  0.1235065E+00
         -4   -1    0    0    0  501 -0.00000000000E+00  0.00000000000E+00  0.43048634359E+03  0.43048821694E+03  0.12700000000E+01 0. -1.
          4   -1    0    0  501    0  0.00000000000E+00 -0.00000000000E+00 -0.90280661227E+01  0.91169555179E+01  0.12700000000E+01 0. -1.
         25    2    1    2    0    0  0.00000000000E+00  0.00000000000E+00  0.42145827747E+03  0.43960517245E+03  0.12500251197E+03 0.  0.
    9000005    1    3    3    0    0 -0.25465542216E+02 -0.31387245733E+02  0.37834870043E+03  0.38050281490E+03  0.10000000000E+01 0.  0.
    9000005    1    3    3    0    0  0.25465542216E+02  0.31387245733E+02  0.43109577044E+02  0.59102357550E+02  0.10000000000E+01 0.  0.
<mgrwt>
<rscale>  0 0.12500251E+03</rscale>
<asrwt>0</asrwt>
<pdfrwt beam="2">  1        4 0.13959149E-02 0.12500251E+03</pdfrwt>
<pdfrwt beam="1">  1       -4 0.66235656E-01 0.12500251E+03</pdfrwt>
<totfact> 0.60871512E+03</totfact>
</mgrwt>
</event>
<event>
 5    1  0.3269032E-002  0.1249987E+03  0.7818608E-02  0.1235071E+00
          4   -1    0    0  501    0  0.00000000000E+00  0.00000000000E+00  0.53648762656E+02  0.53663792584E+02  0.12700000000E+01 0.  1.
         -4   -1    0    0    0  501 -0.00000000000E+00 -0.00000000000E+00 -0.72779296702E+02  0.72790376620E+02  0.12700000000E+01 0.  1.
         25    2    1    2    0    0  0.00000000000E+00  0.00000000000E+00 -0.19130534046E+02  0.12645416920E+03  0.12499871830E+03 0.  0.
    9000005    1    3    3    0    0  0.55650089932E+02  0.27313328489E+02 -0.15854900867E+01  0.62019869408E+02  0.10000000000E+01 0.  0.
    9000005    1    3    3    0    0 -0.55650089932E+02 -0.27313328489E+02 -0.17545043959E+02  0.64434299796E+02  0.10000000000E+01 0.  0.
<mgrwt>
<rscale>  0 0.12499872E+03</rscale>
<asrwt>0</asrwt>
<pdfrwt beam="1">  1        4 0.82556643E-02 0.12499872E+03</pdfrwt>
<pdfrwt beam="2">  1       -4 0.11198823E-01 0.12499872E+03</pdfrwt>
<totfact> 0.10421329E+04</totfact>
</mgrwt>
</event>
<event>
 5    1  0.3269032E-002  0.1249995E+03  0.7818608E-02  0.1235070E+00
         -4   -1    0    0    0  501 -0.00000000000E+00  0.00000000000E+00  0.19516249639E+02  0.19557527961E+02  0.12700000000E+01 0.  1.
          4   -1    0    0  501    0  0.00000000000E+00 -0.00000000000E+00 -0.19989732741E+03  0.19990136169E+03  0.12700000000E+01 0.  1.
         25    2    1    2    0    0  0.00000000000E+00  0.00000000000E+00 -0.18038107777E+03  0.21945888965E+03  0.12499948411E+03 0.  0.
    9000005    1    3    3    0    0  0.60911032089E+02 -0.11444561451E+02 -0.76135684929E+02  0.98177259773E+02  0.10000000000E+01 0.  0.
    9000005    1    3    3    0    0 -0.60911032089E+02  0.11444561451E+02 -0.10424539284E+03  0.12128162987E+03  0.10000000000E+01 0.  0.
<mgrwt>
<rscale>  0 0.12499948E+03</rscale>
<asrwt>0</asrwt>
<pdfrwt beam="2">  1        4 0.30756919E-01 0.12499948E+03</pdfrwt>
<pdfrwt beam="1">  1       -4 0.30059857E-02 0.12499948E+03</pdfrwt>
<totfact> 0.86955048E+03</totfact>
</mgrwt>
</event>
<event>
 5    1  0.3269032E-002  0.1250055E+03  0.7818608E-02  0.1235061E+00
         -4   -1    0    0    0  501 -0.00000000000E+00  0.00000000000E+00  0.89858661450E+01  0.90751688897E+01  0.12700000000E+01 0.  1.
          4   -1    0    0  501    0  0.00000000000E+00 -0.00000000000E+00 -0.43250876541E+03  0.43251062999E+03  0.12700000000E+01 0.  1.
         25    2    1    2    0    0  0.00000000000E+00  0.00000000000E+00 -0.42352289926E+03  0.44158579888E+03  0.12500548617E+03 0.  0.
    9000005    1    3    3    0    0  0.57602170166E+02  0.16832051045E+02 -0.27338007180E+03  0.27989103524E+03  0.10000000000E+01 0.  0.
    9000005    1    3    3    0    0 -0.57602170166E+02 -0.16832051045E+02 -0.15014282747E+03  0.16169476364E+03  0.10000000000E+01 0.  0.
<mgrwt>
<rscale>  0 0.12500549E+03</rscale>
<asrwt>0</asrwt>
<pdfrwt beam="2">  1        4 0.66546807E-01 0.12500549E+03</pdfrwt>
<pdfrwt beam="1">  1       -4 0.13894542E-02 0.12500549E+03</pdfrwt>
<totfact> 0.60692336E+03</totfact>
</mgrwt>
</event>
<event>
 5    1  0.3269032E-002  0.1250059E+03  0.7818608E-02  0.1235060E+00
          4   -1    0    0  501    0  0.00000000000E+00  0.00000000000E+00  0.63562147987E+01  0.64818490084E+01  0.12700000000E+01 0. -1.
         -4   -1    0    0    0  501 -0.00000000000E+00 -0.00000000000E+00 -0.60847345286E+03  0.60847477822E+03  0.12700000000E+01 0. -1.
         25    2    1    2    0    0  0.00000000000E+00  0.00000000000E+00 -0.60211723806E+03  0.61495662723E+03  0.12500593989E+03 0.  0.
    9000005    1    3    3    0    0  0.43332104325E+02 -0.30290484136E+02 -0.13712776106E+03  0.14697009066E+03  0.10000000000E+01 0.  0.
    9000005    1    3    3    0    0 -0.43332104325E+02  0.30290484136E+02 -0.46498947700E+03  0.46798653657E+03  0.10000000000E+01 0.  0.
<mgrwt>
<rscale>  0 0.12500594E+03</rscale>
<asrwt>0</asrwt>
<pdfrwt beam="1">  1        4 0.98764580E-03 0.12500594E+03</pdfrwt>
<pdfrwt beam="2">  1       -4 0.93621021E-01 0.12500594E+03</pdfrwt>
<totfact> 0.47930690E+03</totfact>
</mgrwt>
</event>
<event>
 5    1  0.3269032E-002  0.1249970E+03  0.7818608E-02  0.1235074E+00
         -4   -1    0    0    0  501 -0.00000000000E+00  0.00000000000E+00  0.14502105697E+02  0.14557608651E+02  0.12700000000E+01 0.  1.
          4   -1    0    0  501    0  0.00000000000E+00 -0.00000000000E+00 -0.26877320554E+03  0.26877620601E+03  0.12700000000E+01 0.  1.
         25    2    1    2    0    0  0.00000000000E+00  0.00000000000E+00 -0.25427109984E+03  0.28333381466E+03  0.12499703322E+03 0.  0.
    9000005    1    3    3    0    0  0.42164117024E+02 -0.28584481983E+02 -0.45088295175E+02  0.68035576990E+02  0.10000000000E+01 0.  0.
    9000005    1    3    3    0    0 -0.42164117024E+02  0.28584481983E+02 -0.20918280467E+03  0.21529823767E+03  0.10000000000E+01 0.  0.
<mgrwt>
<rscale>  0 0.12499703E+03</rscale>
<asrwt>0</asrwt>
<pdfrwt beam="2">  1        4 0.41354221E-01 0.12499703E+03</pdfrwt>
<pdfrwt beam="1">  1       -4 0.22355936E-02 0.12499703E+03</pdfrwt>
<totfact> 0.77743260E+03</totfact>
</mgrwt>
</event>
<event>
 5    1  0.3269032E-002  0.1250000E+03  0.7818608E-02  0.1235069E+00
         -4   -1    0    0    0  501 -0.00000000000E+00  0.00000000000E+00  0.99210084601E+01  0.10001965250E+02  0.12700000000E+01 0. -1.
          4   -1    0    0  501    0  0.00000000000E+00 -0.00000000000E+00 -0.39205315992E+03  0.39205521691E+03  0.12700000000E+01 0. -1.
         25    2    1    2    0    0  0.00000000000E+00  0.00000000000E+00 -0.38213215146E+03  0.40205718216E+03  0.12499998618E+03 0.  0.
    9000005    1    3    3    0    0  0.25745675818E+02 -0.92479031103E+01 -0.37178651839E+03  0.37279294359E+03  0.10000000000E+01 0.  0.
    9000005    1    3    3    0    0 -0.25745675818E+02  0.92479031103E+01 -0.10345633073E+02  0.29264238568E+02  0.10000000000E+01 0.  0.
<mgrwt>
<rscale>  0 0.12499999E+03</rscale>
<asrwt>0</asrwt>
<pdfrwt beam="2">  1        4 0.60322244E-01 0.12499999E+03</pdfrwt>
<pdfrwt beam="1">  1       -4 0.15326950E-02 0.12499999E+03</pdfrwt>
<totfact> 0.64353226E+03</totfact>
</mgrwt>
</event>
<event>
 5    1  0.3269032E-002  0.1249985E+03  0.7818608E-02  0.1235072E+00
         -4   -1    0    0    0  501 -0.00000000000E+00  0.00000000000E+00  0.46845305997E+02  0.46862518007E+02  0.12700000000E+01 0. -1.
          4   -1    0    0  501    0  0.00000000000E+00 -0.00000000000E+00 -0.83346753373E+02  0.83356428654E+02  0.12700000000E+01 0. -1.
         25    2    1    2    0    0  0.00000000000E+00  0.00000000000E+00 -0.36501447376E+02  0.13021894666E+03  0.12499847363E+03 0.  0.
    9000005    1    3    3    0    0 -0.45835007009E+02 -0.29535776635E+02  0.13552015240E+02  0.56194902670E+02  0.10000000000E+01 0.  0.
    9000005    1    3    3    0    0  0.45835007009E+02  0.29535776635E+02 -0.50053462616E+02  0.74024043991E+02  0.10000000000E+01 0.  0.
<mgrwt>
<rscale>  0 0.12499847E+03</rscale>
<asrwt>0</asrwt>
<pdfrwt beam="2">  1        4 0.12824646E-01 0.12499847E+03</pdfrwt>
<pdfrwt beam="1">  1       -4 0.72090384E-02 0.12499847E+03</pdfrwt>
<totfact> 0.10340182E+04</totfact>
</mgrwt>
</event>
<event>
 5    1  0.3269032E-002  0.1250008E+03  0.7818608E-02  0.1235068E+00
          4   -1    0    0  501    0  0.00000000000E+00  0.00000000000E+00  0.17742521472E+03  0.17742975996E+03  0.12700000000E+01 0.  1.
         -4   -1    0    0    0  501 -0.00000000000E+00 -0.00000000000E+00 -0.21993466847E+02  0.22030104039E+02  0.12700000000E+01 0.  1.
         25    2    1    2    0    0  0.00000000000E+00  0.00000000000E+00  0.15543174787E+03  0.19945986400E+03  0.12500083639E+03 0.  0.
    9000005    1    3    3    0    0  0.48719407866E+02 -0.15303085012E+02  0.20237760916E+02  0.54939349109E+02  0.10000000000E+01 0.  0.
    9000005    1    3    3    0    0 -0.48719407866E+02  0.15303085012E+02  0.13519398696E+03  0.14452051489E+03  0.10000000000E+01 0.  0.
<mgrwt>
<rscale>  0 0.12500084E+03</rscale>
<asrwt>0</asrwt>
<pdfrwt beam="1">  1        4 0.27299355E-01 0.12500084E+03</pdfrwt>
<pdfrwt beam="2">  1       -4 0.33867781E-02 0.12500084E+03</pdfrwt>
<totfact> 0.90224995E+03</totfact>
</mgrwt>
</event>
<event>
 5    1  0.3269032E-002  0.1249991E+03  0.7818608E-02  0.1235071E+00
          4   -1    0    0  501    0  0.00000000000E+00  0.00000000000E+00  0.56413841569E+02  0.56428135009E+02  0.12700000000E+01 0. -1.
         -4   -1    0    0    0  501 -0.00000000000E+00 -0.00000000000E+00 -0.69212852235E+02  0.69224502992E+02  0.12700000000E+01 0. -1.
         25    2    1    2    0    0  0.00000000000E+00  0.00000000000E+00 -0.12799010666E+02  0.12565263800E+03  0.12499908305E+03 0.  0.
    9000005    1    3    3    0    0  0.40445302936E+02 -0.32966207771E+02 -0.40968248785E+02  0.66347500276E+02  0.10000000000E+01 0.  0.
    9000005    1    3    3    0    0 -0.40445302936E+02  0.32966207771E+02  0.28169238119E+02  0.59305137725E+02  0.10000000000E+01 0.  0.
<mgrwt>
<rscale>  0 0.12499908E+03</rscale>
<asrwt>0</asrwt>
<pdfrwt beam="1">  1        4 0.86810483E-02 0.12499908E+03</pdfrwt>
<pdfrwt beam="2">  1       -4 0.10650127E-01 0.12499908E+03</pdfrwt>
<totfact> 0.10438803E+04</totfact>
</mgrwt>
</event>
<event>
 5    1  0.3269032E-002  0.1250003E+03  0.7818608E-02  0.1235069E+00
         -4   -1    0    0    0  501 -0.00000000000E+00  0.00000000000E+00  0.23545611557E+02  0.23579837226E+02  0.12700000000E+01 0.  1.
          4   -1    0    0  501    0  0.00000000000E+00 -0.00000000000E+00 -0.16574499131E+03  0.16574985684E+03  0.12700000000E+01 0.  1.
         25    2    1    2    0    0  0.00000000000E+00  0.00000000000E+00 -0.14219937975E+03  0.18932969407E+03  0.12500027782E+03 0.  0.
    9000005    1    3    3    0    0  0.24126147575E+02 -0.17438195819E+02  0.12123989716E+02  0.32158246172E+02  0.10000000000E+01 0.  0.
    9000005    1    3    3    0    0 -0.24126147575E+02  0.17438195819E+02 -0.15432336947E+03  0.15717144790E+03  0.10000000000E+01 0.  0.
<mgrwt>
<rscale>  0 0.12500028E+03</rscale>
<asrwt>0</asrwt>
<pdfrwt beam="2">  1        4 0.25502236E-01 0.12500028E+03</pdfrwt>
<pdfrwt beam="1">  1       -4 0.36254089E-02 0.12500028E+03</pdfrwt>
<totfact> 0.91963504E+03</totfact>
</mgrwt>
</event>
<event>
 5    1  0.3269032E-002  0.1250106E+03  0.7818608E-02  0.1235053E+00
         -4   -1    0    0    0  501 -0.00000000000E+00  0.00000000000E+00  0.12714777070E+03  0.12715411316E+03  0.12700000000E+01 0. -1.
          4   -1    0    0  501    0  0.00000000000E+00 -0.00000000000E+00 -0.30707119384E+02  0.30733370802E+02  0.12700000000E+01 0. -1.
         25    2    1    2    0    0  0.00000000000E+00  0.00000000000E+00  0.96440651317E+02  0.15788748396E+03  0.12501063301E+03 0.  0.
    9000005    1    3    3    0    0 -0.30736412064E+01 -0.61199859676E+02  0.63742523095E+02  0.88424992763E+02  0.10000000000E+01 0.  0.
    9000005    1    3    3    0    0  0.30736412064E+01  0.61199859676E+02  0.32698128222E+02  0.69462491201E+02  0.10000000000E+01 0.  0.
<mgrwt>
<rscale>  0 0.12501063E+03</rscale>
<asrwt>0</asrwt>
<pdfrwt beam="2">  1        4 0.47266794E-02 0.12501063E+03</pdfrwt>
<pdfrwt beam="1">  1       -4 0.19563703E-01 0.12501063E+03</pdfrwt>
<totfact> 0.97728249E+03</totfact>
</mgrwt>
</event>
<event>
 5    1  0.3269032E-002  0.1249979E+03  0.7818608E-02  0.1235073E+00
          4   -1    0    0  501    0  0.00000000000E+00  0.00000000000E+00  0.40678749442E+02  0.40698569461E+02  0.12700000000E+01 0. -1.
         -4   -1    0    0    0  501 -0.00000000000E+00 -0.00000000000E+00 -0.95976129941E+02  0.95984532184E+02  0.12700000000E+01 0. -1.
         25    2    1    2    0    0  0.00000000000E+00  0.00000000000E+00 -0.55297380499E+02  0.13668310164E+03  0.12499787992E+03 0.  0.
    9000005    1    3    3    0    0  0.10254224775E+02  0.60566151836E+02 -0.15099348955E+02  0.63264509899E+02  0.10000000000E+01 0.  0.
    9000005    1    3    3    0    0 -0.10254224775E+02 -0.60566151836E+02 -0.40198031544E+02  0.73418591746E+02  0.10000000000E+01 0.  0.
<mgrwt>
<rscale>  0 0.12499788E+03</rscale>
<asrwt>0</asrwt>
<pdfrwt beam="1">  1        4 0.62604401E-02 0.12499788E+03</pdfrwt>
<pdfrwt beam="2">  1       -4 0.14767729E-01 0.12499788E+03</pdfrwt>
<totfact> 0.10203204E+04</totfact>
</mgrwt>
</event>
<event>
 5    1  0.3269032E-002  0.1249859E+03  0.7818608E-02  0.1235091E+00
         -4   -1    0    0    0  501 -0.00000000000E+00  0.00000000000E+00  0.18593549022E+03  0.18593982742E+03  0.12700000000E+01 0.  1.
          4   -1    0    0  501    0  0.00000000000E+00 -0.00000000000E+00 -0.20980099840E+02  0.21018503498E+02  0.12700000000E+01 0.  1.
         25    2    1    2    0    0  0.00000000000E+00  0.00000000000E+00  0.16495539038E+03  0.20695833092E+03  0.12498587890E+03 0.  0.
    9000005    1    3    3    0    0 -0.11249173934E+02 -0.54181299403E+02  0.34423395245E+02  0.65177659204E+02  0.10000000000E+01 0.  0.
    9000005    1    3    3    0    0  0.11249173934E+02  0.54181299403E+02  0.13053199513E+03  0.14178067172E+03  0.10000000000E+01 0.  0.
<mgrwt>
<rscale>  0 0.12498588E+03</rscale>
<asrwt>0</asrwt>
<pdfrwt beam="2">  1        4 0.32309955E-02 0.12498588E+03</pdfrwt>
<pdfrwt beam="1">  1       -4 0.28608747E-01 0.12498588E+03</pdfrwt>
<totfact> 0.89003150E+03</totfact>
</mgrwt>
</event>
<event>
 5    1  0.3269032E-002  0.1250023E+03  0.7818608E-02  0.1235066E+00
         -4   -1    0    0    0  501 -0.00000000000E+00  0.00000000000E+00  0.44581001187E+03  0.44581182082E+03  0.12700000000E+01 0. -1.
          4   -1    0    0  501    0  0.00000000000E+00 -0.00000000000E+00 -0.87146032142E+01  0.88066570946E+01  0.12700000000E+01 0. -1.
         25    2    1    2    0    0  0.00000000000E+00  0.00000000000E+00  0.43709540865E+03  0.45461847791E+03  0.12500225676E+03 0.  0.
    9000005    1    3    3    0    0  0.28170743115E+02 -0.46610800135E+02  0.33000693427E+03  0.33447232190E+03  0.10000000000E+01 0.  0.
    9000005    1    3    3    0    0 -0.28170743115E+02  0.46610800135E+02  0.10708847439E+03  0.12014615601E+03  0.10000000000E+01 0.  0.
<mgrwt>
<rscale>  0 0.12500226E+03</rscale>
<asrwt>0</asrwt>
<pdfrwt beam="2">  1        4 0.13479281E-02 0.12500226E+03</pdfrwt>
<pdfrwt beam="1">  1       -4 0.68593391E-01 0.12500226E+03</pdfrwt>
<totfact> 0.59562804E+03</totfact>
</mgrwt>
</event>
<event>
 5    1  0.3269032E-002  0.1249952E+03  0.7818608E-02  0.1235077E+00
         -4   -1    0    0    0  501 -0.00000000000E+00  0.00000000000E+00  0.12626108350E+02  0.12689819229E+02  0.12700000000E+01 0.  1.
          4   -1    0    0  501    0  0.00000000000E+00 -0.00000000000E+00 -0.30851167867E+03  0.30851429266E+03  0.12700000000E+01 0.  1.
         25    2    1    2    0    0  0.00000000000E+00  0.00000000000E+00 -0.29588557032E+03  0.32120411189E+03  0.12499524299E+03 0.  0.
    9000005    1    3    3    0    0  0.25349560732E+02  0.57069109261E+02 -0.15395245713E+03  0.16613802249E+03  0.10000000000E+01 0.  0.
    9000005    1    3    3    0    0 -0.25349560732E+02 -0.57069109261E+02 -0.14193311319E+03  0.15506608940E+03  0.10000000000E+01 0.  0.
<mgrwt>
<rscale>  0 0.12499524E+03</rscale>
<asrwt>0</asrwt>
<pdfrwt beam="2">  1        4 0.47468431E-01 0.12499524E+03</pdfrwt>
<pdfrwt beam="1">  1       -4 0.19475804E-02 0.12499524E+03</pdfrwt>
<totfact> 0.73020842E+03</totfact>
</mgrwt>
</event>
<event>
 5    1  0.3269032E-002  0.1249947E+03  0.7818608E-02  0.1235078E+00
          4   -1    0    0  501    0  0.00000000000E+00  0.00000000000E+00  0.42034893370E+01  0.43911527650E+01  0.12700000000E+01 0. -1.
         -4   -1    0    0    0  501 -0.00000000000E+00 -0.00000000000E+00 -0.90873184649E+03  0.90873273394E+03  0.12700000000E+01 0. -1.
         25    2    1    2    0    0  0.00000000000E+00  0.00000000000E+00 -0.90452835715E+03  0.91312388670E+03  0.12499473416E+03 0.  0.
    9000005    1    3    3    0    0  0.24726455013E+02 -0.39389916168E+02 -0.75716374289E+03  0.75859138976E+03  0.10000000000E+01 0.  0.
    9000005    1    3    3    0    0 -0.24726455013E+02  0.39389916168E+02 -0.14736461426E+03  0.15453249694E+03  0.10000000000E+01 0.  0.
<mgrwt>
<rscale>  0 0.12499473E+03</rscale>
<asrwt>0</asrwt>
<pdfrwt beam="1">  1        4 0.66119530E-03 0.12499473E+03</pdfrwt>
<pdfrwt beam="2">  1       -4 0.13981925E+00 0.12499473E+03</pdfrwt>
<totfact> 0.33666258E+03</totfact>
</mgrwt>
</event>
<event>
 5    1  0.3269032E-002  0.1249994E+03  0.7818608E-02  0.1235070E+00
          4   -1    0    0  501    0  0.00000000000E+00  0.00000000000E+00  0.33605351859E+01  0.35925056348E+01  0.12700000000E+01 0. -1.
         -4   -1    0    0    0  501 -0.00000000000E+00 -0.00000000000E+00 -0.11233657762E+04  0.11233664941E+04  0.12700000000E+01 0. -1.
         25    2    1    2    0    0  0.00000000000E+00  0.00000000000E+00 -0.11200052410E+04  0.11269589997E+04  0.12499938862E+03 0.  0.
    9000005    1    3    3    0    0  0.21962834945E+02 -0.10797493881E+02 -0.10784070639E+04  0.10786851939E+04  0.10000000000E+01 0.  0.
    9000005    1    3    3    0    0 -0.21962834945E+02  0.10797493881E+02 -0.41598177127E+02  0.48273805870E+02  0.10000000000E+01 0.  0.
<mgrwt>
<rscale>  0 0.12499939E+03</rscale>
<asrwt>0</asrwt>
<pdfrwt beam="1">  1        4 0.53490541E-03 0.12499939E+03</pdfrwt>
<pdfrwt beam="2">  1       -4 0.17284311E+00 0.12499939E+03</pdfrwt>
<totfact> 0.26707875E+03</totfact>
</mgrwt>
</event>
<event>
 5    1  0.3269032E-002  0.1250017E+03  0.7818608E-02  0.1235067E+00
          4   -1    0    0  501    0  0.00000000000E+00  0.00000000000E+00  0.50402092450E+01  0.51977504012E+01  0.12700000000E+01 0. -1.
         -4   -1    0    0    0  501 -0.00000000000E+00 -0.00000000000E+00 -0.76295369144E+03  0.76295474845E+03  0.12700000000E+01 0. -1.
         25    2    1    2    0    0  0.00000000000E+00  0.00000000000E+00 -0.75791348219E+03  0.76815249885E+03  0.12500165998E+03 0.  0.
    9000005    1    3    3    0    0 -0.27905667243E+02 -0.26065401996E+02 -0.74960384629E+02  0.84131983865E+02  0.10000000000E+01 0.  0.
    9000005    1    3    3    0    0  0.27905667243E+02  0.26065401996E+02 -0.68295309756E+03  0.68402051498E+03  0.10000000000E+01 0.  0.
<mgrwt>
<rscale>  0 0.12500166E+03</rscale>
<asrwt>0</asrwt>
<pdfrwt beam="1">  1        4 0.78761727E-03 0.12500166E+03</pdfrwt>
<pdfrwt beam="2">  1       -4 0.11738960E+00 0.12500166E+03</pdfrwt>
<totfact> 0.39719168E+03</totfact>
</mgrwt>
</event>
<event>
 5    1  0.3269032E-002  0.1250006E+03  0.7818608E-02  0.1235068E+00
          4   -1    0    0  501    0  0.00000000000E+00  0.00000000000E+00  0.82215792147E+01  0.83190903820E+01  0.12700000000E+01 0.  1.
         -4   -1    0    0    0  501 -0.00000000000E+00 -0.00000000000E+00 -0.47222655830E+03  0.47222826605E+03  0.12700000000E+01 0.  1.
         25    2    1    2    0    0  0.00000000000E+00  0.00000000000E+00 -0.46400497908E+03  0.48054735644E+03  0.12500056466E+03 0.  0.
    9000005    1    3    3    0    0  0.52011995340E+01  0.14683321671E+02  0.65707586107E+00  0.15623193034E+02  0.10000000000E+01 0.  0.
    9000005    1    3    3    0    0 -0.52011995340E+01 -0.14683321671E+02 -0.46466205494E+03  0.46492416340E+03  0.10000000000E+01 0.  0.
<mgrwt>
<rscale>  0 0.12500056E+03</rscale>
<asrwt>0</asrwt>
<pdfrwt beam="1">  1        4 0.12724909E-02 0.12500056E+03</pdfrwt>
<pdfrwt beam="2">  1       -4 0.72657851E-01 0.12500056E+03</pdfrwt>
<totfact> 0.57405180E+03</totfact>
</mgrwt>
</event>
<event>
 5    1  0.3269032E-002  0.1250030E+03  0.7818608E-02  0.1235065E+00
          4   -1    0    0  501    0  0.00000000000E+00  0.00000000000E+00  0.40399040958E+02  0.40418998136E+02  0.12700000000E+01 0. -1.
         -4   -1    0    0    0  501 -0.00000000000E+00 -0.00000000000E+00 -0.96648262568E+02  0.96656606382E+02  0.12700000000E+01 0. -1.
         25    2    1    2    0    0  0.00000000000E+00  0.00000000000E+00 -0.56249221610E+02  0.13707560452E+03  0.12500298565E+03 0.  0.
    9000005    1    3    3    0    0  0.47868168979E+02 -0.28845707666E+02 -0.58789627317E+02  0.81121247107E+02  0.10000000000E+01 0.  0.
    9000005    1    3    3    0    0 -0.47868168979E+02  0.28845707666E+02  0.25404057076E+01  0.55954357411E+02  0.10000000000E+01 0.  0.
<mgrwt>
<rscale>  0 0.12500299E+03</rscale>
<asrwt>0</asrwt>
<pdfrwt beam="1">  1        4 0.62174141E-02 0.12500299E+03</pdfrwt>
<pdfrwt beam="2">  1       -4 0.14871140E-01 0.12500299E+03</pdfrwt>
<totfact> 0.10193819E+04</totfact>
</mgrwt>
</event>
<event>
 5    1  0.3269032E-002  0.1249995E+03  0.7818608E-02  0.1235070E+00
          4   -1    0    0  501    0  0.00000000000E+00  0.00000000000E+00  0.23948702251E+03  0.23949038989E+03  0.12700000000E+01 0. -1.
         -4   -1    0    0    0  501 -0.00000000000E+00 -0.00000000000E+00 -0.16282573006E+02  0.16332026319E+02  0.12700000000E+01 0. -1.
         25    2    1    2    0    0  0.00000000000E+00  0.00000000000E+00  0.22320444950E+03  0.25582241621E+03  0.12499952943E+03 0.  0.
    9000005    1    3    3    0    0 -0.62046640676E+02 -0.48411965297E+00  0.96396675543E+02  0.11464440260E+03  0.10000000000E+01 0.  0.
    9000005    1    3    3    0    0  0.62046640676E+02  0.48411965297E+00  0.12680777396E+03  0.14117801361E+03  0.10000000000E+01 0.  0.
<mgrwt>
<rscale>  0 0.12499953E+03</rscale>
<asrwt>0</asrwt>
<pdfrwt beam="1">  1        4 0.36848217E-01 0.12499953E+03</pdfrwt>
<pdfrwt beam="2">  1       -4 0.25090746E-02 0.12499953E+03</pdfrwt>
<totfact> 0.81496779E+03</totfact>
</mgrwt>
</event>
<event>
 5    1  0.3269032E-002  0.1249891E+03  0.7818608E-02  0.1235086E+00
          4   -1    0    0  501    0  0.00000000000E+00  0.00000000000E+00  0.84190192209E+02  0.84199770571E+02  0.12700000000E+01 0. -1.
         -4   -1    0    0    0  501 -0.00000000000E+00 -0.00000000000E+00 -0.46368936259E+02  0.46386325030E+02  0.12700000000E+01 0. -1.
         25    2    1    2    0    0  0.00000000000E+00  0.00000000000E+00  0.37821255951E+02  0.13058609560E+03  0.12498912338E+03 0.  0.
    9000005    1    3    3    0    0  0.10212106107E+02  0.21196174040E+02 -0.41569440562E+02  0.47776388454E+02  0.10000000000E+01 0.  0.
    9000005    1    3    3    0    0 -0.10212106107E+02 -0.21196174040E+02  0.79390696512E+02  0.82809707147E+02  0.10000000000E+01 0.  0.
<mgrwt>
<rscale>  0 0.12498912E+03</rscale>
<asrwt>0</asrwt>
<pdfrwt beam="1">  1        4 0.12954412E-01 0.12498912E+03</pdfrwt>
<pdfrwt beam="2">  1       -4 0.71357569E-02 0.12498912E+03</pdfrwt>
<totfact> 0.10334507E+04</totfact>
</mgrwt>
</event>
<event>
 5    1  0.3269032E-002  0.1249992E+03  0.7818608E-02  0.1235071E+00
          4   -1    0    0  501    0  0.00000000000E+00  0.00000000000E+00  0.82833544538E+01  0.83801468369E+01  0.12700000000E+01 0.  1.
         -4   -1    0    0    0  501 -0.00000000000E+00 -0.00000000000E+00 -0.46873551423E+03  0.46873723471E+03  0.12700000000E+01 0.  1.
         25    2    1    2    0    0  0.00000000000E+00  0.00000000000E+00 -0.46045215978E+03  0.47711738154E+03  0.12499921731E+03 0.  0.
    9000005    1    3    3    0    0  0.47348850326E+02 -0.49662397372E+01 -0.75715725193E+02  0.89445224612E+02  0.10000000000E+01 0.  0.
    9000005    1    3    3    0    0 -0.47348850326E+02  0.49662397372E+01 -0.38473643458E+03  0.38767215693E+03  0.10000000000E+01 0.  0.
<mgrwt>
<rscale>  0 0.12499922E+03</rscale>
<asrwt>0</asrwt>
<pdfrwt beam="1">  1        4 0.12819405E-02 0.12499922E+03</pdfrwt>
<pdfrwt beam="2">  1       -4 0.72120713E-01 0.12499922E+03</pdfrwt>
<totfact> 0.57685541E+03</totfact>
</mgrwt>
</event>
<event>
 5    1  0.3269032E-002  0.1250033E+03  0.7818608E-02  0.1235064E+00
          4   -1    0    0  501    0  0.00000000000E+00  0.00000000000E+00  0.78852689386E+03  0.78852791659E+03  0.12700000000E+01 0. -1.
         -4   -1    0    0    0  501 -0.00000000000E+00 -0.00000000000E+00 -0.48716843942E+01  0.50345018459E+01  0.12700000000E+01 0. -1.
         25    2    1    2    0    0  0.00000000000E+00  0.00000000000E+00  0.78365520947E+03  0.79356241844E+03  0.12500329848E+03 0.  0.
    9000005    1    3    3    0    0 -0.18934006961E+02  0.56079184259E+02  0.51912465956E+03  0.52248902734E+03  0.10000000000E+01 0.  0.
    9000005    1    3    3    0    0  0.18934006961E+02 -0.56079184259E+02  0.26453054991E+03  0.27107339110E+03  0.10000000000E+01 0.  0.
<mgrwt>
<rscale>  0 0.12500330E+03</rscale>
<asrwt>0</asrwt>
<pdfrwt beam="1">  1        4 0.12132443E+00 0.12500330E+03</pdfrwt>
<pdfrwt beam="2">  1       -4 0.76209301E-03 0.12500330E+03</pdfrwt>
<totfact> 0.38550959E+03</totfact>
</mgrwt>
</event>
<event>
 5    1  0.3269032E-002  0.1249997E+03  0.7818608E-02  0.1235070E+00
          4   -1    0    0  501    0  0.00000000000E+00  0.00000000000E+00  0.35790270047E+03  0.35790495373E+03  0.12700000000E+01 0.  1.
         -4   -1    0    0    0  501 -0.00000000000E+00 -0.00000000000E+00 -0.10874978427E+02  0.10948883769E+02  0.12700000000E+01 0.  1.
         25    2    1    2    0    0  0.00000000000E+00  0.00000000000E+00  0.34702772204E+03  0.36885383750E+03  0.12499965428E+03 0.  0.
    9000005    1    3    3    0    0  0.26233279724E+02 -0.53825060849E+02  0.22629233856E+03  0.23408234583E+03  0.10000000000E+01 0.  0.
    9000005    1    3    3    0    0 -0.26233279724E+02  0.53825060849E+02  0.12073538348E+03  0.13477149166E+03  0.10000000000E+01 0.  0.
<mgrwt>
<rscale>  0 0.12499965E+03</rscale>
<asrwt>0</asrwt>
<pdfrwt beam="1">  1        4 0.55067800E-01 0.12499965E+03</pdfrwt>
<pdfrwt beam="2">  1       -4 0.16789323E-02 0.12499965E+03</pdfrwt>
<totfact> 0.67699541E+03</totfact>
</mgrwt>
</event>
<event>
 5    1  0.3269032E-002  0.1249952E+03  0.7818608E-02  0.1235077E+00
          4   -1    0    0  501    0  0.00000000000E+00  0.00000000000E+00  0.34575753591E+01  0.36834396104E+01  0.12700000000E+01 0. -1.
         -4   -1    0    0    0  501 -0.00000000000E+00 -0.00000000000E+00 -0.10937225489E+04  0.10937232863E+04  0.12700000000E+01 0. -1.
         25    2    1    2    0    0  0.00000000000E+00  0.00000000000E+00 -0.10902649736E+04  0.10974067259E+04  0.12499523759E+03 0.  0.
    9000005    1    3    3    0    0 -0.53200718607E+02  0.37272211501E+01 -0.83107543148E+03  0.83278543542E+03  0.10000000000E+01 0.  0.
    9000005    1    3    3    0    0  0.53200718607E+02 -0.37272211501E+01 -0.25918954209E+03  0.26462129046E+03  0.10000000000E+01 0.  0.
<mgrwt>
<rscale>  0 0.12499524E+03</rscale>
<asrwt>0</asrwt>
<pdfrwt beam="1">  1        4 0.54936643E-03 0.12499524E+03</pdfrwt>
<pdfrwt beam="2">  1       -4 0.16828217E+00 0.12499524E+03</pdfrwt>
<totfact> 0.27562322E+03</totfact>
</mgrwt>
</event>
<event>
 4    1  0.3269032E-002  0.1249198E+03  0.7818608E-02  0.1235195E+00
          4   -1    0    0  501    0  0.00000000000E+00  0.00000000000E+00  0.11726806244E+03  0.11727493922E+03  0.12700000000E+01 0.  1.
         -4   -1    0    0    0  501 -0.00000000000E+00 -0.00000000000E+00 -0.33247736832E+02  0.33271983777E+02  0.12700000000E+01 0.  1.
    9000005    1    1    2    0    0 -0.11132221840E+02  0.30690941093E+02 -0.22150608813E+02  0.39465297402E+02  0.10000000000E+01 0.  0.
    9000005    1    1    2    0    0  0.11132221840E+02 -0.30690941093E+02  0.10617093442E+03  0.11108162559E+03  0.10000000000E+01 0.  0.
<mgrwt>
<rscale>  0 0.12491982E+03</rscale>
<asrwt>0</asrwt>
<pdfrwt beam="1">  1        4 0.18043635E-01 0.12491982E+03</pdfrwt>
<pdfrwt beam="2">  1       -4 0.51174305E-02 0.12491982E+03</pdfrwt>
<totfact> 0.99373992E+03</totfact>
</mgrwt>
</event>
<event>
 5    1  0.3269032E-002  0.1249959E+03  0.7818608E-02  0.1235076E+00
          4   -1    0    0  501    0  0.00000000000E+00  0.00000000000E+00  0.37941411011E+03  0.37941623562E+03  0.12700000000E+01 0. -1.
         -4   -1    0    0    0  501 -0.00000000000E+00 -0.00000000000E+00 -0.10253468391E+02  0.10331820462E+02  0.12700000000E+01 0. -1.
         25    2    1    2    0    0  0.00000000000E+00  0.00000000000E+00  0.36916064172E+03  0.38974805608E+03  0.12499587123E+03 0.  0.
    9000005    1    3    3    0    0  0.39995008124E+02  0.28785560425E+02  0.64755551587E+02  0.81378686553E+02  0.10000000000E+01 0.  0.
    9000005    1    3    3    0    0 -0.39995008124E+02 -0.28785560425E+02  0.30440509013E+03  0.30836936953E+03  0.10000000000E+01 0.  0.
<mgrwt>
<rscale>  0 0.12499587E+03</rscale>
<asrwt>0</asrwt>
<pdfrwt beam="1">  1        4 0.58377599E-01 0.12499587E+03</pdfrwt>
<pdfrwt beam="2">  1       -4 0.15836471E-02 0.12499587E+03</pdfrwt>
<totfact> 0.65568218E+03</totfact>
</mgrwt>
</event>
<event>
 5    1  0.3269032E-002  0.1249923E+03  0.7818608E-02  0.1235081E+00
          4   -1    0    0  501    0  0.00000000000E+00  0.00000000000E+00  0.35093903227E+03  0.35094133024E+03  0.12700000000E+01 0. -1.
         -4   -1    0    0    0  501 -0.00000000000E+00 -0.00000000000E+00 -0.11090912661E+02  0.11163388538E+02  0.12700000000E+01 0. -1.
         25    2    1    2    0    0  0.00000000000E+00  0.00000000000E+00  0.33984811961E+03  0.36210471878E+03  0.12499233160E+03 0.  0.
    9000005    1    3    3    0    0 -0.20169542403E+02  0.34627920760E+02  0.30882582856E+03  0.31141659513E+03  0.10000000000E+01 0.  0.
    9000005    1    3    3    0    0  0.20169542403E+02 -0.34627920760E+02  0.31022291045E+02  0.50688123644E+02  0.10000000000E+01 0.  0.
<mgrwt>
<rscale>  0 0.12499233E+03</rscale>
<asrwt>0</asrwt>
<pdfrwt beam="1">  1        4 0.53996376E-01 0.12499233E+03</pdfrwt>
<pdfrwt beam="2">  1       -4 0.17120460E-02 0.12499233E+03</pdfrwt>
<totfact> 0.68424700E+03</totfact>
</mgrwt>
</event>
<event>
 5    1  0.3269032E-002  0.1249981E+03  0.7818608E-02  0.1235072E+00
          4   -1    0    0  501    0  0.00000000000E+00  0.00000000000E+00  0.45185423660E+02  0.45203267706E+02  0.12700000000E+01 0.  1.
         -4   -1    0    0    0  501 -0.00000000000E+00 -0.00000000000E+00 -0.86407160777E+02  0.86416493412E+02  0.12700000000E+01 0.  1.
         25    2    1    2    0    0  0.00000000000E+00  0.00000000000E+00 -0.41221737118E+02  0.13161976112E+03  0.12499811961E+03 0.  0.
    9000005    1    3    3    0    0 -0.60071798435E+02  0.17219383628E+02 -0.20541526842E+02  0.65788163561E+02  0.10000000000E+01 0.  0.
    9000005    1    3    3    0    0  0.60071798435E+02 -0.17219383628E+02 -0.20680210275E+02  0.65831597556E+02  0.10000000000E+01 0.  0.
<mgrwt>
<rscale>  0 0.12499812E+03</rscale>
<asrwt>0</asrwt>
<pdfrwt beam="1">  1        4 0.69536942E-02 0.12499812E+03</pdfrwt>
<pdfrwt beam="2">  1       -4 0.13295500E-01 0.12499812E+03</pdfrwt>
<totfact> 0.10310258E+04</totfact>
</mgrwt>
</event>
<event>
 5    1  0.3269032E-002  0.1249993E+03  0.7818608E-02  0.1235070E+00
          4   -1    0    0  501    0  0.00000000000E+00  0.00000000000E+00  0.29232048262E+01  0.31871658971E+01  0.12700000000E+01 0.  1.
         -4   -1    0    0    0  501 -0.00000000000E+00 -0.00000000000E+00 -0.12782850909E+04  0.12782857218E+04  0.12700000000E+01 0.  1.
         25    2    1    2    0    0  0.00000000000E+00  0.00000000000E+00 -0.12753618861E+04  0.12814728877E+04  0.12499928565E+03 0.  0.
    9000005    1    3    3    0    0  0.16755388759E+02 -0.33199398016E+02 -0.12281162412E+03  0.12832239906E+03  0.10000000000E+01 0.  0.
    9000005    1    3    3    0    0 -0.16755388759E+02  0.33199398016E+02 -0.11525502620E+04  0.11531504886E+04  0.10000000000E+01 0.  0.
<mgrwt>
<rscale>  0 0.12499929E+03</rscale>
<asrwt>0</asrwt>
<pdfrwt beam="1">  1        4 0.47007807E-03 0.12499929E+03</pdfrwt>
<pdfrwt beam="2">  1       -4 0.19667917E+00 0.12499929E+03</pdfrwt>
<totfact> 0.22670476E+03</totfact>
</mgrwt>
</event>
<event>
 5    1  0.3269032E-002  0.1249997E+03  0.7818608E-02  0.1235070E+00
          4   -1    0    0  501    0  0.00000000000E+00  0.00000000000E+00  0.14933077481E+02  0.14986984455E+02  0.12700000000E+01 0. -1.
         -4   -1    0    0    0  501 -0.00000000000E+00 -0.00000000000E+00 -0.26105559606E+03  0.26105868524E+03  0.12700000000E+01 0. -1.
         25    2    1    2    0    0  0.00000000000E+00  0.00000000000E+00 -0.24612251858E+03  0.27604566969E+03  0.12499967040E+03 0.  0.
    9000005    1    3    3    0    0 -0.17088675086E+02  0.24407603350E+02 -0.17520013949E+01  0.29863412839E+02  0.10000000000E+01 0.  0.
    9000005    1    3    3    0    0  0.17088675086E+02 -0.24407603350E+02 -0.24437051719E+03  0.24618225685E+03  0.10000000000E+01 0.  0.
<mgrwt>
<rscale>  0 0.12499967E+03</rscale>
<asrwt>0</asrwt>
<pdfrwt beam="1">  1        4 0.23017811E-02 0.12499967E+03</pdfrwt>
<pdfrwt beam="2">  1       -4 0.40166780E-01 0.12499967E+03</pdfrwt>
<totfact> 0.78705937E+03</totfact>
</mgrwt>
</event>
<event>
 5    1  0.3269032E-002  0.1249892E+03  0.7818608E-02  0.1235086E+00
         -4   -1    0    0    0  501 -0.00000000000E+00  0.00000000000E+00  0.66984731667E+02  0.66996769896E+02  0.12700000000E+01 0. -1.
          4   -1    0    0  501    0  0.00000000000E+00 -0.00000000000E+00 -0.58281270970E+02  0.58295106535E+02  0.12700000000E+01 0. -1.
         25    2    1    2    0    0  0.00000000000E+00  0.00000000000E+00  0.87034606966E+01  0.12529187643E+03  0.12498921582E+03 0.  0.
    9000005    1    3    3    0    0  0.58458879484E+02  0.52820729154E+01  0.25833394526E+02  0.64138172391E+02  0.10000000000E+01 0.  0.
    9000005    1    3    3    0    0 -0.58458879484E+02 -0.52820729154E+01 -0.17129933829E+02  0.61153704040E+02  0.10000000000E+01 0.  0.
<mgrwt>
<rscale>  0 0.12498922E+03</rscale>
<asrwt>0</asrwt>
<pdfrwt beam="2">  1        4 0.89683397E-02 0.12498922E+03</pdfrwt>
<pdfrwt beam="1">  1       -4 0.10307334E-01 0.12498922E+03</pdfrwt>
<totfact> 0.10449073E+04</totfact>
</mgrwt>
</event>
<event>
 5    1  0.3269032E-002  0.1249994E+03  0.7818608E-02  0.1235070E+00
         -4   -1    0    0    0  501 -0.00000000000E+00  0.00000000000E+00  0.60066401405E+03  0.60066535665E+03  0.12700000000E+01 0.  1.
          4   -1    0    0  501    0  0.00000000000E+00 -0.00000000000E+00 -0.64397905142E+01  0.65638252465E+01  0.12700000000E+01 0.  1.
         25    2    1    2    0    0  0.00000000000E+00  0.00000000000E+00  0.59422422354E+03  0.60722918190E+03  0.12499940602E+03 0.  0.
    9000005    1    3    3    0    0  0.50748878864E+02  0.11441125471E+02  0.12891063945E+03  0.13901547044E+03  0.10000000000E+01 0.  0.
    9000005    1    3    3    0    0 -0.50748878864E+02 -0.11441125471E+02  0.46531358409E+03  0.46821371146E+03  0.10000000000E+01 0.  0.
<mgrwt>
<rscale>  0 0.12499941E+03</rscale>
<asrwt>0</asrwt>
<pdfrwt beam="2">  1        4 0.10003811E-02 0.12499941E+03</pdfrwt>
<pdfrwt beam="1">  1       -4 0.92419525E-01 0.12499941E+03</pdfrwt>
<totfact> 0.48415057E+03</totfact>
</mgrwt>
</event>
<event>
 5    1  0.3269032E-002  0.1249891E+03  0.7818608E-02  0.1235086E+00
         -4   -1    0    0    0  501 -0.00000000000E+00  0.00000000000E+00  0.14367606666E+03  0.14368167952E+03  0.12700000000E+01 0.  1.
          4   -1    0    0  501    0  0.00000000000E+00 -0.00000000000E+00 -0.27162176835E+02  0.27191850809E+02  0.12700000000E+01 0.  1.
         25    2    1    2    0    0  0.00000000000E+00  0.00000000000E+00  0.11651388982E+03  0.17087353033E+03  0.12498910691E+03 0.  0.
    9000005    1    3    3    0    0 -0.11592475370E+02  0.17463139595E+02  0.13873327977E+03  0.14031133114E+03  0.10000000000E+01 0.  0.
    9000005    1    3    3    0    0  0.11592475370E+02 -0.17463139595E+02 -0.22219389949E+02  0.30562199192E+02  0.10000000000E+01 0.  0.
<mgrwt>
<rscale>  0 0.12498911E+03</rscale>
<asrwt>0</asrwt>
<pdfrwt beam="2">  1        4 0.41815108E-02 0.12498911E+03</pdfrwt>
<pdfrwt beam="1">  1       -4 0.22106725E-01 0.12498911E+03</pdfrwt>
<totfact> 0.95309371E+03</totfact>
</mgrwt>
</event>
<event>
 5    1  0.3269032E-002  0.1249697E+03  0.7818608E-02  0.1235117E+00
         -4   -1    0    0    0  501 -0.00000000000E+00  0.00000000000E+00  0.22835557263E+02  0.22870845535E+02  0.12700000000E+01 0.  1.
          4   -1    0    0  501    0  0.00000000000E+00 -0.00000000000E+00 -0.17080750903E+03  0.17081223037E+03  0.12700000000E+01 0.  1.
         25    2    1    2    0    0  0.00000000000E+00  0.00000000000E+00 -0.14797195177E+03  0.19368307590E+03  0.12496973785E+03 0.  0.
    9000005    1    3    3    0    0  0.51307576167E+02 -0.34217627868E+02 -0.58484058737E+02  0.84998226778E+02  0.10000000000E+01 0.  0.
    9000005    1    3    3    0    0 -0.51307576167E+02  0.34217627868E+02 -0.89487893034E+02  0.10868484912E+03  0.10000000000E+01 0.  0.
<mgrwt>
<rscale>  0 0.12496974E+03</rscale>
<asrwt>0</asrwt>
<pdfrwt beam="2">  1        4 0.26281155E-01 0.12496974E+03</pdfrwt>
<pdfrwt beam="1">  1       -4 0.35162404E-02 0.12496974E+03</pdfrwt>
<totfact> 0.91272226E+03</totfact>
</mgrwt>
</event>
<event>
 4    1  0.3269032E-002  0.1251221E+03  0.7818608E-02  0.1234879E+00
          4   -1    0    0  501    0  0.00000000000E+00  0.00000000000E+00  0.11904155724E+02  0.11971709297E+02  0.12700000000E+01 0.  1.
         -4   -1    0    0    0  501 -0.00000000000E+00 -0.00000000000E+00 -0.32778403100E+03  0.32778649130E+03  0.12700000000E+01 0.  1.
    9000005    1    1    2    0    0 -0.94903432295E+01 -0.39294400752E+02 -0.28315760049E+02  0.49364955305E+02  0.10000000000E+01 0.  0.
    9000005    1    1    2    0    0  0.94903432295E+01  0.39294400752E+02 -0.28756411523E+03  0.29039324529E+03  0.10000000000E+01 0.  0.
<mgrwt>
<rscale>  0 0.12512210E+03</rscale>
<asrwt>0</asrwt>
<pdfrwt beam="1">  1        4 0.18367945E-02 0.12512210E+03</pdfrwt>
<pdfrwt beam="2">  1       -4 0.50433691E-01 0.12512210E+03</pdfrwt>
<totfact> 0.70674927E+03</totfact>
</mgrwt>
</event>
<event>
 5    1  0.3269032E-002  0.1250017E+03  0.7818608E-02  0.1235067E+00
         -4   -1    0    0    0  501 -0.00000000000E+00  0.00000000000E+00  0.16418176303E+02  0.16467222386E+02  0.12700000000E+01 0. -1.
          4   -1    0    0  501    0  0.00000000000E+00 -0.00000000000E+00 -0.23752311571E+03  0.23752651093E+03  0.12700000000E+01 0. -1.
         25    2    1    2    0    0  0.00000000000E+00  0.00000000000E+00 -0.22110493941E+03  0.25399373332E+03  0.12500168933E+03 0.  0.
    9000005    1    3    3    0    0 -0.27728562042E+02  0.27308319741E+02 -0.20990367061E+03  0.21348341485E+03  0.10000000000E+01 0.  0.
    9000005    1    3    3    0    0  0.27728562042E+02 -0.27308319741E+02 -0.11201268798E+02  0.40510318471E+02  0.10000000000E+01 0.  0.
<mgrwt>
<rscale>  0 0.12500169E+03</rscale>
<asrwt>0</asrwt>
<pdfrwt beam="2">  1        4 0.36546049E-01 0.12500169E+03</pdfrwt>
<pdfrwt beam="1">  1       -4 0.25299074E-02 0.12500169E+03</pdfrwt>
<totfact> 0.81753340E+03</totfact>
</mgrwt>
</event>
<event>
 5    1  0.3269032E-002  0.1249988E+03  0.7818608E-02  0.1235071E+00
         -4   -1    0    0    0  501 -0.00000000000E+00  0.00000000000E+00  0.59075425950E+02  0.59089075566E+02  0.12700000000E+01 0.  1.
          4   -1    0    0  501    0  0.00000000000E+00 -0.00000000000E+00 -0.66094413470E+02  0.66106613829E+02  0.12700000000E+01 0.  1.
         25    2    1    2    0    0  0.00000000000E+00  0.00000000000E+00 -0.70189875196E+01  0.12519568939E+03  0.12499877782E+03 0.  0.
    9000005    1    3    3    0    0  0.46642194467E+01  0.41533578456E+02  0.43022066672E+02  0.59989093202E+02  0.10000000000E+01 0.  0.
    9000005    1    3    3    0    0 -0.46642194467E+01 -0.41533578456E+02 -0.50041054192E+02  0.65206596193E+02  0.10000000000E+01 0.  0.
<mgrwt>
<rscale>  0 0.12499878E+03</rscale>
<asrwt>0</asrwt>
<pdfrwt beam="2">  1        4 0.10170360E-01 0.12499878E+03</pdfrwt>
<pdfrwt beam="1">  1       -4 0.90905155E-02 0.12499878E+03</pdfrwt>
<totfact> 0.10448902E+04</totfact>
</mgrwt>
</event>
<event>
 5    1  0.3269032E-002  0.1249981E+03  0.7818608E-02  0.1235072E+00
          4   -1    0    0  501    0  0.00000000000E+00  0.00000000000E+00  0.94546650520E+01  0.95395802447E+01  0.12700000000E+01 0.  1.
         -4   -1    0    0    0  501 -0.00000000000E+00 -0.00000000000E+00 -0.41121030853E+03  0.41121226969E+03  0.12700000000E+01 0.  1.
         25    2    1    2    0    0  0.00000000000E+00  0.00000000000E+00 -0.40175564348E+03  0.42075184993E+03  0.12499808860E+03 0.  0.
    9000005    1    3    3    0    0 -0.57295827579E+02 -0.68710385920E+01 -0.28160080083E+03  0.28745440344E+03  0.10000000000E+01 0.  0.
    9000005    1    3    3    0    0  0.57295827579E+02  0.68710385920E+01 -0.12015484265E+03  0.13329744649E+03  0.10000000000E+01 0.  0.
<mgrwt>
<rscale>  0 0.12499809E+03</rscale>
<asrwt>0</asrwt>
<pdfrwt beam="1">  1        4 0.14612470E-02 0.12499809E+03</pdfrwt>
<pdfrwt beam="2">  1       -4 0.63269794E-01 0.12499809E+03</pdfrwt>
<totfact> 0.62585965E+03</totfact>
</mgrwt>
</event>
<event>
 5    1  0.3269032E-002  0.1249981E+03  0.7818608E-02  0.1235072E+00
          4   -1    0    0  501    0  0.00000000000E+00  0.00000000000E+00  0.10228816927E+03  0.10229605307E+03  0.12700000000E+01 0. -1.
         -4   -1    0    0    0  501 -0.00000000000E+00 -0.00000000000E+00 -0.38167616999E+02  0.38188740322E+02  0.12700000000E+01 0. -1.
         25    2    1    2    0    0  0.00000000000E+00  0.00000000000E+00  0.64120552273E+02  0.14048479339E+03  0.12499812779E+03 0.  0.
    9000005    1    3    3    0    0 -0.35541004071E+02 -0.31414848507E+02 -0.13662748450E+02  0.49373336654E+02  0.10000000000E+01 0.  0.
    9000005    1    3    3    0    0  0.35541004071E+02  0.31414848507E+02  0.77783300723E+02  0.91111456736E+02  0.10000000000E+01 0.  0.
<mgrwt>
<rscale>  0 0.12499813E+03</rscale>
<asrwt>0</asrwt>
<pdfrwt beam="1">  1        4 0.15738873E-01 0.12499813E+03</pdfrwt>
<pdfrwt beam="2">  1       -4 0.58741724E-02 0.12499813E+03</pdfrwt>
<totfact> 0.10123975E+04</totfact>
</mgrwt>
</event>
<event>
 5    1  0.3269032E-002  0.1250035E+03  0.7818608E-02  0.1235064E+00
          4   -1    0    0  501    0  0.00000000000E+00  0.00000000000E+00  0.58718709683E+02  0.58732442201E+02  0.12700000000E+01 0. -1.
         -4   -1    0    0    0  501 -0.00000000000E+00 -0.00000000000E+00 -0.66500982459E+02  0.66513108242E+02  0.12700000000E+01 0. -1.
         25    2    1    2    0    0  0.00000000000E+00  0.00000000000E+00 -0.77822727760E+01  0.12524555044E+03  0.12500353650E+03 0.  0.
    9000005    1    3    3    0    0  0.13518283471E+01 -0.42950617311E+02  0.41571683945E+02  0.59797891880E+02  0.10000000000E+01 0.  0.
    9000005    1    3    3    0    0 -0.13518283471E+01  0.42950617311E+02 -0.49353956721E+02  0.65447658563E+02  0.10000000000E+01 0.  0.
<mgrwt>
<rscale>  0 0.12500354E+03</rscale>
<asrwt>0</asrwt>
<pdfrwt beam="1">  1        4 0.90356368E-02 0.12500354E+03</pdfrwt>
<pdfrwt beam="2">  1       -4 0.10232909E-01 0.12500354E+03</pdfrwt>
<totfact> 0.10446697E+04</totfact>
</mgrwt>
</event>
<event>
 5    1  0.3269032E-002  0.1250029E+03  0.7818608E-02  0.1235065E+00
         -4   -1    0    0    0  501 -0.00000000000E+00  0.00000000000E+00  0.56370590677E+02  0.56384895081E+02  0.12700000000E+01 0. -1.
          4   -1    0    0  501    0  0.00000000000E+00 -0.00000000000E+00 -0.69270238267E+02  0.69281879374E+02  0.12700000000E+01 0. -1.
         25    2    1    2    0    0  0.00000000000E+00  0.00000000000E+00 -0.12899647590E+02  0.12566677445E+03  0.12500294914E+03 0.  0.
    9000005    1    3    3    0    0 -0.17649102018E+02 -0.60006694268E+01 -0.66415017837E+02  0.68988792060E+02  0.10000000000E+01 0.  0.
    9000005    1    3    3    0    0  0.17649102018E+02  0.60006694268E+01  0.53515370248E+02  0.56677982395E+02  0.10000000000E+01 0.  0.
<mgrwt>
<rscale>  0 0.12500295E+03</rscale>
<asrwt>0</asrwt>
<pdfrwt beam="2">  1        4 0.10658956E-01 0.12500295E+03</pdfrwt>
<pdfrwt beam="1">  1       -4 0.86743944E-02 0.12500295E+03</pdfrwt>
<totfact> 0.10437581E+04</totfact>
</mgrwt>
</event>
<event>
 5    1  0.3269032E-002  0.1249952E+03  0.7818608E-02  0.1235077E+00
         -4   -1    0    0    0  501 -0.00000000000E+00  0.00000000000E+00  0.40013673677E+03  0.40013875220E+03  0.12700000000E+01 0. -1.
          4   -1    0    0  501    0  0.00000000000E+00 -0.00000000000E+00 -0.97181877164E+01  0.98008199907E+01  0.12700000000E+01 0. -1.
         25    2    1    2    0    0  0.00000000000E+00  0.00000000000E+00  0.39041854905E+03  0.40993957219E+03  0.12499523752E+03 0.  0.
    9000005    1    3    3    0    0  0.14001136457E+02 -0.60618052913E+02  0.17598145762E+03  0.18665758379E+03  0.10000000000E+01 0.  0.
    9000005    1    3    3    0    0 -0.14001136457E+02  0.60618052913E+02  0.21443709143E+03  0.22328198840E+03  0.10000000000E+01 0.  0.
<mgrwt>
<rscale>  0 0.12499524E+03</rscale>
<asrwt>0</asrwt>
<pdfrwt beam="2">  1        4 0.15016174E-02 0.12499524E+03</pdfrwt>
<pdfrwt beam="1">  1       -4 0.61565999E-01 0.12499524E+03</pdfrwt>
<totfact> 0.63604113E+03</totfact>
</mgrwt>
</event>
<event>
 5    1  0.3269032E-002  0.1249969E+03  0.7818608E-02  0.1235074E+00
          4   -1    0    0  501    0  0.00000000000E+00  0.00000000000E+00  0.91469550738E+02  0.91478366908E+02  0.12700000000E+01 0. -1.
         -4   -1    0    0    0  501 -0.00000000000E+00 -0.00000000000E+00 -0.42683008824E+02  0.42701898579E+02  0.12700000000E+01 0. -1.
         25    2    1    2    0    0  0.00000000000E+00  0.00000000000E+00  0.48786541914E+02  0.13418026549E+03  0.12499686786E+03 0.  0.
    9000005    1    3    3    0    0 -0.47010697372E+02  0.22706777228E+02  0.61259561284E+02  0.80494330535E+02  0.10000000000E+01 0.  0.
    9000005    1    3    3    0    0  0.47010697372E+02 -0.22706777228E+02 -0.12473019370E+02  0.53685934953E+02  0.10000000000E+01 0.  0.
<mgrwt>
<rscale>  0 0.12499687E+03</rscale>
<asrwt>0</asrwt>
<pdfrwt beam="1">  1        4 0.14074370E-01 0.12499687E+03</pdfrwt>
<pdfrwt beam="2">  1       -4 0.65687481E-02 0.12499687E+03</pdfrwt>
<totfact> 0.10256102E+04</totfact>
</mgrwt>
</event>
<event>
 5    1  0.3269032E-002  0.1250025E+03  0.7818608E-02  0.1235065E+00
         -4   -1    0    0    0  501 -0.00000000000E+00  0.00000000000E+00  0.20071317584E+01  0.23751795502E+01  0.12700000000E+01 0. -1.
          4   -1    0    0  501    0  0.00000000000E+00 -0.00000000000E+00 -0.17824381389E+04  0.17824385914E+04  0.12700000000E+01 0. -1.
         25    2    1    2    0    0  0.00000000000E+00  0.00000000000E+00 -0.17804310072E+04  0.17848137709E+04  0.12500250228E+03 0.  0.
    9000005    1    3    3    0    0 -0.34333555393E+02  0.37686854599E+02 -0.37415805410E+03  0.37761665944E+03  0.10000000000E+01 0.  0.
    9000005    1    3    3    0    0  0.34333555393E+02 -0.37686854599E+02 -0.14062729531E+04  0.14071971115E+04  0.10000000000E+01 0.  0.
<mgrwt>
<rscale>  0 0.12500250E+03</rscale>
<asrwt>0</asrwt>
<pdfrwt beam="2">  1        4 0.27424844E+00 0.12500250E+03</pdfrwt>
<pdfrwt beam="1">  1       -4 0.33713710E-03 0.12500250E+03</pdfrwt>
<totfact> 0.12938319E+03</totfact>
</mgrwt>
</event>
<event>
 5    1  0.3269032E-002  0.1249935E+03  0.7818608E-02  0.1235079E+00
         -4   -1    0    0    0  501 -0.00000000000E+00  0.00000000000E+00  0.37458551204E+03  0.37458766495E+03  0.12700000000E+01 0.  1.
          4   -1    0    0  501    0  0.00000000000E+00 -0.00000000000E+00 -0.10386248384E+02  0.10463606237E+02  0.12700000000E+01 0.  1.
         25    2    1    2    0    0  0.00000000000E+00  0.00000000000E+00  0.36419926365E+03  0.38505127118E+03  0.12499351100E+03 0.  0.
    9000005    1    3    3    0    0 -0.27939243424E+02  0.46117506855E+02  0.27938999943E+03  0.28454735554E+03  0.10000000000E+01 0.  0.
    9000005    1    3    3    0    0  0.27939243424E+02 -0.46117506855E+02  0.84809264225E+02  0.10050391565E+03  0.10000000000E+01 0.  0.
<mgrwt>
<rscale>  0 0.12499351E+03</rscale>
<asrwt>0</asrwt>
<pdfrwt beam="2">  1        4 0.16040004E-02 0.12499351E+03</pdfrwt>
<pdfrwt beam="1">  1       -4 0.57634663E-01 0.12499351E+03</pdfrwt>
<totfact> 0.66042585E+03</totfact>
</mgrwt>
</event>
<event>
 5    1  0.3269032E-002  0.1249889E+03  0.7818608E-02  0.1235087E+00
         -4   -1    0    0    0  501 -0.00000000000E+00  0.00000000000E+00  0.11910366128E+02  0.11977884676E+02  0.12700000000E+01 0. -1.
          4   -1    0    0  501    0  0.00000000000E+00 -0.00000000000E+00 -0.32691654694E+03  0.32691901377E+03  0.12700000000E+01 0. -1.
         25    2    1    2    0    0  0.00000000000E+00  0.00000000000E+00 -0.31500618081E+03  0.33889689844E+03  0.12498885480E+03 0.  0.
    9000005    1    3    3    0    0 -0.58320095092E+02 -0.76643648074E+01 -0.21467333282E+03  0.22258844490E+03  0.10000000000E+01 0.  0.
    9000005    1    3    3    0    0  0.58320095092E+02  0.76643648074E+01 -0.10033284799E+03  0.11630845354E+03  0.10000000000E+01 0.  0.
<mgrwt>
<rscale>  0 0.12498885E+03</rscale>
<asrwt>0</asrwt>
<pdfrwt beam="2">  1        4 0.50300230E-01 0.12498885E+03</pdfrwt>
<pdfrwt beam="1">  1       -4 0.18377478E-02 0.12498885E+03</pdfrwt>
<totfact> 0.70981075E+03</totfact>
</mgrwt>
</event>
<event>
 5    1  0.3269032E-002  0.1249992E+03  0.7818608E-02  0.1235071E+00
         -4   -1    0    0    0  501 -0.00000000000E+00  0.00000000000E+00  0.35574018687E+02  0.35596681103E+02  0.12700000000E+01 0. -1.
          4   -1    0    0  501    0  0.00000000000E+00 -0.00000000000E+00 -0.10974351289E+03  0.10975086114E+03  0.12700000000E+01 0. -1.
         25    2    1    2    0    0  0.00000000000E+00  0.00000000000E+00 -0.74169494203E+02  0.14534754224E+03  0.12499917666E+03 0.  0.
    9000005    1    3    3    0    0 -0.14836100956E+02  0.46479723903E+02  0.83194652582E+01  0.49504425336E+02  0.10000000000E+01 0.  0.
    9000005    1    3    3    0    0  0.14836100956E+02 -0.46479723903E+02 -0.82488959462E+02  0.95843116908E+02  0.10000000000E+01 0.  0.
<mgrwt>
<rscale>  0 0.12499918E+03</rscale>
<asrwt>0</asrwt>
<pdfrwt beam="2">  1        4 0.16885926E-01 0.12499918E+03</pdfrwt>
<pdfrwt beam="1">  1       -4 0.54752345E-02 0.12499918E+03</pdfrwt>
<totfact> 0.10024118E+04</totfact>
</mgrwt>
</event>
<event>
 5    1  0.3269032E-002  0.1249993E+03  0.7818608E-02  0.1235070E+00
         -4   -1    0    0    0  501 -0.00000000000E+00  0.00000000000E+00  0.10592746474E+02  0.10668607119E+02  0.12700000000E+01 0.  1.
          4   -1    0    0  501    0  0.00000000000E+00 -0.00000000000E+00 -0.36736992457E+03  0.36737211977E+03  0.12700000000E+01 0.  1.
         25    2    1    2    0    0  0.00000000000E+00  0.00000000000E+00 -0.35677717810E+03  0.37804072689E+03  0.12499934548E+03 0.  0.
    9000005    1    3    3    0    0  0.61002175090E+02  0.12106381985E+02 -0.15989819797E+03  0.17156999611E+03  0.10000000000E+01 0.  0.
    9000005    1    3    3    0    0 -0.61002175090E+02 -0.12106381985E+02 -0.19687898013E+03  0.20647073078E+03  0.10000000000E+01 0.  0.
<mgrwt>
<rscale>  0 0.12499935E+03</rscale>
<asrwt>0</asrwt>
<pdfrwt beam="2">  1        4 0.56524444E-01 0.12499935E+03</pdfrwt>
<pdfrwt beam="1">  1       -4 0.16356579E-02 0.12499935E+03</pdfrwt>
<totfact> 0.66747003E+03</totfact>
</mgrwt>
</event>
<event>
 5    1  0.3269032E-002  0.1250002E+03  0.7818608E-02  0.1235069E+00
          4   -1    0    0  501    0  0.00000000000E+00  0.00000000000E+00  0.43213164475E+02  0.43231822584E+02  0.12700000000E+01 0. -1.
         -4   -1    0    0    0  501 -0.00000000000E+00 -0.00000000000E+00 -0.90352520575E+02  0.90361445729E+02  0.12700000000E+01 0. -1.
         25    2    1    2    0    0  0.00000000000E+00  0.00000000000E+00 -0.47139356100E+02  0.13359326831E+03  0.12500016978E+03 0.  0.
    9000005    1    3    3    0    0  0.51071522532E+02  0.12236392206E+02  0.12629556774E+02  0.54023470939E+02  0.10000000000E+01 0.  0.
    9000005    1    3    3    0    0 -0.51071522532E+02 -0.12236392206E+02 -0.59768912874E+02  0.79569797374E+02  0.10000000000E+01 0.  0.
<mgrwt>
<rscale>  0 0.12500017E+03</rscale>
<asrwt>0</asrwt>
<pdfrwt beam="1">  1        4 0.66503010E-02 0.12500017E+03</pdfrwt>
<pdfrwt beam="2">  1       -4 0.13902510E-01 0.12500017E+03</pdfrwt>
<totfact> 0.10267768E+04</totfact>
</mgrwt>
</event>
<event>
 5    1  0.3269032E-002  0.1250040E+03  0.7818608E-02  0.1235063E+00
         -4   -1    0    0    0  501 -0.00000000000E+00  0.00000000000E+00  0.83223472245E+03  0.83223569147E+03  0.12700000000E+01 0.  1.
          4   -1    0    0  501    0  0.00000000000E+00 -0.00000000000E+00 -0.46070961447E+01  0.47789365853E+01  0.12700000000E+01 0.  1.
         25    2    1    2    0    0  0.00000000000E+00  0.00000000000E+00  0.82762762630E+03  0.83701462805E+03  0.12500399894E+03 0.  0.
    9000005    1    3    3    0    0  0.14870157757E+02  0.24302657520E+02  0.41377178089E+02  0.50247503628E+02  0.10000000000E+01 0.  0.
    9000005    1    3    3    0    0 -0.14870157757E+02 -0.24302657520E+02  0.78625044822E+03  0.78676712442E+03  0.10000000000E+01 0.  0.
<mgrwt>
<rscale>  0 0.12500400E+03</rscale>
<asrwt>0</asrwt>
<pdfrwt beam="2">  1        4 0.72207823E-03 0.12500400E+03</pdfrwt>
<pdfrwt beam="1">  1       -4 0.12804920E+00 0.12500400E+03</pdfrwt>
<totfact> 0.36661523E+03</totfact>
</mgrwt>
</event>
<event>
 5    1  0.3269032E-002  0.1249717E+03  0.7818608E-02  0.1235114E+00
         -4   -1    0    0    0  501 -0.00000000000E+00  0.00000000000E+00  0.19888933446E+02  0.19929439872E+02  0.12700000000E+01 0. -1.
          4   -1    0    0  501    0  0.00000000000E+00 -0.00000000000E+00 -0.19607198881E+03  0.19607610179E+03  0.12700000000E+01 0. -1.
         25    2    1    2    0    0  0.00000000000E+00  0.00000000000E+00 -0.17618305536E+03  0.21600554167E+03  0.12497169693E+03 0.  0.
    9000005    1    3    3    0    0  0.16745588591E+02 -0.47478040457E+02 -0.15204136386E+03  0.16016290266E+03  0.10000000000E+01 0.  0.
    9000005    1    3    3    0    0 -0.16745588591E+02  0.47478040457E+02 -0.24141691498E+02  0.55842639007E+02  0.10000000000E+01 0.  0.
<mgrwt>
<rscale>  0 0.12497170E+03</rscale>
<asrwt>0</asrwt>
<pdfrwt beam="2">  1        4 0.30168352E-01 0.12497170E+03</pdfrwt>
<pdfrwt beam="1">  1       -4 0.30632683E-02 0.12497170E+03</pdfrwt>
<totfact> 0.87559757E+03</totfact>
</mgrwt>
</event>
<event>
 5    1  0.3269032E-002  0.1250002E+03  0.7818608E-02  0.1235069E+00
         -4   -1    0    0    0  501 -0.00000000000E+00  0.00000000000E+00  0.14929915416E+02  0.14983833766E+02  0.12700000000E+01 0. -1.
          4   -1    0    0  501    0  0.00000000000E+00 -0.00000000000E+00 -0.26111302113E+03  0.26111610962E+03  0.12700000000E+01 0. -1.
         25    2    1    2    0    0  0.00000000000E+00  0.00000000000E+00 -0.24618310571E+03  0.27609994339E+03  0.12500022880E+03 0.  0.
    9000005    1    3    3    0    0  0.49560384418E+02  0.14263174396E+02 -0.20104652888E+03  0.20755812830E+03  0.10000000000E+01 0.  0.
    9000005    1    3    3    0    0 -0.49560384418E+02 -0.14263174396E+02 -0.45136576833E+02  0.68541815089E+02  0.10000000000E+01 0.  0.
<mgrwt>
<rscale>  0 0.12500023E+03</rscale>
<asrwt>0</asrwt>
<pdfrwt beam="2">  1        4 0.40175616E-01 0.12500023E+03</pdfrwt>
<pdfrwt beam="1">  1       -4 0.23012954E-02 0.12500023E+03</pdfrwt>
<totfact> 0.78697683E+03</totfact>
</mgrwt>
</event>
<event>
 5    1  0.3269032E-002  0.1250026E+03  0.7818608E-02  0.1235065E+00
         -4   -1    0    0    0  501 -0.00000000000E+00  0.00000000000E+00  0.17117093648E+02  0.17164142709E+02  0.12700000000E+01 0.  1.
          4   -1    0    0  501    0  0.00000000000E+00 -0.00000000000E+00 -0.22785514731E+03  0.22785868659E+03  0.12700000000E+01 0.  1.
         25    2    1    2    0    0  0.00000000000E+00  0.00000000000E+00 -0.21073805366E+03  0.24502282930E+03  0.12500263844E+03 0.  0.
    9000005    1    3    3    0    0  0.48318588007E+01 -0.57781318503E+02 -0.59676823224E+02  0.83212684475E+02  0.10000000000E+01 0.  0.
    9000005    1    3    3    0    0 -0.48318588007E+01  0.57781318503E+02 -0.15106123044E+03  0.16181014483E+03  0.10000000000E+01 0.  0.
<mgrwt>
<rscale>  0 0.12500264E+03</rscale>
<asrwt>0</asrwt>
<pdfrwt beam="2">  1        4 0.35058527E-01 0.12500264E+03</pdfrwt>
<pdfrwt beam="1">  1       -4 0.26372906E-02 0.12500264E+03</pdfrwt>
<totfact> 0.83050065E+03</totfact>
</mgrwt>
</event>
<event>
 5    1  0.3269032E-002  0.1250022E+03  0.7818608E-02  0.1235066E+00
          4   -1    0    0  501    0  0.00000000000E+00  0.00000000000E+00  0.51548212037E+03  0.51548368483E+03  0.12700000000E+01 0. -1.
         -4   -1    0    0    0  501 -0.00000000000E+00 -0.00000000000E+00 -0.75233241339E+01  0.76297644802E+01  0.12700000000E+01 0. -1.
         25    2    1    2    0    0  0.00000000000E+00  0.00000000000E+00  0.50795879624E+03  0.52311344931E+03  0.12500216866E+03 0.  0.
    9000005    1    3    3    0    0  0.59133274190E+02  0.78428679882E+01  0.33194893289E+03  0.33726747359E+03  0.10000000000E+01 0.  0.
    9000005    1    3    3    0    0 -0.59133274190E+02 -0.78428679882E+01  0.17600986335E+03  0.18584597572E+03  0.10000000000E+01 0.  0.
<mgrwt>
<rscale>  0 0.12500217E+03</rscale>
<asrwt>0</asrwt>
<pdfrwt beam="1">  1        4 0.79313249E-01 0.12500217E+03</pdfrwt>
<pdfrwt beam="2">  1       -4 0.11657425E-02 0.12500217E+03</pdfrwt>
<totfact> 0.54112028E+03</totfact>
</mgrwt>
</event>
<event>
 5    1  0.3269032E-002  0.1249980E+03  0.7818608E-02  0.1235072E+00
          4   -1    0    0  501    0  0.00000000000E+00  0.00000000000E+00  0.12647434113E+02  0.12711038103E+02  0.12700000000E+01 0. -1.
         -4   -1    0    0    0  501 -0.00000000000E+00 -0.00000000000E+00 -0.30800772525E+03  0.30801034351E+03  0.12700000000E+01 0. -1.
         25    2    1    2    0    0  0.00000000000E+00  0.00000000000E+00 -0.29536029113E+03  0.32072138162E+03  0.12499801218E+03 0.  0.
    9000005    1    3    3    0    0  0.32859812632E+02 -0.42013444371E+02 -0.64134341998E+02  0.83421283961E+02  0.10000000000E+01 0.  0.
    9000005    1    3    3    0    0 -0.32859812632E+02  0.42013444371E+02 -0.23122594914E+03  0.23730009766E+03  0.10000000000E+01 0.  0.
<mgrwt>
<rscale>  0 0.12499801E+03</rscale>
<asrwt>0</asrwt>
<pdfrwt beam="1">  1        4 0.19508533E-02 0.12499801E+03</pdfrwt>
<pdfrwt beam="2">  1       -4 0.47390892E-01 0.12499801E+03</pdfrwt>
<totfact> 0.73073630E+03</totfact>
</mgrwt>
</event>
<event>
 5    1  0.3269032E-002  0.1249997E+03  0.7818608E-02  0.1235070E+00
          4   -1    0    0  501    0  0.00000000000E+00  0.00000000000E+00  0.10625882022E+02  0.10701507779E+02  0.12700000000E+01 0. -1.
         -4   -1    0    0    0  501 -0.00000000000E+00 -0.00000000000E+00 -0.36623429526E+03  0.36623649726E+03  0.12700000000E+01 0. -1.
         25    2    1    2    0    0  0.00000000000E+00  0.00000000000E+00 -0.35560841324E+03  0.37693800504E+03  0.12499966431E+03 0.  0.
    9000005    1    3    3    0    0  0.38452119126E+02  0.44498642947E+02 -0.11408233729E+03  0.12835292895E+03  0.10000000000E+01 0.  0.
    9000005    1    3    3    0    0 -0.38452119126E+02 -0.44498642947E+02 -0.24152607595E+03  0.24858507609E+03  0.10000000000E+01 0.  0.
<mgrwt>
<rscale>  0 0.12499966E+03</rscale>
<asrwt>0</asrwt>
<pdfrwt beam="1">  1        4 0.16407381E-02 0.12499966E+03</pdfrwt>
<pdfrwt beam="2">  1       -4 0.56349715E-01 0.12499966E+03</pdfrwt>
<totfact> 0.66859785E+03</totfact>
</mgrwt>
</event>
<event>
 5    1  0.3269032E-002  0.1250011E+03  0.7818608E-02  0.1235068E+00
         -4   -1    0    0    0  501 -0.00000000000E+00  0.00000000000E+00  0.79323812256E+02  0.79333978161E+02  0.12700000000E+01 0. -1.
          4   -1    0    0  501    0  0.00000000000E+00 -0.00000000000E+00 -0.49223684106E+02  0.49240064753E+02  0.12700000000E+01 0. -1.
         25    2    1    2    0    0  0.00000000000E+00  0.00000000000E+00  0.30100128151E+02  0.12857404291E+03  0.12500106718E+03 0.  0.
    9000005    1    3    3    0    0 -0.59743609546E+02 -0.18224932965E+02  0.17073430967E+02  0.64760706513E+02  0.10000000000E+01 0.  0.
    9000005    1    3    3    0    0  0.59743609546E+02  0.18224932965E+02  0.13026697184E+02  0.63813336401E+02  0.10000000000E+01 0.  0.
<mgrwt>
<rscale>  0 0.12500107E+03</rscale>
<asrwt>0</asrwt>
<pdfrwt beam="2">  1        4 0.75749166E-02 0.12500107E+03</pdfrwt>
<pdfrwt beam="1">  1       -4 0.12205705E-01 0.12500107E+03</pdfrwt>
<totfact> 0.10374859E+04</totfact>
</mgrwt>
</event>
<event>
 5    1  0.3269032E-002  0.1249987E+03  0.7818608E-02  0.1235071E+00
          4   -1    0    0  501    0  0.00000000000E+00  0.00000000000E+00  0.64940535941E+01  0.66170712617E+01  0.12700000000E+01 0.  1.
         -4   -1    0    0    0  501 -0.00000000000E+00 -0.00000000000E+00 -0.59573209388E+03  0.59573344759E+03  0.12700000000E+01 0.  1.
         25    2    1    2    0    0  0.00000000000E+00  0.00000000000E+00 -0.58923804029E+03  0.60235051885E+03  0.12499871776E+03 0.  0.
    9000005    1    3    3    0    0  0.49826687309E+02  0.31230947549E+02 -0.19272573053E+03  0.20150006963E+03  0.10000000000E+01 0.  0.
    9000005    1    3    3    0    0 -0.49826687309E+02 -0.31230947549E+02 -0.39651230976E+03  0.40085044922E+03  0.10000000000E+01 0.  0.
<mgrwt>
<rscale>  0 0.12499872E+03</rscale>
<asrwt>0</asrwt>
<pdfrwt beam="1">  1        4 0.10086527E-02 0.12499872E+03</pdfrwt>
<pdfrwt beam="2">  1       -4 0.91660616E-01 0.12499872E+03</pdfrwt>
<totfact> 0.48720961E+03</totfact>
</mgrwt>
</event>
<event>
 5    1  0.3269032E-002  0.1250000E+03  0.7818608E-02  0.1235069E+00
         -4   -1    0    0    0  501 -0.00000000000E+00  0.00000000000E+00  0.62545701446E+02  0.62558593889E+02  0.12700000000E+01 0.  1.
          4   -1    0    0  501    0  0.00000000000E+00 -0.00000000000E+00 -0.62428583766E+02  0.62441500390E+02  0.12700000000E+01 0.  1.
         25    2    1    2    0    0  0.00000000000E+00  0.00000000000E+00  0.11711767982E+00  0.12500009428E+03  0.12500003941E+03 0.  0.
    9000005    1    3    3    0    0  0.26480090673E+02 -0.39609559767E+02  0.40495441407E+02  0.62537934102E+02  0.10000000000E+01 0.  0.
    9000005    1    3    3    0    0 -0.26480090673E+02  0.39609559767E+02 -0.40378323727E+02  0.62462160177E+02  0.10000000000E+01 0.  0.
<mgrwt>
<rscale>  0 0.12500004E+03</rscale>
<asrwt>0</asrwt>
<pdfrwt beam="2">  1        4 0.96063828E-02 0.12500004E+03</pdfrwt>
<pdfrwt beam="1">  1       -4 0.96244009E-02 0.12500004E+03</pdfrwt>
<totfact> 0.10452851E+04</totfact>
</mgrwt>
</event>
<event>
 5    1  0.3269032E-002  0.1250004E+03  0.7818608E-02  0.1235069E+00
          4   -1    0    0  501    0  0.00000000000E+00  0.00000000000E+00  0.52816903366E+02  0.52832169946E+02  0.12700000000E+01 0. -1.
         -4   -1    0    0    0  501 -0.00000000000E+00 -0.00000000000E+00 -0.73927364391E+02  0.73938272267E+02  0.12700000000E+01 0. -1.
         25    2    1    2    0    0  0.00000000000E+00  0.00000000000E+00 -0.21110461024E+02  0.12677044221E+03  0.12500037382E+03 0.  0.
    9000005    1    3    3    0    0  0.46297097401E+02  0.39944775195E+02  0.25218204395E+01  0.61207563842E+02  0.10000000000E+01 0.  0.
    9000005    1    3    3    0    0 -0.46297097401E+02 -0.39944775195E+02 -0.23632281464E+02  0.65562878371E+02  0.10000000000E+01 0.  0.
<mgrwt>
<rscale>  0 0.12500037E+03</rscale>
<asrwt>0</asrwt>
<pdfrwt beam="1">  1        4 0.81276909E-02 0.12500037E+03</pdfrwt>
<pdfrwt beam="2">  1       -4 0.11375454E-01 0.12500037E+03</pdfrwt>
<totfact> 0.10414049E+04</totfact>
</mgrwt>
</event>
<event>
 5    1  0.3269032E-002  0.1250005E+03  0.7818608E-02  0.1235068E+00
          4   -1    0    0  501    0  0.00000000000E+00  0.00000000000E+00  0.31214147874E+02  0.31239973232E+02  0.12700000000E+01 0.  1.
         -4   -1    0    0    0  501 -0.00000000000E+00 -0.00000000000E+00 -0.12506379300E+03  0.12507024114E+03  0.12700000000E+01 0.  1.
         25    2    1    2    0    0  0.00000000000E+00  0.00000000000E+00 -0.93849645122E+02  0.15631021437E+03  0.12500050891E+03 0.  0.
    9000005    1    3    3    0    0  0.30671880385E+02 -0.45058620132E+02 -0.87036141032E+01  0.55206850961E+02  0.10000000000E+01 0.  0.
    9000005    1    3    3    0    0 -0.30671880385E+02  0.45058620132E+02 -0.85146031019E+02  0.10110336341E+03  0.10000000000E+01 0.  0.
<mgrwt>
<rscale>  0 0.12500051E+03</rscale>
<asrwt>0</asrwt>
<pdfrwt beam="1">  1        4 0.48046592E-02 0.12500051E+03</pdfrwt>
<pdfrwt beam="2">  1       -4 0.19243066E-01 0.12500051E+03</pdfrwt>
<totfact> 0.98057778E+03</totfact>
</mgrwt>
</event>
<event>
 5    1  0.3269032E-002  0.1250002E+03  0.7818608E-02  0.1235069E+00
          4   -1    0    0  501    0  0.00000000000E+00  0.00000000000E+00  0.12869882137E+03  0.12870508740E+03  0.12700000000E+01 0. -1.
         -4   -1    0    0    0  501 -0.00000000000E+00 -0.00000000000E+00 -0.30331687417E+02  0.30358263481E+02  0.12700000000E+01 0. -1.
         25    2    1    2    0    0  0.00000000000E+00  0.00000000000E+00  0.98367133952E+02  0.15906335088E+03  0.12500022620E+03 0.  0.
    9000005    1    3    3    0    0 -0.23683750627E+02 -0.50129209385E+01 -0.24128759587E+02  0.34194245997E+02  0.10000000000E+01 0.  0.
    9000005    1    3    3    0    0  0.23683750627E+02  0.50129209385E+01  0.12249589354E+03  0.12486910488E+03  0.10000000000E+01 0.  0.
<mgrwt>
<rscale>  0 0.12500023E+03</rscale>
<asrwt>0</asrwt>
<pdfrwt beam="1">  1        4 0.19802345E-01 0.12500023E+03</pdfrwt>
<pdfrwt beam="2">  1       -4 0.46689398E-02 0.12500023E+03</pdfrwt>
<totfact> 0.97523172E+03</totfact>
</mgrwt>
</event>
<event>
 5    1  0.3269032E-002  0.1250004E+03  0.7818608E-02  0.1235069E+00
         -4   -1    0    0    0  501 -0.00000000000E+00  0.00000000000E+00  0.36315087323E+03  0.36315309393E+03  0.12700000000E+01 0. -1.
          4   -1    0    0  501    0  0.00000000000E+00 -0.00000000000E+00 -0.10716871649E+02  0.10791859800E+02  0.12700000000E+01 0. -1.
         25    2    1    2    0    0  0.00000000000E+00  0.00000000000E+00  0.35243400158E+03  0.37394495373E+03  0.12500041179E+03 0.  0.
    9000005    1    3    3    0    0 -0.46627720446E+02 -0.37809279564E+02  0.22816927445E+03  0.23593622812E+03  0.10000000000E+01 0.  0.
    9000005    1    3    3    0    0  0.46627720446E+02  0.37809279564E+02  0.12426472713E+03  0.13800872561E+03  0.10000000000E+01 0.  0.
<mgrwt>
<rscale>  0 0.12500041E+03</rscale>
<asrwt>0</asrwt>
<pdfrwt beam="2">  1        4 0.16546888E-02 0.12500041E+03</pdfrwt>
<pdfrwt beam="1">  1       -4 0.55875299E-01 0.12500041E+03</pdfrwt>
<totfact> 0.67167621E+03</totfact>
</mgrwt>
</event>
<event>
 5    1  0.3269032E-002  0.1250006E+03  0.7818608E-02  0.1235068E+00
         -4   -1    0    0    0  501 -0.00000000000E+00  0.00000000000E+00  0.75449322539E+02  0.75460010414E+02  0.12700000000E+01 0.  1.
          4   -1    0    0  501    0  0.00000000000E+00 -0.00000000000E+00 -0.51751490546E+02  0.51767071327E+02  0.12700000000E+01 0.  1.
         25    2    1    2    0    0  0.00000000000E+00  0.00000000000E+00  0.23697831993E+02  0.12722708174E+03  0.12500057235E+03 0.  0.
    9000005    1    3    3    0    0 -0.41605119089E+02  0.43600802983E+02  0.28674238476E+02  0.66747493641E+02  0.10000000000E+01 0.  0.
    9000005    1    3    3    0    0  0.41605119089E+02 -0.43600802983E+02 -0.49764064833E+01  0.60479588100E+02  0.10000000000E+01 0.  0.
<mgrwt>
<rscale>  0 0.12500057E+03</rscale>
<asrwt>0</asrwt>
<pdfrwt beam="2">  1        4 0.79637884E-02 0.12500057E+03</pdfrwt>
<pdfrwt beam="1">  1       -4 0.11609609E-01 0.12500057E+03</pdfrwt>
<totfact> 0.10404081E+04</totfact>
</mgrwt>
</event>
<event>
 5    1  0.3269032E-002  0.1249827E+03  0.7818608E-02  0.1235096E+00
          4   -1    0    0  501    0  0.00000000000E+00  0.00000000000E+00  0.24795979357E+02  0.24828481474E+02  0.12700000000E+01 0. -1.
         -4   -1    0    0    0  501 -0.00000000000E+00 -0.00000000000E+00 -0.15735381163E+03  0.15735893662E+03  0.12700000000E+01 0. -1.
         25    2    1    2    0    0  0.00000000000E+00  0.00000000000E+00 -0.13255783227E+03  0.18218741809E+03  0.12498270446E+03 0.  0.
    9000005    1    3    3    0    0  0.88004239601E+01 -0.61793090585E+02 -0.62070323997E+02  0.88031577443E+02  0.10000000000E+01 0.  0.
    9000005    1    3    3    0    0 -0.88004239601E+01  0.61793090585E+02 -0.70487508274E+02  0.94155840650E+02  0.10000000000E+01 0.  0.
<mgrwt>
<rscale>  0 0.12498270E+03</rscale>
<asrwt>0</asrwt>
<pdfrwt beam="1">  1        4 0.38176606E-02 0.12498270E+03</pdfrwt>
<pdfrwt beam="2">  1       -4 0.24211172E-01 0.12498270E+03</pdfrwt>
<totfact> 0.93260890E+03</totfact>
</mgrwt>
</event>
<event>
 5    1  0.3269032E-002  0.1250017E+03  0.7818608E-02  0.1235067E+00
          4   -1    0    0  501    0  0.00000000000E+00  0.00000000000E+00  0.45078953437E+03  0.45079132333E+03  0.12700000000E+01 0.  1.
         -4   -1    0    0    0  501 -0.00000000000E+00 -0.00000000000E+00 -0.86172459443E+01  0.87103287920E+01  0.12700000000E+01 0.  1.
         25    2    1    2    0    0  0.00000000000E+00  0.00000000000E+00  0.44217228842E+03  0.45950165213E+03  0.12500174262E+03 0.  0.
    9000005    1    3    3    0    0  0.15701161692E+02 -0.60473463267E+02  0.22600792200E+03  0.23448698695E+03  0.10000000000E+01 0.  0.
    9000005    1    3    3    0    0 -0.15701161692E+02  0.60473463267E+02  0.21616436642E+03  0.22501466518E+03  0.10000000000E+01 0.  0.
<mgrwt>
<rscale>  0 0.12500174E+03</rscale>
<asrwt>0</asrwt>
<pdfrwt beam="1">  1        4 0.69359550E-01 0.12500174E+03</pdfrwt>
<pdfrwt beam="2">  1       -4 0.13330277E-02 0.12500174E+03</pdfrwt>
<totfact> 0.59147136E+03</totfact>
</mgrwt>
</event>
<event>
 5    1  0.3269032E-002  0.1250007E+03  0.7818608E-02  0.1235068E+00
          4   -1    0    0  501    0  0.00000000000E+00  0.00000000000E+00  0.25919161346E+01  0.28863349163E+01  0.12700000000E+01 0.  1.
         -4   -1    0    0    0  501 -0.00000000000E+00 -0.00000000000E+00 -0.14258152651E+04  0.14258158307E+04  0.12700000000E+01 0.  1.
         25    2    1    2    0    0  0.00000000000E+00  0.00000000000E+00 -0.14232233490E+04  0.14287021656E+04  0.12500070805E+03 0.  0.
    9000005    1    3    3    0    0 -0.29699880823E+02  0.36576649590E+02 -0.24239268925E+03  0.24693146827E+03  0.10000000000E+01 0.  0.
    9000005    1    3    3    0    0  0.29699880823E+02 -0.36576649590E+02 -0.11808306597E+04  0.11817706973E+04  0.10000000000E+01 0.  0.
<mgrwt>
<rscale>  0 0.12500071E+03</rscale>
<asrwt>0</asrwt>
<pdfrwt beam="1">  1        4 0.42144857E-03 0.12500071E+03</pdfrwt>
<pdfrwt beam="2">  1       -4 0.21937829E+00 0.12500071E+03</pdfrwt>
<totfact> 0.19373030E+03</totfact>
</mgrwt>
</event>
<event>
 5    1  0.3269032E-002  0.1250023E+03  0.7818608E-02  0.1235066E+00
          4   -1    0    0  501    0  0.00000000000E+00  0.00000000000E+00  0.24464857050E+03  0.24465186684E+03  0.12700000000E+01 0.  1.
         -4   -1    0    0    0  501 -0.00000000000E+00 -0.00000000000E+00 -0.15938705896E+02  0.15989222797E+02  0.12700000000E+01 0.  1.
         25    2    1    2    0    0  0.00000000000E+00  0.00000000000E+00  0.22870986460E+03  0.26064108964E+03  0.12500230174E+03 0.  0.
    9000005    1    3    3    0    0  0.20132548231E+02 -0.16840741195E+02  0.23260848752E+03  0.23408681836E+03  0.10000000000E+01 0.  0.
    9000005    1    3    3    0    0 -0.20132548231E+02  0.16840741195E+02 -0.38986229200E+01  0.26554271275E+02  0.10000000000E+01 0.  0.
<mgrwt>
<rscale>  0 0.12500230E+03</rscale>
<asrwt>0</asrwt>
<pdfrwt beam="1">  1        4 0.37642380E-01 0.12500230E+03</pdfrwt>
<pdfrwt beam="2">  1       -4 0.24562482E-02 0.12500230E+03</pdfrwt>
<totfact> 0.80812037E+03</totfact>
</mgrwt>
</event>
<event>
 5    1  0.3269032E-002  0.1250029E+03  0.7818608E-02  0.1235065E+00
          4   -1    0    0  501    0  0.00000000000E+00  0.00000000000E+00  0.14085332349E+02  0.14142471049E+02  0.12700000000E+01 0. -1.
         -4   -1    0    0    0  501 -0.00000000000E+00 -0.00000000000E+00 -0.27672033686E+03  0.27672325116E+03  0.12700000000E+01 0. -1.
         25    2    1    2    0    0  0.00000000000E+00  0.00000000000E+00 -0.26263500452E+03  0.29086572221E+03  0.12500289101E+03 0.  0.
    9000005    1    3    3    0    0  0.49253278084E+02  0.36004989227E+02 -0.99824165829E+02  0.11699619111E+03  0.10000000000E+01 0.  0.
    9000005    1    3    3    0    0 -0.49253278084E+02 -0.36004989227E+02 -0.16281083869E+03  0.17386953110E+03  0.10000000000E+01 0.  0.
<mgrwt>
<rscale>  0 0.12500289E+03</rscale>
<asrwt>0</asrwt>
<pdfrwt beam="1">  1        4 0.21715939E-02 0.12500289E+03</pdfrwt>
<pdfrwt beam="2">  1       -4 0.42576975E-01 0.12500289E+03</pdfrwt>
<totfact> 0.76754172E+03</totfact>
</mgrwt>
</event>
<event>
 5    1  0.3269032E-002  0.1249889E+03  0.7818608E-02  0.1235087E+00
         -4   -1    0    0    0  501 -0.00000000000E+00  0.00000000000E+00  0.76329176411E+01  0.77378505876E+01  0.12700000000E+01 0. -1.
          4   -1    0    0  501    0  0.00000000000E+00 -0.00000000000E+00 -0.50807357945E+03  0.50807516671E+03  0.12700000000E+01 0. -1.
         25    2    1    2    0    0  0.00000000000E+00  0.00000000000E+00 -0.50044066181E+03  0.51581301730E+03  0.12498885082E+03 0.  0.
    9000005    1    3    3    0    0 -0.40454139358E+02  0.21484435029E+02 -0.42562137597E+03  0.42808021914E+03  0.10000000000E+01 0.  0.
    9000005    1    3    3    0    0  0.40454139358E+02 -0.21484435029E+02 -0.74819285836E+02  0.87732798159E+02  0.10000000000E+01 0.  0.
<mgrwt>
<rscale>  0 0.12498885E+03</rscale>
<asrwt>0</asrwt>
<pdfrwt beam="2">  1        4 0.78173333E-01 0.12498885E+03</pdfrwt>
<pdfrwt beam="1">  1       -4 0.11824893E-02 0.12498885E+03</pdfrwt>
<totfact> 0.54671417E+03</totfact>
</mgrwt>
</event>
<event>
 5    1  0.3269032E-002  0.1250007E+03  0.7818608E-02  0.1235068E+00
         -4   -1    0    0    0  501 -0.00000000000E+00  0.00000000000E+00  0.25507024140E+02  0.25538621351E+02  0.12700000000E+01 0. -1.
          4   -1    0    0  501    0  0.00000000000E+00 -0.00000000000E+00 -0.15301680167E+03  0.15302207192E+03  0.12700000000E+01 0. -1.
         25    2    1    2    0    0  0.00000000000E+00  0.00000000000E+00 -0.12750977753E+03  0.17856069327E+03  0.12500071125E+03 0.  0.
    9000005    1    3    3    0    0 -0.22781195838E+01  0.46230616836E+02 -0.37786573458E+01  0.46451458677E+02  0.10000000000E+01 0.  0.
    9000005    1    3    3    0    0  0.22781195838E+01 -0.46230616836E+02 -0.12373112018E+03  0.13210923459E+03  0.10000000000E+01 0.  0.
<mgrwt>
<rscale>  0 0.12500071E+03</rscale>
<asrwt>0</asrwt>
<pdfrwt beam="2">  1        4 0.23543882E-01 0.12500071E+03</pdfrwt>
<pdfrwt beam="1">  1       -4 0.39269936E-02 0.12500071E+03</pdfrwt>
<totfact> 0.93875229E+03</totfact>
</mgrwt>
</event>
<event>
 5    1  0.3269032E-002  0.1249988E+03  0.7818608E-02  0.1235071E+00
          4   -1    0    0  501    0  0.00000000000E+00  0.00000000000E+00  0.14593816024E+03  0.14594368611E+03  0.12700000000E+01 0.  1.
         -4   -1    0    0    0  501 -0.00000000000E+00 -0.00000000000E+00 -0.26744863786E+02  0.26775000260E+02  0.12700000000E+01 0.  1.
         25    2    1    2    0    0  0.00000000000E+00  0.00000000000E+00  0.11919329645E+03  0.17271868637E+03  0.12499881080E+03 0.  0.
    9000005    1    3    3    0    0 -0.55517148306E+02  0.26237947590E+02  0.43566294369E+02  0.75296783828E+02  0.10000000000E+01 0.  0.
    9000005    1    3    3    0    0  0.55517148306E+02 -0.26237947590E+02  0.75627002085E+02  0.97421902538E+02  0.10000000000E+01 0.  0.
<mgrwt>
<rscale>  0 0.12499881E+03</rscale>
<asrwt>0</asrwt>
<pdfrwt beam="1">  1        4 0.22454768E-01 0.12499881E+03</pdfrwt>
<pdfrwt beam="2">  1       -4 0.41173377E-02 0.12499881E+03</pdfrwt>
<totfact> 0.94946859E+03</totfact>
</mgrwt>
</event>
<event>
 5    1  0.3269032E-002  0.1250004E+03  0.7818608E-02  0.1235069E+00
         -4   -1    0    0    0  501 -0.00000000000E+00  0.00000000000E+00  0.90496937641E+02  0.90505848553E+02  0.12700000000E+01 0. -1.
          4   -1    0    0  501    0  0.00000000000E+00 -0.00000000000E+00 -0.43144307782E+02  0.43162995656E+02  0.12700000000E+01 0. -1.
         25    2    1    2    0    0  0.00000000000E+00  0.00000000000E+00  0.47352629859E+02  0.13366884421E+03  0.12500035343E+03 0.  0.
    9000005    1    3    3    0    0 -0.16634191661E+02  0.43240694848E+02  0.68522903350E+02  0.82721474278E+02  0.10000000000E+01 0.  0.
    9000005    1    3    3    0    0  0.16634191661E+02 -0.43240694848E+02 -0.21170273491E+02  0.50947369931E+02  0.10000000000E+01 0.  0.
<mgrwt>
<rscale>  0 0.12500035E+03</rscale>
<asrwt>0</asrwt>
<pdfrwt beam="2">  1        4 0.66397088E-02 0.12500035E+03</pdfrwt>
<pdfrwt beam="1">  1       -4 0.13924729E-01 0.12500035E+03</pdfrwt>
<totfact> 0.10266123E+04</totfact>
</mgrwt>
</event>
<event>
 5    1  0.3269032E-002  0.1249904E+03  0.7818608E-02  0.1235084E+00
         -4   -1    0    0    0  501 -0.00000000000E+00  0.00000000000E+00  0.87073199159E+02  0.87082460414E+02  0.12700000000E+01 0.  1.
          4   -1    0    0  501    0  0.00000000000E+00 -0.00000000000E+00 -0.44834134804E+02  0.44852118608E+02  0.12700000000E+01 0.  1.
         25    2    1    2    0    0  0.00000000000E+00  0.00000000000E+00  0.42239064355E+02  0.13193457902E+03  0.12499037797E+03 0.  0.
    9000005    1    3    3    0    0 -0.72616704305E+01  0.85255790254E+01 -0.43771366713E+02  0.45192365495E+02  0.10000000000E+01 0.  0.
    9000005    1    3    3    0    0  0.72616704305E+01 -0.85255790254E+01  0.86010431068E+02  0.86742213527E+02  0.10000000000E+01 0.  0.
<mgrwt>
<rscale>  0 0.12499038E+03</rscale>
<asrwt>0</asrwt>
<pdfrwt beam="2">  1        4 0.68996550E-02 0.12499038E+03</pdfrwt>
<pdfrwt beam="1">  1       -4 0.13397973E-01 0.12499038E+03</pdfrwt>
<totfact> 0.10305332E+04</totfact>
</mgrwt>
</event>
<event>
 5    1  0.3269032E-002  0.1250048E+03  0.7818608E-02  0.1235062E+00
         -4   -1    0    0    0  501 -0.00000000000E+00  0.00000000000E+00  0.91258778484E+02  0.91267615015E+02  0.12700000000E+01 0. -1.
          4   -1    0    0  501    0  0.00000000000E+00 -0.00000000000E+00 -0.42787030644E+02  0.42805874495E+02  0.12700000000E+01 0. -1.
         25    2    1    2    0    0  0.00000000000E+00  0.00000000000E+00  0.48471747840E+02  0.13407348951E+03  0.12500476091E+03 0.  0.
    9000005    1    3    3    0    0  0.43053763759E+02  0.45076770199E+02  0.29033142955E+02  0.68771107125E+02  0.10000000000E+01 0.  0.
    9000005    1    3    3    0    0 -0.43053763759E+02 -0.45076770199E+02  0.19438604886E+02  0.65302382386E+02  0.10000000000E+01 0.  0.
<mgrwt>
<rscale>  0 0.12500476E+03</rscale>
<asrwt>0</asrwt>
<pdfrwt beam="2">  1        4 0.65847494E-02 0.12500476E+03</pdfrwt>
<pdfrwt beam="1">  1       -4 0.14041941E-01 0.12500476E+03</pdfrwt>
<totfact> 0.10256535E+04</totfact>
</mgrwt>
</event>
<event>
 5    1  0.3269032E-002  0.1250087E+03  0.7818608E-02  0.1235056E+00
          4   -1    0    0  501    0  0.00000000000E+00  0.00000000000E+00  0.13351981715E+03  0.13352585694E+03  0.12700000000E+01 0.  1.
         -4   -1    0    0    0  501 -0.00000000000E+00 -0.00000000000E+00 -0.29239534354E+02  0.29267102167E+02  0.12700000000E+01 0.  1.
         25    2    1    2    0    0  0.00000000000E+00  0.00000000000E+00  0.10428028280E+03  0.16279295911E+03  0.12500868032E+03 0.  0.
    9000005    1    3    3    0    0 -0.11071893463E+02 -0.57380938628E+02  0.80985376869E+02  0.99873871505E+02  0.10000000000E+01 0.  0.
    9000005    1    3    3    0    0  0.11071893463E+02  0.57380938628E+02  0.23294905929E+02  0.62919087604E+02  0.10000000000E+01 0.  0.
<mgrwt>
<rscale>  0 0.12500868E+03</rscale>
<asrwt>0</asrwt>
<pdfrwt beam="1">  1        4 0.20544096E-01 0.12500868E+03</pdfrwt>
<pdfrwt beam="2">  1       -4 0.45009751E-02 0.12500868E+03</pdfrwt>
<totfact> 0.96788131E+03</totfact>
</mgrwt>
</event>
<event>
 5    1  0.3269032E-002  0.1249993E+03  0.7818608E-02  0.1235070E+00
         -4   -1    0    0    0  501 -0.00000000000E+00  0.00000000000E+00  0.24769526071E+02  0.24802062853E+02  0.12700000000E+01 0.  1.
          4   -1    0    0  501    0  0.00000000000E+00 -0.00000000000E+00 -0.15756354567E+03  0.15756866384E+03  0.12700000000E+01 0.  1.
         25    2    1    2    0    0  0.00000000000E+00  0.00000000000E+00 -0.13279401960E+03  0.18237072670E+03  0.12499932125E+03 0.  0.
    9000005    1    3    3    0    0 -0.44961368307E+02  0.25165436123E+02 -0.14806581118E+02  0.53619573475E+02  0.10000000000E+01 0.  0.
    9000005    1    3    3    0    0  0.44961368307E+02 -0.25165436123E+02 -0.11798743849E+03  0.12875115322E+03  0.10000000000E+01 0.  0.
<mgrwt>
<rscale>  0 0.12499932E+03</rscale>
<asrwt>0</asrwt>
<pdfrwt beam="2">  1        4 0.24243441E-01 0.12499932E+03</pdfrwt>
<pdfrwt beam="1">  1       -4 0.38135929E-02 0.12499932E+03</pdfrwt>
<totfact> 0.93193415E+03</totfact>
</mgrwt>
</event>
<event>
 5    1  0.3269032E-002  0.1250020E+03  0.7818608E-02  0.1235066E+00
         -4   -1    0    0    0  501 -0.00000000000E+00  0.00000000000E+00  0.30899877325E+03  0.30900138312E+03  0.12700000000E+01 0. -1.
          4   -1    0    0  501    0  0.00000000000E+00 -0.00000000000E+00 -0.12607472447E+02  0.12671277028E+02  0.12700000000E+01 0. -1.
         25    2    1    2    0    0  0.00000000000E+00  0.00000000000E+00  0.29639130080E+03  0.32167266015E+03  0.12500198836E+03 0.  0.
    9000005    1    3    3    0    0 -0.52092535006E+02  0.12907506603E+02  0.65803000972E+02  0.84919201992E+02  0.10000000000E+01 0.  0.
    9000005    1    3    3    0    0  0.52092535006E+02 -0.12907506603E+02  0.23058829983E+03  0.23675345816E+03  0.10000000000E+01 0.  0.
<mgrwt>
<rscale>  0 0.12500199E+03</rscale>
<asrwt>0</asrwt>
<pdfrwt beam="2">  1        4 0.19447200E-02 0.12500199E+03</pdfrwt>
<pdfrwt beam="1">  1       -4 0.47543382E-01 0.12500199E+03</pdfrwt>
<totfact> 0.72954408E+03</totfact>
</mgrwt>
</event>
<event>
 5    1  0.3269032E-002  0.1249987E+03  0.7818608E-02  0.1235071E+00
          4   -1    0    0  501    0  0.00000000000E+00  0.00000000000E+00  0.34840329347E+03  0.34840560816E+03  0.12700000000E+01 0. -1.
         -4   -1    0    0    0  501 -0.00000000000E+00 -0.00000000000E+00 -0.11173304802E+02  0.11245249672E+02  0.12700000000E+01 0. -1.
         25    2    1    2    0    0  0.00000000000E+00  0.00000000000E+00  0.33722998867E+03  0.35965085784E+03  0.12499869714E+03 0.  0.
    9000005    1    3    3    0    0 -0.58076661234E+02  0.52933156081E+01  0.10400511758E+03  0.11924337404E+03  0.10000000000E+01 0.  0.
    9000005    1    3    3    0    0  0.58076661234E+02 -0.52933156081E+01  0.23322487109E+03  0.24040748380E+03  0.10000000000E+01 0.  0.
<mgrwt>
<rscale>  0 0.12499870E+03</rscale>
<asrwt>0</asrwt>
<pdfrwt beam="1">  1        4 0.53606220E-01 0.12499870E+03</pdfrwt>
<pdfrwt beam="2">  1       -4 0.17246822E-02 0.12499870E+03</pdfrwt>
<totfact> 0.68677708E+03</totfact>
</mgrwt>
</event>
<event>
 5    1  0.3269032E-002  0.1250076E+03  0.7818608E-02  0.1235057E+00
         -4   -1    0    0    0  501 -0.00000000000E+00  0.00000000000E+00  0.11554125346E+03  0.11554823301E+03  0.12700000000E+01 0.  1.
          4   -1    0    0  501    0  0.00000000000E+00 -0.00000000000E+00 -0.33792431297E+02  0.33816287688E+02  0.12700000000E+01 0.  1.
         25    2    1    2    0    0  0.00000000000E+00  0.00000000000E+00  0.81748822168E+02  0.14936452070E+03  0.12500756024E+03 0.  0.
    9000005    1    3    3    0    0  0.36234852630E+01  0.55505498646E+02  0.68322095250E+01  0.56050594219E+02  0.10000000000E+01 0.  0.
    9000005    1    3    3    0    0 -0.36234852630E+01 -0.55505498646E+02  0.74916612643E+02  0.93313926480E+02  0.10000000000E+01 0.  0.
<mgrwt>
<rscale>  0 0.12500756E+03</rscale>
<asrwt>0</asrwt>
<pdfrwt beam="2">  1        4 0.52012076E-02 0.12500756E+03</pdfrwt>
<pdfrwt beam="1">  1       -4 0.17777949E-01 0.12500756E+03</pdfrwt>
<totfact> 0.99413605E+03</totfact>
</mgrwt>
</event>
<event>
 5    1  0.3269032E-002  0.1249999E+03  0.7818608E-02  0.1235070E+00
          4   -1    0    0  501    0  0.00000000000E+00  0.00000000000E+00  0.56828225069E+02  0.56842414309E+02  0.12700000000E+01 0. -1.
         -4   -1    0    0    0  501 -0.00000000000E+00 -0.00000000000E+00 -0.68709054645E+02  0.68720790815E+02  0.12700000000E+01 0. -1.
         25    2    1    2    0    0  0.00000000000E+00  0.00000000000E+00 -0.11880829576E+02  0.12556320512E+03  0.12499985748E+03 0.  0.
    9000005    1    3    3    0    0  0.11463431732E+02 -0.51803027601E+02 -0.39108571109E+02  0.65919983844E+02  0.10000000000E+01 0.  0.
    9000005    1    3    3    0    0 -0.11463431732E+02  0.51803027601E+02  0.27227741532E+02  0.59643221280E+02  0.10000000000E+01 0.  0.
<mgrwt>
<rscale>  0 0.12499986E+03</rscale>
<asrwt>0</asrwt>
<pdfrwt beam="1">  1        4 0.87447981E-02 0.12499986E+03</pdfrwt>
<pdfrwt beam="2">  1       -4 0.10572618E-01 0.12499986E+03</pdfrwt>
<totfact> 0.10440592E+04</totfact>
</mgrwt>
</event>
<event>
 5    1  0.3269032E-002  0.1249999E+03  0.7818608E-02  0.1235069E+00
         -4   -1    0    0    0  501 -0.00000000000E+00  0.00000000000E+00  0.41187435498E+03  0.41187631298E+03  0.12700000000E+01 0. -1.
          4   -1    0    0  501    0  0.00000000000E+00 -0.00000000000E+00 -0.94395584694E+01  0.95246083435E+01  0.12700000000E+01 0. -1.
         25    2    1    2    0    0  0.00000000000E+00  0.00000000000E+00  0.40243479651E+03  0.42140092132E+03  0.12499988418E+03 0.  0.
    9000005    1    3    3    0    0  0.15314128222E+02  0.53146945360E+02  0.29927978876E+03  0.30434932608E+03  0.10000000000E+01 0.  0.
    9000005    1    3    3    0    0 -0.15314128222E+02 -0.53146945360E+02  0.10315500775E+03  0.11705159524E+03  0.10000000000E+01 0.  0.
<mgrwt>
<rscale>  0 0.12499988E+03</rscale>
<asrwt>0</asrwt>
<pdfrwt beam="2">  1        4 0.14589329E-02 0.12499988E+03</pdfrwt>
<pdfrwt beam="1">  1       -4 0.63371969E-01 0.12499988E+03</pdfrwt>
<totfact> 0.62523419E+03</totfact>
</mgrwt>
</event>
<event>
 5    1  0.3269032E-002  0.1250007E+03  0.7818608E-02  0.1235068E+00
          4   -1    0    0  501    0  0.00000000000E+00  0.00000000000E+00  0.27247759677E+03  0.27248055645E+03  0.12700000000E+01 0. -1.
         -4   -1    0    0    0  501 -0.00000000000E+00 -0.00000000000E+00 -0.14305030831E+02  0.14361295453E+02  0.12700000000E+01 0. -1.
         25    2    1    2    0    0  0.00000000000E+00  0.00000000000E+00  0.25817256594E+03  0.28684185190E+03  0.12500069679E+03 0.  0.
    9000005    1    3    3    0    0 -0.20212739777E+02 -0.43965945569E+02  0.21982895621E+03  0.22509404525E+03  0.10000000000E+01 0.  0.
    9000005    1    3    3    0    0  0.20212739777E+02  0.43965945569E+02  0.38343609732E+02  0.61747806652E+02  0.10000000000E+01 0.  0.
<mgrwt>
<rscale>  0 0.12500070E+03</rscale>
<asrwt>0</asrwt>
<pdfrwt beam="1">  1        4 0.41924184E-01 0.12500070E+03</pdfrwt>
<pdfrwt beam="2">  1       -4 0.22053298E-02 0.12500070E+03</pdfrwt>
<totfact> 0.77278388E+03</totfact>
</mgrwt>
</event>
<event>
 5    1  0.3269032E-002  0.1250035E+03  0.7818608E-02  0.1235064E+00
          4   -1    0    0  501    0  0.00000000000E+00  0.00000000000E+00  0.75881329671E+03  0.75881435948E+03  0.12700000000E+01 0.  1.
         -4   -1    0    0    0  501 -0.00000000000E+00 -0.00000000000E+00 -0.50687229847E+01  0.52254045485E+01  0.12700000000E+01 0.  1.
         25    2    1    2    0    0  0.00000000000E+00  0.00000000000E+00  0.75374457372E+03  0.76403976403E+03  0.12500351438E+03 0.  0.
    9000005    1    3    3    0    0 -0.34257872990E+02  0.49630743292E+02  0.27668954621E+03  0.28318707161E+03  0.10000000000E+01 0.  0.
    9000005    1    3    3    0    0  0.34257872990E+02 -0.49630743292E+02  0.47705502751E+03  0.48085269243E+03  0.10000000000E+01 0.  0.
<mgrwt>
<rscale>  0 0.12500351E+03</rscale>
<asrwt>0</asrwt>
<pdfrwt beam="1">  1        4 0.11675258E+00 0.12500351E+03</pdfrwt>
<pdfrwt beam="2">  1       -4 0.79193816E-03 0.12500351E+03</pdfrwt>
<totfact> 0.39908403E+03</totfact>
</mgrwt>
</event>
<event>
 5    1  0.3269032E-002  0.1250041E+03  0.7818608E-02  0.1235063E+00
         -4   -1    0    0    0  501 -0.00000000000E+00  0.00000000000E+00  0.90663893393E+02  0.90672787898E+02  0.12700000000E+01 0. -1.
          4   -1    0    0  501    0  0.00000000000E+00 -0.00000000000E+00 -0.43067436247E+02  0.43086157462E+02  0.12700000000E+01 0. -1.
         25    2    1    2    0    0  0.00000000000E+00  0.00000000000E+00  0.47596457146E+02  0.13375894536E+03  0.12500413086E+03 0.  0.
    9000005    1    3    3    0    0  0.31068128958E+02 -0.51552796221E+02  0.41785939656E+02  0.73280175956E+02  0.10000000000E+01 0.  0.
    9000005    1    3    3    0    0 -0.31068128958E+02  0.51552796221E+02  0.58105174896E+01  0.60478769404E+02  0.10000000000E+01 0.  0.
<mgrwt>
<rscale>  0 0.12500413E+03</rscale>
<asrwt>0</asrwt>
<pdfrwt beam="2">  1        4 0.66278838E-02 0.12500413E+03</pdfrwt>
<pdfrwt beam="1">  1       -4 0.13950415E-01 0.12500413E+03</pdfrwt>
<totfact> 0.10263340E+04</totfact>
</mgrwt>
</event>
<event>
 5    1  0.3269032E-002  0.1249991E+03  0.7818608E-02  0.1235071E+00
         -4   -1    0    0    0  501 -0.00000000000E+00  0.00000000000E+00  0.36908227958E+01  0.39032131520E+01  0.12700000000E+01 0.  1.
          4   -1    0    0  501    0  0.00000000000E+00 -0.00000000000E+00 -0.10285409714E+04  0.10285417555E+04  0.12700000000E+01 0.  1.
         25    2    1    2    0    0  0.00000000000E+00  0.00000000000E+00 -0.10248501487E+04  0.10324449687E+04  0.12499914457E+03 0.  0.
    9000005    1    3    3    0    0 -0.39522383149E+01 -0.49245399491E+02 -0.82850700017E+03  0.82997926413E+03  0.10000000000E+01 0.  0.
    9000005    1    3    3    0    0  0.39522383149E+01  0.49245399491E+02 -0.19634314848E+03  0.20246570454E+03  0.10000000000E+01 0.  0.
<mgrwt>
<rscale>  0 0.12499914E+03</rscale>
<asrwt>0</asrwt>
<pdfrwt beam="2">  1        4 0.15825325E+00 0.12499914E+03</pdfrwt>
<pdfrwt beam="1">  1       -4 0.58421774E-03 0.12499914E+03</pdfrwt>
<totfact> 0.29549892E+03</totfact>
</mgrwt>
</event>
<event>
 5    1  0.3269032E-002  0.1249996E+03  0.7818608E-02  0.1235070E+00
         -4   -1    0    0    0  501 -0.00000000000E+00  0.00000000000E+00  0.10601720921E+02  0.10677517805E+02  0.12700000000E+01 0. -1.
          4   -1    0    0  501    0  0.00000000000E+00 -0.00000000000E+00 -0.36706263781E+03  0.36706483484E+03  0.12700000000E+01 0. -1.
         25    2    1    2    0    0  0.00000000000E+00  0.00000000000E+00 -0.35646091689E+03  0.37774235264E+03  0.12499959885E+03 0.  0.
    9000005    1    3    3    0    0  0.48501031970E+02 -0.20639586980E+02 -0.27967445147E+03  0.28459996743E+03  0.10000000000E+01 0.  0.
    9000005    1    3    3    0    0 -0.48501031970E+02  0.20639586980E+02 -0.76786465415E+02  0.93142385216E+02  0.10000000000E+01 0.  0.
<mgrwt>
<rscale>  0 0.12499960E+03</rscale>
<asrwt>0</asrwt>
<pdfrwt beam="2">  1        4 0.56477165E-01 0.12499960E+03</pdfrwt>
<pdfrwt beam="1">  1       -4 0.16370338E-02 0.12499960E+03</pdfrwt>
<totfact> 0.66777242E+03</totfact>
</mgrwt>
</event>
<event>
 5    1  0.3269032E-002  0.1249984E+03  0.7818608E-02  0.1235072E+00
          4   -1    0    0  501    0  0.00000000000E+00  0.00000000000E+00  0.61501329492E+01  0.62798913440E+01  0.12700000000E+01 0.  1.
         -4   -1    0    0    0  501 -0.00000000000E+00 -0.00000000000E+00 -0.62837204914E+03  0.62837333254E+03  0.12700000000E+01 0.  1.
         25    2    1    2    0    0  0.00000000000E+00  0.00000000000E+00 -0.62222191619E+03  0.63465322388E+03  0.12499840635E+03 0.  0.
    9000005    1    3    3    0    0 -0.26068679333E+02 -0.50830821461E+02 -0.43973807312E+03  0.44343423572E+03  0.10000000000E+01 0.  0.
    9000005    1    3    3    0    0  0.26068679333E+02  0.50830821461E+02 -0.18248384307E+03  0.19121898817E+03  0.10000000000E+01 0.  0.
<mgrwt>
<rscale>  0 0.12499841E+03</rscale>
<asrwt>0</asrwt>
<pdfrwt beam="1">  1        4 0.95625494E-03 0.12499841E+03</pdfrwt>
<pdfrwt beam="2">  1       -4 0.96682653E-01 0.12499841E+03</pdfrwt>
<totfact> 0.46752449E+03</totfact>
</mgrwt>
</event>
<event>
 5    1  0.3269032E-002  0.1250035E+03  0.7818608E-02  0.1235064E+00
          4   -1    0    0  501    0  0.00000000000E+00  0.00000000000E+00  0.52880444678E+02  0.52895692919E+02  0.12700000000E+01 0.  1.
         -4   -1    0    0    0  501 -0.00000000000E+00 -0.00000000000E+00 -0.73842284275E+02  0.73853204717E+02  0.12700000000E+01 0.  1.
         25    2    1    2    0    0  0.00000000000E+00  0.00000000000E+00 -0.20961839597E+02  0.12674889764E+03  0.12500353728E+03 0.  0.
    9000005    1    3    3    0    0 -0.41351801153E+02  0.32159921869E+02  0.24071837063E+02  0.57660084745E+02  0.10000000000E+01 0.  0.
    9000005    1    3    3    0    0  0.41351801153E+02 -0.32159921869E+02 -0.45033676660E+02  0.69088812891E+02  0.10000000000E+01 0.  0.
<mgrwt>
<rscale>  0 0.12500354E+03</rscale>
<asrwt>0</asrwt>
<pdfrwt beam="1">  1        4 0.81374660E-02 0.12500354E+03</pdfrwt>
<pdfrwt beam="2">  1       -4 0.11362364E-01 0.12500354E+03</pdfrwt>
<totfact> 0.10413774E+04</totfact>
</mgrwt>
</event>
<event>
 5    1  0.3269032E-002  0.1250026E+03  0.7818608E-02  0.1235065E+00
          4   -1    0    0  501    0  0.00000000000E+00  0.00000000000E+00  0.17060841134E+02  0.17108044897E+02  0.12700000000E+01 0.  1.
         -4   -1    0    0    0  501 -0.00000000000E+00 -0.00000000000E+00 -0.22860418003E+03  0.22860770772E+03  0.12700000000E+01 0.  1.
         25    2    1    2    0    0  0.00000000000E+00  0.00000000000E+00 -0.21154333890E+03  0.24571575261E+03  0.12500258738E+03 0.  0.
    9000005    1    3    3    0    0  0.39752516734E+02  0.43676470642E+02 -0.14593688099E+03  0.15743719353E+03  0.10000000000E+01 0.  0.
    9000005    1    3    3    0    0 -0.39752516734E+02 -0.43676470642E+02 -0.65606457907E+02  0.88278559082E+02  0.10000000000E+01 0.  0.
<mgrwt>
<rscale>  0 0.12500259E+03</rscale>
<asrwt>0</asrwt>
<pdfrwt beam="1">  1        4 0.26286474E-02 0.12500259E+03</pdfrwt>
<pdfrwt beam="2">  1       -4 0.35173774E-01 0.12500259E+03</pdfrwt>
<totfact> 0.82948623E+03</totfact>
</mgrwt>
</event>
<event>
 5    1  0.3269032E-002  0.1250010E+03  0.7818608E-02  0.1235068E+00
          4   -1    0    0  501    0  0.00000000000E+00  0.00000000000E+00  0.59202064713E+01  0.60548942734E+01  0.12700000000E+01 0.  1.
         -4   -1    0    0    0  501 -0.00000000000E+00 -0.00000000000E+00 -0.65227089041E+03  0.65227212678E+03  0.12700000000E+01 0.  1.
         25    2    1    2    0    0  0.00000000000E+00  0.00000000000E+00 -0.64635068394E+03  0.65832702105E+03  0.12500104009E+03 0.  0.
    9000005    1    3    3    0    0 -0.21219085264E+02  0.16750138018E+02 -0.26442508205E+02  0.37828863890E+02  0.10000000000E+01 0.  0.
    9000005    1    3    3    0    0  0.21219085264E+02 -0.16750138018E+02 -0.61990817573E+03  0.62049815716E+03  0.10000000000E+01 0.  0.
<mgrwt>
<rscale>  0 0.12500104E+03</rscale>
<asrwt>0</asrwt>
<pdfrwt beam="1">  1        4 0.92125722E-03 0.12500104E+03</pdfrwt>
<pdfrwt beam="2">  1       -4 0.10035977E+00 0.12500104E+03</pdfrwt>
<totfact> 0.45378510E+03</totfact>
</mgrwt>
</event>
<event>
 5    1  0.3269032E-002  0.1250000E+03  0.7818608E-02  0.1235069E+00
         -4   -1    0    0    0  501 -0.00000000000E+00  0.00000000000E+00  0.47285771561E+03  0.47285942108E+03  0.12700000000E+01 0.  1.
          4   -1    0    0  501    0  0.00000000000E+00 -0.00000000000E+00 -0.82104020366E+01  0.83080443909E+01  0.12700000000E+01 0.  1.
         25    2    1    2    0    0  0.00000000000E+00  0.00000000000E+00  0.46464731357E+03  0.48116746548E+03  0.12500001530E+03 0.  0.
    9000005    1    3    3    0    0  0.50140695926E+02 -0.31756371028E+02  0.30762665709E+03  0.31330131924E+03  0.10000000000E+01 0.  0.
    9000005    1    3    3    0    0 -0.50140695926E+02  0.31756371028E+02  0.15702065648E+03  0.16786614623E+03  0.10000000000E+01 0.  0.
<mgrwt>
<rscale>  0 0.12500002E+03</rscale>
<asrwt>0</asrwt>
<pdfrwt beam="2">  1        4 0.12707806E-02 0.12500002E+03</pdfrwt>
<pdfrwt beam="1">  1       -4 0.72755002E-01 0.12500002E+03</pdfrwt>
<totfact> 0.57355699E+03</totfact>
</mgrwt>
</event>
<event>
 5    1  0.3269032E-002  0.1250036E+03  0.7818608E-02  0.1235064E+00
         -4   -1    0    0    0  501 -0.00000000000E+00  0.00000000000E+00  0.10765244136E+03  0.10765993234E+03  0.12700000000E+01 0. -1.
          4   -1    0    0  501    0  0.00000000000E+00 -0.00000000000E+00 -0.36268000233E+02  0.36290229276E+02  0.12700000000E+01 0. -1.
         25    2    1    2    0    0  0.00000000000E+00  0.00000000000E+00  0.71384441130E+02  0.14395016162E+03  0.12500364232E+03 0.  0.
    9000005    1    3    3    0    0 -0.15991485234E+02 -0.39003700718E+02 -0.17435645990E+02  0.45629135657E+02  0.10000000000E+01 0.  0.
    9000005    1    3    3    0    0  0.15991485234E+02  0.39003700718E+02  0.88820087120E+02  0.98321025959E+02  0.10000000000E+01 0.  0.
<mgrwt>
<rscale>  0 0.12500364E+03</rscale>
<asrwt>0</asrwt>
<pdfrwt beam="2">  1        4 0.55819784E-02 0.12500364E+03</pdfrwt>
<pdfrwt beam="1">  1       -4 0.16564200E-01 0.12500364E+03</pdfrwt>
<totfact> 0.10051538E+04</totfact>
</mgrwt>
</event>
<event>
 5    1  0.3269032E-002  0.1249509E+03  0.7818608E-02  0.1235146E+00
         -4   -1    0    0    0  501 -0.00000000000E+00  0.00000000000E+00  0.21911947312E+03  0.21912315350E+03  0.12700000000E+01 0. -1.
          4   -1    0    0  501    0  0.00000000000E+00 -0.00000000000E+00 -0.17786547118E+02  0.17831829923E+02  0.12700000000E+01 0. -1.
         25    2    1    2    0    0  0.00000000000E+00  0.00000000000E+00  0.20133292600E+03  0.23695498342E+03  0.12495085865E+03 0.  0.
    9000005    1    3    3    0    0  0.32660016888E+02  0.86187094046E+01  0.20031642552E+03  0.20314681683E+03  0.10000000000E+01 0.  0.
    9000005    1    3    3    0    0 -0.32660016888E+02 -0.86187094046E+01  0.10165004776E+01  0.33808166590E+02  0.10000000000E+01 0.  0.
<mgrwt>
<rscale>  0 0.12495086E+03</rscale>
<asrwt>0</asrwt>
<pdfrwt beam="2">  1        4 0.27401581E-02 0.12495086E+03</pdfrwt>
<pdfrwt beam="1">  1       -4 0.33714456E-01 0.12495086E+03</pdfrwt>
<totfact> 0.84345358E+03</totfact>
</mgrwt>
</event>
<event>
 5    1  0.3269032E-002  0.1249755E+03  0.7818608E-02  0.1235108E+00
         -4   -1    0    0    0  501 -0.00000000000E+00  0.00000000000E+00  0.62444581537E+02  0.62457494853E+02  0.12700000000E+01 0.  1.
          4   -1    0    0  501    0  0.00000000000E+00 -0.00000000000E+00 -0.62505092016E+02  0.62517992834E+02  0.12700000000E+01 0.  1.
         25    2    1    2    0    0  0.00000000000E+00  0.00000000000E+00 -0.60510479243E-01  0.12497548769E+03  0.12497547304E+03 0.  0.
    9000005    1    3    3    0    0  0.91117374852E+00 -0.57367226567E+02  0.24706123580E+02  0.62475767014E+02  0.10000000000E+01 0.  0.
    9000005    1    3    3    0    0 -0.91117374852E+00  0.57367226567E+02 -0.24766634059E+02  0.62499720673E+02  0.10000000000E+01 0.  0.
<mgrwt>
<rscale>  0 0.12497547E+03</rscale>
<asrwt>0</asrwt>
<pdfrwt beam="2">  1        4 0.96181537E-02 0.12497547E+03</pdfrwt>
<pdfrwt beam="1">  1       -4 0.96088444E-02 0.12497547E+03</pdfrwt>
<totfact> 0.10459192E+04</totfact>
</mgrwt>
</event>
<event>
 5    1  0.3269032E-002  0.1249942E+03  0.7818608E-02  0.1235078E+00
          4   -1    0    0  501    0  0.00000000000E+00  0.00000000000E+00  0.13164409754E+03  0.13165022339E+03  0.12700000000E+01 0. -1.
         -4   -1    0    0    0  501 -0.00000000000E+00 -0.00000000000E+00 -0.29649650261E+02  0.29676837106E+02  0.12700000000E+01 0. -1.
         25    2    1    2    0    0  0.00000000000E+00  0.00000000000E+00  0.10199444728E+03  0.16132706049E+03  0.12499421255E+03 0.  0.
    9000005    1    3    3    0    0 -0.93435552874E+01 -0.13232705014E+02  0.12889337666E+03  0.12991115832E+03  0.10000000000E+01 0.  0.
    9000005    1    3    3    0    0  0.93435552874E+01  0.13232705014E+02 -0.26898929384E+02  0.31415902174E+02  0.10000000000E+01 0.  0.
<mgrwt>
<rscale>  0 0.12499421E+03</rscale>
<asrwt>0</asrwt>
<pdfrwt beam="1">  1        4 0.20255500E-01 0.12499421E+03</pdfrwt>
<pdfrwt beam="2">  1       -4 0.45640472E-02 0.12499421E+03</pdfrwt>
<totfact> 0.97100176E+03</totfact>
</mgrwt>
</event>
<event>
 5    1  0.3269032E-002  0.1249968E+03  0.7818608E-02  0.1235074E+00
          4   -1    0    0  501    0  0.00000000000E+00  0.00000000000E+00  0.36829323752E+03  0.36829542721E+03  0.12700000000E+01 0.  1.
         -4   -1    0    0    0  501 -0.00000000000E+00 -0.00000000000E+00 -0.10565562587E+02  0.10641617019E+02  0.12700000000E+01 0.  1.
         25    2    1    2    0    0  0.00000000000E+00  0.00000000000E+00  0.35772767493E+03  0.37893704423E+03  0.12499677626E+03 0.  0.
    9000005    1    3    3    0    0 -0.58002870849E+02  0.91351416350E+01  0.24369026349E+03  0.25066656810E+03  0.10000000000E+01 0.  0.
    9000005    1    3    3    0    0  0.58002870849E+02 -0.91351416350E+01  0.11403741144E+03  0.12827047613E+03  0.10000000000E+01 0.  0.
<mgrwt>
<rscale>  0 0.12499678E+03</rscale>
<asrwt>0</asrwt>
<pdfrwt beam="1">  1        4 0.56666515E-01 0.12499678E+03</pdfrwt>
<pdfrwt beam="2">  1       -4 0.16314900E-02 0.12499678E+03</pdfrwt>
<totfact> 0.66658953E+03</totfact>
</mgrwt>
</event>
<event>
 5    1  0.3269032E-002  0.1249931E+03  0.7818608E-02  0.1235080E+00
          4   -1    0    0  501    0  0.00000000000E+00  0.00000000000E+00  0.46487654929E+02  0.46504999310E+02  0.12700000000E+01 0.  1.
         -4   -1    0    0    0  501 -0.00000000000E+00 -0.00000000000E+00 -0.83980588841E+02  0.83990191106E+02  0.12700000000E+01 0.  1.
         25    2    1    2    0    0  0.00000000000E+00  0.00000000000E+00 -0.37492933912E+02  0.13049519042E+03  0.12499309832E+03 0.  0.
    9000005    1    3    3    0    0  0.19299030691E+02  0.58542022869E+02 -0.29454543073E+02  0.68324162160E+02  0.10000000000E+01 0.  0.
    9000005    1    3    3    0    0 -0.19299030691E+02 -0.58542022869E+02 -0.80383908389E+01  0.62171028257E+02  0.10000000000E+01 0.  0.
<mgrwt>
<rscale>  0 0.12499310E+03</rscale>
<asrwt>0</asrwt>
<pdfrwt beam="1">  1        4 0.71540198E-02 0.12499310E+03</pdfrwt>
<pdfrwt beam="2">  1       -4 0.12922163E-01 0.12499310E+03</pdfrwt>
<totfact> 0.10335533E+04</totfact>
</mgrwt>
</event>
<event>
 5    1  0.3269032E-002  0.1249980E+03  0.7818608E-02  0.1235072E+00
          4   -1    0    0  501    0  0.00000000000E+00  0.00000000000E+00  0.84198020627E+01  0.85150435569E+01  0.12700000000E+01 0.  1.
         -4   -1    0    0    0  501 -0.00000000000E+00 -0.00000000000E+00 -0.46121610399E+03  0.46121785251E+03  0.12700000000E+01 0.  1.
         25    2    1    2    0    0  0.00000000000E+00  0.00000000000E+00 -0.45279630192E+03  0.46973289607E+03  0.12499801044E+03 0.  0.
    9000005    1    3    3    0    0 -0.26622111001E+02 -0.52656948168E+02 -0.14905112453E+03  0.16030823032E+03  0.10000000000E+01 0.  0.
    9000005    1    3    3    0    0  0.26622111001E+02  0.52656948168E+02 -0.30374517740E+03  0.30942466575E+03  0.10000000000E+01 0.  0.
<mgrwt>
<rscale>  0 0.12499801E+03</rscale>
<asrwt>0</asrwt>
<pdfrwt beam="1">  1        4 0.13028153E-02 0.12499801E+03</pdfrwt>
<pdfrwt beam="2">  1       -4 0.70963765E-01 0.12499801E+03</pdfrwt>
<totfact> 0.58294215E+03</totfact>
</mgrwt>
</event>
<event>
 5    1  0.3269032E-002  0.1249975E+03  0.7818608E-02  0.1235073E+00
         -4   -1    0    0    0  501 -0.00000000000E+00  0.00000000000E+00  0.12142826503E+02  0.12209059566E+02  0.12700000000E+01 0.  1.
          4   -1    0    0  501    0  0.00000000000E+00 -0.00000000000E+00 -0.32073685719E+03  0.32073937155E+03  0.12700000000E+01 0.  1.
         25    2    1    2    0    0  0.00000000000E+00  0.00000000000E+00 -0.30859403069E+03  0.33294843112E+03  0.12499752799E+03 0.  0.
    9000005    1    3    3    0    0  0.39895294344E+01 -0.61916763359E+02 -0.13445449266E+03  0.14808312708E+03  0.10000000000E+01 0.  0.
    9000005    1    3    3    0    0 -0.39895294344E+01  0.61916763359E+02 -0.17413953803E+03  0.18486530404E+03  0.10000000000E+01 0.  0.
<mgrwt>
<rscale>  0 0.12499753E+03</rscale>
<asrwt>0</asrwt>
<pdfrwt beam="2">  1        4 0.49349414E-01 0.12499753E+03</pdfrwt>
<pdfrwt beam="1">  1       -4 0.18734157E-02 0.12499753E+03</pdfrwt>
<totfact> 0.71646019E+03</totfact>
</mgrwt>
</event>
<event>
 5    1  0.3269032E-002  0.1249995E+03  0.7818608E-02  0.1235070E+00
         -4   -1    0    0    0  501 -0.00000000000E+00  0.00000000000E+00  0.12889761696E+04  0.12889767953E+04  0.12700000000E+01 0. -1.
          4   -1    0    0  501    0  0.00000000000E+00 -0.00000000000E+00 -0.28967705706E+01  0.31629384658E+01  0.12700000000E+01 0. -1.
         25    2    1    2    0    0  0.00000000000E+00  0.00000000000E+00  0.12860793990E+04  0.12921397337E+04  0.12499948337E+03 0.  0.
    9000005    1    3    3    0    0 -0.70208968143E+01  0.17887232738E+02  0.12577289932E+04  0.12578761730E+04  0.10000000000E+01 0.  0.
    9000005    1    3    3    0    0  0.70208968143E+01 -0.17887232738E+02  0.28350405821E+02  0.34263560780E+02  0.10000000000E+01 0.  0.
<mgrwt>
<rscale>  0 0.12499948E+03</rscale>
<asrwt>0</asrwt>
<pdfrwt beam="2">  1        4 0.46617953E-03 0.12499948E+03</pdfrwt>
<pdfrwt beam="1">  1       -4 0.19832457E+00 0.12499948E+03</pdfrwt>
<totfact> 0.22415042E+03</totfact>
</mgrwt>
</event>
<event>
 5    1  0.3269032E-002  0.1249993E+03  0.7818608E-02  0.1235070E+00
          4   -1    0    0  501    0  0.00000000000E+00  0.00000000000E+00  0.29377951690E+01  0.32005531483E+01  0.12700000000E+01 0. -1.
         -4   -1    0    0    0  501 -0.00000000000E+00 -0.00000000000E+00 -0.12724590597E+04  0.12724596934E+04  0.12700000000E+01 0. -1.
         25    2    1    2    0    0  0.00000000000E+00  0.00000000000E+00 -0.12695212645E+04  0.12756602466E+04  0.12499929485E+03 0.  0.
    9000005    1    3    3    0    0  0.41039901620E+02  0.13272886977E+02 -0.17328482899E+03  0.17857512428E+03  0.10000000000E+01 0.  0.
    9000005    1    3    3    0    0 -0.41039901620E+02 -0.13272886977E+02 -0.10962364355E+04  0.10970851223E+04  0.10000000000E+01 0.  0.
<mgrwt>
<rscale>  0 0.12499929E+03</rscale>
<asrwt>0</asrwt>
<pdfrwt beam="1">  1        4 0.47223041E-03 0.12499929E+03</pdfrwt>
<pdfrwt beam="2">  1       -4 0.19578277E+00 0.12499929E+03</pdfrwt>
<totfact> 0.22810784E+03</totfact>
</mgrwt>
</event>
<event>
 5    1  0.3269032E-002  0.1250006E+03  0.7818608E-02  0.1235068E+00
          4   -1    0    0  501    0  0.00000000000E+00  0.00000000000E+00  0.37679084353E+02  0.37700481398E+02  0.12700000000E+01 0.  1.
         -4   -1    0    0    0  501 -0.00000000000E+00 -0.00000000000E+00 -0.10361792740E+03  0.10362571002E+03  0.12700000000E+01 0.  1.
         25    2    1    2    0    0  0.00000000000E+00  0.00000000000E+00 -0.65938843044E+02  0.14132619142E+03  0.12500064544E+03 0.  0.
    9000005    1    3    3    0    0  0.56804853472E+02  0.12520073015E+02 -0.71444251385E+01  0.58613875634E+02  0.10000000000E+01 0.  0.
    9000005    1    3    3    0    0 -0.56804853472E+02 -0.12520073015E+02 -0.58794417905E+02  0.82712315788E+02  0.10000000000E+01 0.  0.
<mgrwt>
<rscale>  0 0.12500065E+03</rscale>
<asrwt>0</asrwt>
<pdfrwt beam="1">  1        4 0.57990268E-02 0.12500065E+03</pdfrwt>
<pdfrwt beam="2">  1       -4 0.15943464E-01 0.12500065E+03</pdfrwt>
<totfact> 0.10106027E+04</totfact>
</mgrwt>
</event>
<event>
 5    1  0.3269032E-002  0.1249961E+03  0.7818608E-02  0.1235075E+00
         -4   -1    0    0    0  501 -0.00000000000E+00  0.00000000000E+00  0.61715362091E+03  0.61715492763E+03  0.12700000000E+01 0. -1.
          4   -1    0    0  501    0  0.00000000000E+00 -0.00000000000E+00 -0.62640290228E+01  0.63914755416E+01  0.12700000000E+01 0. -1.
         25    2    1    2    0    0  0.00000000000E+00  0.00000000000E+00  0.61088959189E+03  0.62354640317E+03  0.12499609368E+03 0.  0.
    9000005    1    3    3    0    0  0.24725653036E+02  0.54966153893E+02  0.38777361146E+03  0.39243089804E+03  0.10000000000E+01 0.  0.
    9000005    1    3    3    0    0 -0.24725653036E+02 -0.54966153893E+02  0.22311598043E+03  0.23111550514E+03  0.10000000000E+01 0.  0.
<mgrwt>
<rscale>  0 0.12499609E+03</rscale>
<asrwt>0</asrwt>
<pdfrwt beam="2">  1        4 0.97360083E-03 0.12499609E+03</pdfrwt>
<pdfrwt beam="1">  1       -4 0.94956619E-01 0.12499609E+03</pdfrwt>
<totfact> 0.47418302E+03</totfact>
</mgrwt>
</event>
<event>
 5    1  0.3269032E-002  0.1249981E+03  0.7818608E-02  0.1235072E+00
          4   -1    0    0  501    0  0.00000000000E+00  0.00000000000E+00  0.25377660921E+03  0.25377978699E+03  0.12700000000E+01 0. -1.
         -4   -1    0    0    0  501 -0.00000000000E+00 -0.00000000000E+00 -0.15362523577E+02  0.15414928824E+02  0.12700000000E+01 0. -1.
         25    2    1    2    0    0  0.00000000000E+00  0.00000000000E+00  0.23841408564E+03  0.26919471581E+03  0.12499807515E+03 0.  0.
    9000005    1    3    3    0    0  0.24983750511E+02  0.55783651384E+02  0.14721417120E+03  0.15940205693E+03  0.10000000000E+01 0.  0.
    9000005    1    3    3    0    0 -0.24983750511E+02 -0.55783651384E+02  0.91199914436E+02  0.10979265888E+03  0.10000000000E+01 0.  0.
<mgrwt>
<rscale>  0 0.12499808E+03</rscale>
<asrwt>0</asrwt>
<pdfrwt beam="1">  1        4 0.39046831E-01 0.12499808E+03</pdfrwt>
<pdfrwt beam="2">  1       -4 0.23677408E-02 0.12499808E+03</pdfrwt>
<totfact> 0.79636191E+03</totfact>
</mgrwt>
</event>
<event>
 5    1  0.3269032E-002  0.1249986E+03  0.7818608E-02  0.1235072E+00
          4   -1    0    0  501    0  0.00000000000E+00  0.00000000000E+00  0.24452101426E+02  0.24485060020E+02  0.12700000000E+01 0.  1.
         -4   -1    0    0    0  501 -0.00000000000E+00 -0.00000000000E+00 -0.15960431745E+03  0.15960937018E+03  0.12700000000E+01 0.  1.
         25    2    1    2    0    0  0.00000000000E+00  0.00000000000E+00 -0.13515221602E+03  0.18409443020E+03  0.12499855093E+03 0.  0.
    9000005    1    3    3    0    0  0.26958261068E+02 -0.98957658240E+01 -0.14931810603E+03  0.15205778773E+03  0.10000000000E+01 0.  0.
    9000005    1    3    3    0    0 -0.26958261068E+02  0.98957658240E+01  0.14165890005E+02  0.32036642469E+02  0.10000000000E+01 0.  0.
<mgrwt>
<rscale>  0 0.12499855E+03</rscale>
<asrwt>0</asrwt>
<pdfrwt beam="1">  1        4 0.37647858E-02 0.12499855E+03</pdfrwt>
<pdfrwt beam="2">  1       -4 0.24557434E-01 0.12499855E+03</pdfrwt>
<totfact> 0.92888158E+03</totfact>
</mgrwt>
</event>
<event>
 5    1  0.3269032E-002  0.1250007E+03  0.7818608E-02  0.1235068E+00
          4   -1    0    0  501    0  0.00000000000E+00  0.00000000000E+00  0.40560348110E+02  0.40580225958E+02  0.12700000000E+01 0.  1.
         -4   -1    0    0    0  501 -0.00000000000E+00 -0.00000000000E+00 -0.96260606082E+02  0.96268983495E+02  0.12700000000E+01 0.  1.
         25    2    1    2    0    0  0.00000000000E+00  0.00000000000E+00 -0.55700257971E+02  0.13684920945E+03  0.12500074956E+03 0.  0.
    9000005    1    3    3    0    0  0.53115932519E+02  0.18563788700E+02 -0.57619085795E+02  0.80541142195E+02  0.10000000000E+01 0.  0.
    9000005    1    3    3    0    0 -0.53115932519E+02 -0.18563788700E+02  0.19188278239E+01  0.56308067259E+02  0.10000000000E+01 0.  0.
<mgrwt>
<rscale>  0 0.12500075E+03</rscale>
<asrwt>0</asrwt>
<pdfrwt beam="1">  1        4 0.62422271E-02 0.12500075E+03</pdfrwt>
<pdfrwt beam="2">  1       -4 0.14811497E-01 0.12500075E+03</pdfrwt>
<totfact> 0.10199067E+04</totfact>
</mgrwt>
</event>
<event>
 5    1  0.3269032E-002  0.1250001E+03  0.7818608E-02  0.1235069E+00
         -4   -1    0    0    0  501 -0.00000000000E+00  0.00000000000E+00  0.32813523096E+02  0.32838090657E+02  0.12700000000E+01 0.  1.
          4   -1    0    0  501    0  0.00000000000E+00 -0.00000000000E+00 -0.11897164005E+03  0.11897841837E+03  0.12700000000E+01 0.  1.
         25    2    1    2    0    0  0.00000000000E+00  0.00000000000E+00 -0.86158116956E+02  0.15181650902E+03  0.12500012518E+03 0.  0.
    9000005    1    3    3    0    0  0.62140508651E+01  0.59908906912E+02 -0.22844585565E+02  0.64424891502E+02  0.10000000000E+01 0.  0.
    9000005    1    3    3    0    0 -0.62140508651E+01 -0.59908906912E+02 -0.63313531391E+02  0.87391617520E+02  0.10000000000E+01 0.  0.
<mgrwt>
<rscale>  0 0.12500013E+03</rscale>
<asrwt>0</asrwt>
<pdfrwt beam="2">  1        4 0.18305740E-01 0.12500013E+03</pdfrwt>
<pdfrwt beam="1">  1       -4 0.50506456E-02 0.12500013E+03</pdfrwt>
<totfact> 0.98942551E+03</totfact>
</mgrwt>
</event>
<event>
 5    1  0.3269032E-002  0.1250001E+03  0.7818608E-02  0.1235069E+00
         -4   -1    0    0    0  501 -0.00000000000E+00  0.00000000000E+00  0.97114964399E+02  0.97123268119E+02  0.12700000000E+01 0.  1.
          4   -1    0    0  501    0  0.00000000000E+00 -0.00000000000E+00 -0.40202946569E+02  0.40223001042E+02  0.12700000000E+01 0.  1.
         25    2    1    2    0    0  0.00000000000E+00  0.00000000000E+00  0.56912017830E+02  0.13734626916E+03  0.12500007952E+03 0.  0.
    9000005    1    3    3    0    0 -0.36737974801E+02 -0.47049351605E+02  0.81381397371E+01  0.60254042166E+02  0.10000000000E+01 0.  0.
    9000005    1    3    3    0    0  0.36737974801E+02  0.47049351605E+02  0.48773878093E+02  0.77092226996E+02  0.10000000000E+01 0.  0.
<mgrwt>
<rscale>  0 0.12500008E+03</rscale>
<asrwt>0</asrwt>
<pdfrwt beam="2">  1        4 0.61872502E-02 0.12500008E+03</pdfrwt>
<pdfrwt beam="1">  1       -4 0.14942945E-01 0.12500008E+03</pdfrwt>
<totfact> 0.10188832E+04</totfact>
</mgrwt>
</event>
<event>
 5    1  0.3269032E-002  0.1249966E+03  0.7818608E-02  0.1235075E+00
          4   -1    0    0  501    0  0.00000000000E+00  0.00000000000E+00  0.77607805111E+03  0.77607909024E+03  0.12700000000E+01 0. -1.
         -4   -1    0    0    0  501 -0.00000000000E+00 -0.00000000000E+00 -0.49518764036E+01  0.51121404437E+01  0.12700000000E+01 0. -1.
         25    2    1    2    0    0  0.00000000000E+00  0.00000000000E+00  0.77112617470E+03  0.78119123068E+03  0.12499664630E+03 0.  0.
    9000005    1    3    3    0    0  0.58487100274E+02 -0.10369230211E+02  0.26425155425E+03  0.27084708925E+03  0.10000000000E+01 0.  0.
    9000005    1    3    3    0    0 -0.58487100274E+02  0.10369230211E+02  0.50687462046E+03  0.51034414143E+03  0.10000000000E+01 0.  0.
<mgrwt>
<rscale>  0 0.12499665E+03</rscale>
<asrwt>0</asrwt>
<pdfrwt beam="1">  1        4 0.11940893E+00 0.12499665E+03</pdfrwt>
<pdfrwt beam="2">  1       -4 0.77423575E-03 0.12499665E+03</pdfrwt>
<totfact> 0.39121211E+03</totfact>
</mgrwt>
</event>
<event>
 5    1  0.3269032E-002  0.1249963E+03  0.7818608E-02  0.1235075E+00
          4   -1    0    0  501    0  0.00000000000E+00  0.00000000000E+00  0.33136533391E+02  0.33160861647E+02  0.12700000000E+01 0.  1.
         -4   -1    0    0    0  501 -0.00000000000E+00 -0.00000000000E+00 -0.11780556270E+03  0.11781240811E+03  0.12700000000E+01 0.  1.
         25    2    1    2    0    0  0.00000000000E+00  0.00000000000E+00 -0.84669029312E+02  0.15097326975E+03  0.12499633457E+03 0.  0.
    9000005    1    3    3    0    0  0.33509791019E+02 -0.52288702195E+02 -0.33965919767E+02  0.70793348395E+02  0.10000000000E+01 0.  0.
    9000005    1    3    3    0    0 -0.33509791019E+02  0.52288702195E+02 -0.50703109545E+02  0.80179921357E+02  0.10000000000E+01 0.  0.
<mgrwt>
<rscale>  0 0.12499633E+03</rscale>
<asrwt>0</asrwt>
<pdfrwt beam="1">  1        4 0.51003262E-02 0.12499633E+03</pdfrwt>
<pdfrwt beam="2">  1       -4 0.18126330E-01 0.12499633E+03</pdfrwt>
<totfact> 0.99118220E+03</totfact>
</mgrwt>
</event>
<event>
 5    1  0.3269032E-002  0.1250044E+03  0.7818608E-02  0.1235062E+00
         -4   -1    0    0    0  501 -0.00000000000E+00  0.00000000000E+00  0.11744896685E+02  0.11813361001E+02  0.12700000000E+01 0. -1.
          4   -1    0    0  501    0  0.00000000000E+00 -0.00000000000E+00 -0.33157854350E+03  0.33158097565E+03  0.12700000000E+01 0. -1.
         25    2    1    2    0    0  0.00000000000E+00  0.00000000000E+00 -0.31983364682E+03  0.34339433665E+03  0.12500443514E+03 0.  0.
    9000005    1    3    3    0    0 -0.61948944589E+02  0.77900678303E+01 -0.15256090951E+03  0.16484595234E+03  0.10000000000E+01 0.  0.
    9000005    1    3    3    0    0  0.61948944589E+02 -0.77900678303E+01 -0.16727273731E+03  0.17854838431E+03  0.10000000000E+01 0.  0.
<mgrwt>
<rscale>  0 0.12500444E+03</rscale>
<asrwt>0</asrwt>
<pdfrwt beam="2">  1        4 0.51017530E-01 0.12500444E+03</pdfrwt>
<pdfrwt beam="1">  1       -4 0.18123610E-02 0.12500444E+03</pdfrwt>
<totfact> 0.70450511E+03</totfact>
</mgrwt>
</event>
<event>
 5    1  0.3269032E-002  0.1249987E+03  0.7818608E-02  0.1235071E+00
         -4   -1    0    0    0  501 -0.00000000000E+00  0.00000000000E+00  0.51438379904E+02  0.51454055498E+02  0.12700000000E+01 0. -1.
          4   -1    0    0  501    0  0.00000000000E+00 -0.00000000000E+00 -0.75906259911E+02  0.75916883456E+02  0.12700000000E+01 0. -1.
         25    2    1    2    0    0  0.00000000000E+00  0.00000000000E+00 -0.24467880007E+02  0.12737093895E+03  0.12499871575E+03 0.  0.
    9000005    1    3    3    0    0 -0.45151423103E+01  0.35556086184E+02 -0.64396735203E+02  0.73705910751E+02  0.10000000000E+01 0.  0.
    9000005    1    3    3    0    0  0.45151423103E+01 -0.35556086184E+02  0.39928855196E+02  0.53665028204E+02  0.10000000000E+01 0.  0.
<mgrwt>
<rscale>  0 0.12499872E+03</rscale>
<asrwt>0</asrwt>
<pdfrwt beam="2">  1        4 0.11679909E-01 0.12499872E+03</pdfrwt>
<pdfrwt beam="1">  1       -4 0.79156198E-02 0.12499872E+03</pdfrwt>
<totfact> 0.10401398E+04</totfact>
</mgrwt>
</event>
<event>
 5    1  0.3269032E-002  0.1249978E+03  0.7818608E-02  0.1235073E+00
         -4   -1    0    0    0  501 -0.00000000000E+00  0.00000000000E+00  0.99791834083E+02  0.99799915078E+02  0.12700000000E+01 0. -1.
          4   -1    0    0  501    0  0.00000000000E+00 -0.00000000000E+00 -0.39122666642E+02  0.39143274584E+02  0.12700000000E+01 0. -1.
         25    2    1    2    0    0  0.00000000000E+00  0.00000000000E+00  0.60669167441E+02  0.13894318966E+03  0.12499784828E+03 0.  0.
    9000005    1    3    3    0    0  0.30419723358E+02  0.52475887059E+02  0.13622726638E+02  0.62174407700E+02  0.10000000000E+01 0.  0.
    9000005    1    3    3    0    0 -0.30419723358E+02 -0.52475887059E+02  0.47046440803E+02  0.76768781963E+02  0.10000000000E+01 0.  0.
<mgrwt>
<rscale>  0 0.12499785E+03</rscale>
<asrwt>0</asrwt>
<pdfrwt beam="2">  1        4 0.60210787E-02 0.12499785E+03</pdfrwt>
<pdfrwt beam="1">  1       -4 0.15354797E-01 0.12499785E+03</pdfrwt>
<totfact> 0.10156028E+04</totfact>
</mgrwt>
</event>
<event>
 5    1  0.3269032E-002  0.1250028E+03  0.7818608E-02  0.1235065E+00
         -4   -1    0    0    0  501 -0.00000000000E+00  0.00000000000E+00  0.44887410459E+02  0.44905372927E+02  0.12700000000E+01 0.  1.
          4   -1    0    0  501    0  0.00000000000E+00 -0.00000000000E+00 -0.86987200197E+02  0.86996470607E+02  0.12700000000E+01 0.  1.
         25    2    1    2    0    0  0.00000000000E+00  0.00000000000E+00 -0.42099789737E+02  0.13190184353E+03  0.12500281610E+03 0.  0.
    9000005    1    3    3    0    0  0.14406477304E+02 -0.56228730022E+02 -0.45484102255E+02  0.73749713397E+02  0.10000000000E+01 0.  0.
    9000005    1    3    3    0    0 -0.14406477304E+02  0.56228730022E+02  0.33843125180E+01  0.58152130137E+02  0.10000000000E+01 0.  0.
<mgrwt>
<rscale>  0 0.12500282E+03</rscale>
<asrwt>0</asrwt>
<pdfrwt beam="2">  1        4 0.13384741E-01 0.12500282E+03</pdfrwt>
<pdfrwt beam="1">  1       -4 0.69078503E-02 0.12500282E+03</pdfrwt>
<totfact> 0.10303139E+04</totfact>
</mgrwt>
</event>
<event>
 4    1  0.3269032E-002  0.1250780E+03  0.7818608E-02  0.1234947E+00
         -4   -1    0    0    0  501 -0.00000000000E+00  0.00000000000E+00  0.11391379095E+02  0.11461955230E+02  0.12700000000E+01 0. -1.
          4   -1    0    0  501    0  0.00000000000E+00 -0.00000000000E+00 -0.34220882543E+03  0.34221118202E+03  0.12700000000E+01 0. -1.
    9000005    1    1    2    0    0  0.17593081255E+02 -0.46908588008E+02 -0.59601506365E+02  0.77867012900E+02  0.10000000000E+01 0.  0.
    9000005    1    1    2    0    0 -0.17593081255E+02  0.46908588008E+02 -0.27121593997E+03  0.27580612435E+03  0.10000000000E+01 0.  0.
<mgrwt>
<rscale>  0 0.12507800E+03</rscale>
<asrwt>0</asrwt>
<pdfrwt beam="2">  1        4 0.52653114E-01 0.12507800E+03</pdfrwt>
<pdfrwt beam="1">  1       -4 0.17581303E-02 0.12507800E+03</pdfrwt>
<totfact> 0.69202853E+03</totfact>
</mgrwt>
</event>
<event>
 5    1  0.3269032E-002  0.1249920E+03  0.7818608E-02  0.1235082E+00
          4   -1    0    0  501    0  0.00000000000E+00  0.00000000000E+00  0.26691071563E+03  0.26691373704E+03  0.12700000000E+01 0.  1.
         -4   -1    0    0    0  501 -0.00000000000E+00 -0.00000000000E+00 -0.14602493986E+02  0.14657616812E+02  0.12700000000E+01 0.  1.
         25    2    1    2    0    0  0.00000000000E+00  0.00000000000E+00  0.25230822165E+03  0.28157135385E+03  0.12499195413E+03 0.  0.
    9000005    1    3    3    0    0  0.32581641007E+02 -0.52812955946E+02  0.10960385310E+03  0.12595545348E+03  0.10000000000E+01 0.  0.
    9000005    1    3    3    0    0 -0.32581641007E+02  0.52812955946E+02  0.14270436854E+03  0.15561590037E+03  0.10000000000E+01 0.  0.
<mgrwt>
<rscale>  0 0.12499195E+03</rscale>
<asrwt>0</asrwt>
<pdfrwt beam="1">  1        4 0.41067657E-01 0.12499195E+03</pdfrwt>
<pdfrwt beam="2">  1       -4 0.22510103E-02 0.12499195E+03</pdfrwt>
<totfact> 0.77984161E+03</totfact>
</mgrwt>
</event>
<event>
 5    1  0.3269032E-002  0.1249976E+03  0.7818608E-02  0.1235073E+00
          4   -1    0    0  501    0  0.00000000000E+00  0.00000000000E+00  0.53737789289E+02  0.53752794324E+02  0.12700000000E+01 0. -1.
         -4   -1    0    0    0  501 -0.00000000000E+00 -0.00000000000E+00 -0.72657382903E+02  0.72668481410E+02  0.12700000000E+01 0. -1.
         25    2    1    2    0    0  0.00000000000E+00  0.00000000000E+00 -0.18919593615E+02  0.12642127573E+03  0.12499755172E+03 0.  0.
    9000005    1    3    3    0    0  0.11221858907E+02  0.25084389326E+01 -0.71583143974E+02  0.72507716033E+02  0.10000000000E+01 0.  0.
    9000005    1    3    3    0    0 -0.11221858907E+02 -0.25084389326E+01  0.52663550359E+02  0.53913559701E+02  0.10000000000E+01 0.  0.
<mgrwt>
<rscale>  0 0.12499755E+03</rscale>
<asrwt>0</asrwt>
<pdfrwt beam="1">  1        4 0.82693601E-02 0.12499755E+03</pdfrwt>
<pdfrwt beam="2">  1       -4 0.11180067E-01 0.12499755E+03</pdfrwt>
<totfact> 0.10422321E+04</totfact>
</mgrwt>
</event>
<event>
 5    1  0.3269032E-002  0.1249979E+03  0.7818608E-02  0.1235073E+00
         -4   -1    0    0    0  501 -0.00000000000E+00  0.00000000000E+00  0.26050975158E+03  0.26051284722E+03  0.12700000000E+01 0. -1.
          4   -1    0    0  501    0  0.00000000000E+00 -0.00000000000E+00 -0.14964053402E+02  0.15017849187E+02  0.12700000000E+01 0. -1.
         25    2    1    2    0    0  0.00000000000E+00  0.00000000000E+00  0.24554569817E+03  0.27553069641E+03  0.12499789906E+03 0.  0.
    9000005    1    3    3    0    0  0.43700731093E+02  0.17778541312E+02  0.32443287439E+02  0.57266022466E+02  0.10000000000E+01 0.  0.
    9000005    1    3    3    0    0 -0.43700731093E+02 -0.17778541312E+02  0.21310241073E+03  0.21826467394E+03  0.10000000000E+01 0.  0.
<mgrwt>
<rscale>  0 0.12499790E+03</rscale>
<asrwt>0</asrwt>
<pdfrwt beam="2">  1        4 0.23065382E-02 0.12499790E+03</pdfrwt>
<pdfrwt beam="1">  1       -4 0.40082801E-01 0.12499790E+03</pdfrwt>
<totfact> 0.78778136E+03</totfact>
</mgrwt>
</event>
<event>
 5    1  0.3269032E-002  0.1250004E+03  0.7818608E-02  0.1235069E+00
          4   -1    0    0  501    0  0.00000000000E+00  0.00000000000E+00  0.13298864640E+03  0.13299471031E+03  0.12700000000E+01 0. -1.
         -4   -1    0    0    0  501 -0.00000000000E+00 -0.00000000000E+00 -0.29352552896E+02  0.29380014661E+02  0.12700000000E+01 0. -1.
         25    2    1    2    0    0  0.00000000000E+00  0.00000000000E+00  0.10363609350E+03  0.16237472497E+03  0.12500044573E+03 0.  0.
    9000005    1    3    3    0    0 -0.15625105485E+02 -0.50832256994E+02  0.91838405775E+01  0.53975968729E+02  0.10000000000E+01 0.  0.
    9000005    1    3    3    0    0  0.15625105485E+02  0.50832256994E+02  0.94452252926E+02  0.10839875624E+03  0.10000000000E+01 0.  0.
<mgrwt>
<rscale>  0 0.12500045E+03</rscale>
<asrwt>0</asrwt>
<pdfrwt beam="1">  1        4 0.20462370E-01 0.12500045E+03</pdfrwt>
<pdfrwt beam="2">  1       -4 0.45183564E-02 0.12500045E+03</pdfrwt>
<totfact> 0.96885931E+03</totfact>
</mgrwt>
</event>
<event>
 5    1  0.3269032E-002  0.1250013E+03  0.7818608E-02  0.1235067E+00
         -4   -1    0    0    0  501 -0.00000000000E+00  0.00000000000E+00  0.72651455165E+02  0.72662554577E+02  0.12700000000E+01 0.  1.
          4   -1    0    0  501    0  0.00000000000E+00 -0.00000000000E+00 -0.53745371991E+02  0.53760374910E+02  0.12700000000E+01 0.  1.
         25    2    1    2    0    0  0.00000000000E+00  0.00000000000E+00  0.18906083174E+02  0.12642292949E+03  0.12500126847E+03 0.  0.
    9000005    1    3    3    0    0  0.33122173108E+02  0.42270139313E+02  0.41777234666E+02  0.68045428688E+02  0.10000000000E+01 0.  0.
    9000005    1    3    3    0    0 -0.33122173108E+02 -0.42270139313E+02 -0.22871151492E+02  0.58377500799E+02  0.10000000000E+01 0.  0.
<mgrwt>
<rscale>  0 0.12500127E+03</rscale>
<asrwt>0</asrwt>
<pdfrwt beam="2">  1        4 0.82705267E-02 0.12500127E+03</pdfrwt>
<pdfrwt beam="1">  1       -4 0.11179155E-01 0.12500127E+03</pdfrwt>
<totfact> 0.10421411E+04</totfact>
</mgrwt>
</event>
<event>
 5    1  0.3269032E-002  0.1250026E+03  0.7818608E-02  0.1235065E+00
         -4   -1    0    0    0  501 -0.00000000000E+00  0.00000000000E+00  0.43691305727E+01  0.45499672484E+01  0.12700000000E+01 0. -1.
          4   -1    0    0  501    0  0.00000000000E+00 -0.00000000000E+00 -0.87578449032E+03  0.87578541115E+03  0.12700000000E+01 0. -1.
         25    2    1    2    0    0  0.00000000000E+00  0.00000000000E+00 -0.87141535975E+03  0.88033537840E+03  0.12500259701E+03 0.  0.
    9000005    1    3    3    0    0  0.30604269843E+02 -0.54147547290E+02 -0.39296574513E+03  0.39785883810E+03  0.10000000000E+01 0.  0.
    9000005    1    3    3    0    0 -0.30604269843E+02  0.54147547290E+02 -0.47844961462E+03  0.48247654030E+03  0.10000000000E+01 0.  0.
<mgrwt>
<rscale>  0 0.12500260E+03</rscale>
<asrwt>0</asrwt>
<pdfrwt beam="2">  1        4 0.13474992E+00 0.12500260E+03</pdfrwt>
<pdfrwt beam="1">  1       -4 0.68615598E-03 0.12500260E+03</pdfrwt>
<totfact> 0.34915144E+03</totfact>
</mgrwt>
</event>
<event>
 5    1  0.3269032E-002  0.1249938E+03  0.7818608E-02  0.1235079E+00
         -4   -1    0    0    0  501 -0.00000000000E+00  0.00000000000E+00  0.13433301021E+03  0.13433901344E+03  0.12700000000E+01 0. -1.
          4   -1    0    0  501    0  0.00000000000E+00 -0.00000000000E+00 -0.29055455256E+02  0.29083197557E+02  0.12700000000E+01 0. -1.
         25    2    1    2    0    0  0.00000000000E+00  0.00000000000E+00  0.10527755496E+03  0.16342221100E+03  0.12499382173E+03 0.  0.
    9000005    1    3    3    0    0  0.41941103126E+02  0.21182129896E+02 -0.12228490799E+01  0.47013127084E+02  0.10000000000E+01 0.  0.
    9000005    1    3    3    0    0 -0.41941103126E+02 -0.21182129896E+02  0.10650040404E+03  0.11640908392E+03  0.10000000000E+01 0.  0.
<mgrwt>
<rscale>  0 0.12499382E+03</rscale>
<asrwt>0</asrwt>
<pdfrwt beam="2">  1        4 0.44726658E-02 0.12499382E+03</pdfrwt>
<pdfrwt beam="1">  1       -4 0.20669213E-01 0.12499382E+03</pdfrwt>
<totfact> 0.96700460E+03</totfact>
</mgrwt>
</event>
<event>
 5    1  0.3269032E-002  0.1250051E+03  0.7818608E-02  0.1235061E+00
          4   -1    0    0  501    0  0.00000000000E+00  0.00000000000E+00  0.98377518276E+02  0.98385715437E+02  0.12700000000E+01 0. -1.
         -4   -1    0    0    0  501 -0.00000000000E+00 -0.00000000000E+00 -0.39689965692E+02  0.39710279231E+02  0.12700000000E+01 0. -1.
         25    2    1    2    0    0  0.00000000000E+00  0.00000000000E+00  0.58687552584E+02  0.13809599467E+03  0.12500509956E+03 0.  0.
    9000005    1    3    3    0    0 -0.16106030167E+02 -0.19956542001E+02 -0.33614777078E+02  0.42292091629E+02  0.10000000000E+01 0.  0.
    9000005    1    3    3    0    0  0.16106030167E+02  0.19956542001E+02  0.92302329662E+02  0.95803903039E+02  0.10000000000E+01 0.  0.
<mgrwt>
<rscale>  0 0.12500510E+03</rscale>
<asrwt>0</asrwt>
<pdfrwt beam="1">  1        4 0.15137196E-01 0.12500510E+03</pdfrwt>
<pdfrwt beam="2">  1       -4 0.61083417E-02 0.12500510E+03</pdfrwt>
<totfact> 0.10172032E+04</totfact>
</mgrwt>
</event>
<event>
 5    1  0.3269032E-002  0.1250009E+03  0.7818608E-02  0.1235068E+00
          4   -1    0    0  501    0  0.00000000000E+00  0.00000000000E+00  0.74490491116E+02  0.74501316544E+02  0.12700000000E+01 0. -1.
         -4   -1    0    0    0  501 -0.00000000000E+00 -0.00000000000E+00 -0.52418011382E+02  0.52433394104E+02  0.12700000000E+01 0. -1.
         25    2    1    2    0    0  0.00000000000E+00  0.00000000000E+00  0.22072479735E+02  0.12693471065E+03  0.12500090562E+03 0.  0.
    9000005    1    3    3    0    0 -0.53946066294E+02 -0.29216694652E+02  0.23116209604E+02  0.65567922504E+02  0.10000000000E+01 0.  0.
    9000005    1    3    3    0    0  0.53946066294E+02  0.29216694652E+02 -0.10437298696E+01  0.61366788144E+02  0.10000000000E+01 0.  0.
<mgrwt>
<rscale>  0 0.12500091E+03</rscale>
<asrwt>0</asrwt>
<pdfrwt beam="1">  1        4 0.11462092E-01 0.12500091E+03</pdfrwt>
<pdfrwt beam="2">  1       -4 0.80663255E-02 0.12500091E+03</pdfrwt>
<totfact> 0.10410352E+04</totfact>
</mgrwt>
</event>
<event>
 5    1  0.3269032E-002  0.1250014E+03  0.7818608E-02  0.1235067E+00
         -4   -1    0    0    0  501 -0.00000000000E+00  0.00000000000E+00  0.26659136770E+02  0.26689370043E+02  0.12700000000E+01 0. -1.
          4   -1    0    0  501    0  0.00000000000E+00 -0.00000000000E+00 -0.14641297358E+03  0.14641848153E+03  0.12700000000E+01 0. -1.
         25    2    1    2    0    0  0.00000000000E+00  0.00000000000E+00 -0.11975383681E+03  0.17310785157E+03  0.12500138737E+03 0.  0.
    9000005    1    3    3    0    0  0.45596207582E+02  0.36403797603E+02 -0.90876662214E+02  0.10799915908E+03  0.10000000000E+01 0.  0.
    9000005    1    3    3    0    0 -0.45596207582E+02 -0.36403797603E+02 -0.28877174597E+02  0.65108692495E+02  0.10000000000E+01 0.  0.
<mgrwt>
<rscale>  0 0.12500139E+03</rscale>
<asrwt>0</asrwt>
<pdfrwt beam="2">  1        4 0.22527822E-01 0.12500139E+03</pdfrwt>
<pdfrwt beam="1">  1       -4 0.41041551E-02 0.12500139E+03</pdfrwt>
<totfact> 0.94869577E+03</totfact>
</mgrwt>
</event>
<event>
 5    1  0.3269032E-002  0.1250218E+03  0.7818608E-02  0.1235035E+00
         -4   -1    0    0    0  501 -0.00000000000E+00  0.00000000000E+00  0.28576117555E+03  0.28576399765E+03  0.12700000000E+01 0.  1.
          4   -1    0    0  501    0  0.00000000000E+00 -0.00000000000E+00 -0.13642017915E+02  0.13701005539E+02  0.12700000000E+01 0.  1.
         25    2    1    2    0    0  0.00000000000E+00  0.00000000000E+00  0.27211915764E+03  0.29946500319E+03  0.12502180683E+03 0.  0.
    9000005    1    3    3    0    0 -0.51758339455E+01  0.34621256743E+02  0.12030278867E+02  0.37029019500E+02  0.10000000000E+01 0.  0.
    9000005    1    3    3    0    0  0.51758339455E+01 -0.34621256743E+02  0.26008887877E+03  0.26243598369E+03  0.10000000000E+01 0.  0.
<mgrwt>
<rscale>  0 0.12502181E+03</rscale>
<asrwt>0</asrwt>
<pdfrwt beam="2">  1        4 0.21035264E-02 0.12502181E+03</pdfrwt>
<pdfrwt beam="1">  1       -4 0.43968016E-01 0.12502181E+03</pdfrwt>
<totfact> 0.75629374E+03</totfact>
</mgrwt>
</event>
<event>
 5    1  0.3269032E-002  0.1249843E+03  0.7818608E-02  0.1235094E+00
         -4   -1    0    0    0  501 -0.00000000000E+00  0.00000000000E+00  0.15513535537E+02  0.15565432370E+02  0.12700000000E+01 0. -1.
          4   -1    0    0  501    0  0.00000000000E+00 -0.00000000000E+00 -0.25125912558E+03  0.25126233519E+03  0.12700000000E+01 0. -1.
         25    2    1    2    0    0  0.00000000000E+00  0.00000000000E+00 -0.23574559004E+03  0.26682776756E+03  0.12498429629E+03 0.  0.
    9000005    1    3    3    0    0 -0.15914596723E+02 -0.11198868697E+02 -0.24463530543E+03  0.24541010923E+03  0.10000000000E+01 0.  0.
    9000005    1    3    3    0    0  0.15914596723E+02  0.11198868697E+02  0.88897153858E+01  0.21417658336E+02  0.10000000000E+01 0.  0.
<mgrwt>
<rscale>  0 0.12498430E+03</rscale>
<asrwt>0</asrwt>
<pdfrwt beam="2">  1        4 0.38659486E-01 0.12498430E+03</pdfrwt>
<pdfrwt beam="1">  1       -4 0.23909369E-02 0.12498430E+03</pdfrwt>
<totfact> 0.79985272E+03</totfact>
</mgrwt>
</event>
<event>
 5    1  0.3269032E-002  0.1250018E+03  0.7818608E-02  0.1235066E+00
         -4   -1    0    0    0  501 -0.00000000000E+00  0.00000000000E+00  0.37373835781E+01  0.39472694372E+01  0.12700000000E+01 0.  1.
          4   -1    0    0  501    0  0.00000000000E+00 -0.00000000000E+00 -0.10164558164E+04  0.10164566098E+04  0.12700000000E+01 0.  1.
         25    2    1    2    0    0  0.00000000000E+00  0.00000000000E+00 -0.10127184328E+04  0.10204038792E+04  0.12500181028E+03 0.  0.
    9000005    1    3    3    0    0 -0.29848498541E+02 -0.53281392807E+02 -0.61450843410E+03  0.61753660237E+03  0.10000000000E+01 0.  0.
    9000005    1    3    3    0    0  0.29848498541E+02  0.53281392807E+02 -0.39820999872E+03  0.40286727686E+03  0.10000000000E+01 0.  0.
<mgrwt>
<rscale>  0 0.12500181E+03</rscale>
<asrwt>0</asrwt>
<pdfrwt beam="2">  1        4 0.15639381E+00 0.12500181E+03</pdfrwt>
<pdfrwt beam="1">  1       -4 0.59118899E-03 0.12500181E+03</pdfrwt>
<totfact> 0.29936012E+03</totfact>
</mgrwt>
</event>
<event>
 5    1  0.3269032E-002  0.1250027E+03  0.7818608E-02  0.1235065E+00
         -4   -1    0    0    0  501 -0.00000000000E+00  0.00000000000E+00  0.25258411129E+03  0.25258730407E+03  0.12700000000E+01 0. -1.
          4   -1    0    0  501    0  0.00000000000E+00 -0.00000000000E+00 -0.15436437108E+02  0.15488592272E+02  0.12700000000E+01 0. -1.
         25    2    1    2    0    0  0.00000000000E+00  0.00000000000E+00  0.23714767418E+03  0.26807589634E+03  0.12500266729E+03 0.  0.
    9000005    1    3    3    0    0  0.47781936126E+02  0.23108191906E+02  0.18932209416E+03  0.19662389806E+03  0.10000000000E+01 0.  0.
    9000005    1    3    3    0    0 -0.47781936126E+02 -0.23108191906E+02  0.47825580023E+02  0.71451998276E+02  0.10000000000E+01 0.  0.
<mgrwt>
<rscale>  0 0.12500267E+03</rscale>
<asrwt>0</asrwt>
<pdfrwt beam="2">  1        4 0.23790942E-02 0.12500267E+03</pdfrwt>
<pdfrwt beam="1">  1       -4 0.38863348E-01 0.12500267E+03</pdfrwt>
<totfact> 0.79781182E+03</totfact>
</mgrwt>
</event>
<event>
 5    1  0.3269032E-002  0.1250011E+03  0.7818608E-02  0.1235067E+00
          4   -1    0    0  501    0  0.00000000000E+00  0.00000000000E+00  0.10886294935E+03  0.10887035704E+03  0.12700000000E+01 0.  1.
         -4   -1    0    0    0  501 -0.00000000000E+00 -0.00000000000E+00 -0.35863060646E+02  0.35885540527E+02  0.12700000000E+01 0.  1.
         25    2    1    2    0    0  0.00000000000E+00  0.00000000000E+00  0.72999888709E+02  0.14475589757E+03  0.12500114451E+03 0.  0.
    9000005    1    3    3    0    0  0.87215771516E+00 -0.59377387015E+02  0.13958745731E+02  0.61010501802E+02  0.10000000000E+01 0.  0.
    9000005    1    3    3    0    0 -0.87215771516E+00  0.59377387015E+02  0.59041142978E+02  0.83745395765E+02  0.10000000000E+01 0.  0.
<mgrwt>
<rscale>  0 0.12500114E+03</rscale>
<asrwt>0</asrwt>
<pdfrwt beam="1">  1        4 0.16750445E-01 0.12500114E+03</pdfrwt>
<pdfrwt beam="2">  1       -4 0.55196931E-02 0.12500114E+03</pdfrwt>
<totfact> 0.10035692E+04</totfact>
</mgrwt>
</event>
<event>
 5    1  0.3269032E-002  0.1250042E+03  0.7818608E-02  0.1235063E+00
          4   -1    0    0  501    0  0.00000000000E+00  0.00000000000E+00  0.21208491435E+01  0.24720236831E+01  0.12700000000E+01 0.  1.
         -4   -1    0    0    0  501 -0.00000000000E+00 -0.00000000000E+00 -0.17007681029E+04  0.17007685770E+04  0.12700000000E+01 0.  1.
         25    2    1    2    0    0  0.00000000000E+00  0.00000000000E+00 -0.16986472537E+04  0.17032406007E+04  0.12500420534E+03 0.  0.
    9000005    1    3    3    0    0  0.10467372390E+02  0.58800246663E+02 -0.11000018257E+04  0.11016224632E+04  0.10000000000E+01 0.  0.
    9000005    1    3    3    0    0 -0.10467372390E+02 -0.58800246663E+02 -0.59864542798E+03  0.60161813747E+03  0.10000000000E+01 0.  0.
<mgrwt>
<rscale>  0 0.12500421E+03</rscale>
<asrwt>0</asrwt>
<pdfrwt beam="1">  1        4 0.35333574E-03 0.12500421E+03</pdfrwt>
<pdfrwt beam="2">  1       -4 0.26168267E+00 0.12500421E+03</pdfrwt>
<totfact> 0.14252716E+03</totfact>
</mgrwt>
</event>
<event>
 5    1  0.3269032E-002  0.1249991E+03  0.7818608E-02  0.1235071E+00
         -4   -1    0    0    0  501 -0.00000000000E+00  0.00000000000E+00  0.59379079662E+01  0.60722031434E+01  0.12700000000E+01 0.  1.
          4   -1    0    0  501    0  0.00000000000E+00 -0.00000000000E+00 -0.65034977422E+03  0.65035101425E+03  0.12700000000E+01 0.  1.
         25    2    1    2    0    0  0.00000000000E+00  0.00000000000E+00 -0.64441186626E+03  0.65642321739E+03  0.12499914782E+03 0.  0.
    9000005    1    3    3    0    0 -0.38609657648E+01  0.29382537091E+02 -0.61112749196E+03  0.61184642842E+03  0.10000000000E+01 0.  0.
    9000005    1    3    3    0    0  0.38609657648E+01 -0.29382537091E+02 -0.33284374301E+02  0.44576788973E+02  0.10000000000E+01 0.  0.
<mgrwt>
<rscale>  0 0.12499915E+03</rscale>
<asrwt>0</asrwt>
<pdfrwt beam="2">  1        4 0.10006418E+00 0.12499915E+03</pdfrwt>
<pdfrwt beam="1">  1       -4 0.92395060E-03 0.12499915E+03</pdfrwt>
<totfact> 0.45489633E+03</totfact>
</mgrwt>
</event>
<event>
 5    1  0.3269032E-002  0.1249835E+03  0.7818608E-02  0.1235095E+00
          4   -1    0    0  501    0  0.00000000000E+00  0.00000000000E+00  0.72228060354E+01  0.73336094131E+01  0.12700000000E+01 0.  1.
         -4   -1    0    0    0  501 -0.00000000000E+00 -0.00000000000E+00 -0.53645198691E+03  0.53645349022E+03  0.12700000000E+01 0.  1.
         25    2    1    2    0    0  0.00000000000E+00  0.00000000000E+00 -0.52922918088E+03  0.54378709963E+03  0.12498353423E+03 0.  0.
    9000005    1    3    3    0    0 -0.14077560331E+02  0.10218824040E+02 -0.52572547548E+03  0.52601414205E+03  0.10000000000E+01 0.  0.
    9000005    1    3    3    0    0  0.14077560331E+02 -0.10218824040E+02 -0.35037054036E+01  0.17772957582E+02  0.10000000000E+01 0.  0.
<mgrwt>
<rscale>  0 0.12498353E+03</rscale>
<asrwt>0</asrwt>
<pdfrwt beam="1">  1        4 0.11198403E-02 0.12498353E+03</pdfrwt>
<pdfrwt beam="2">  1       -4 0.82539683E-01 0.12498353E+03</pdfrwt>
<totfact> 0.52639233E+03</totfact>
</mgrwt>
</event>
<event>
 5    1  0.3269032E-002  0.1249988E+03  0.7818608E-02  0.1235071E+00
         -4   -1    0    0    0  501 -0.00000000000E+00  0.00000000000E+00  0.69460992929E+02  0.69472602073E+02  0.12700000000E+01 0. -1.
          4   -1    0    0  501    0  0.00000000000E+00 -0.00000000000E+00 -0.56212016340E+02  0.56226361086E+02  0.12700000000E+01 0. -1.
         25    2    1    2    0    0  0.00000000000E+00  0.00000000000E+00  0.13248976590E+02  0.12569896316E+03  0.12499877583E+03 0.  0.
    9000005    1    3    3    0    0 -0.20039852312E+02  0.59099825893E+02  0.33215213897E+01  0.62501340830E+02  0.10000000000E+01 0.  0.
    9000005    1    3    3    0    0  0.20039852312E+02 -0.59099825893E+02  0.99274551999E+01  0.63197622329E+02  0.10000000000E+01 0.  0.
<mgrwt>
<rscale>  0 0.12499878E+03</rscale>
<asrwt>0</asrwt>
<pdfrwt beam="2">  1        4 0.86499991E-02 0.12499878E+03</pdfrwt>
<pdfrwt beam="1">  1       -4 0.10688303E-01 0.12499878E+03</pdfrwt>
<totfact> 0.10437855E+04</totfact>
</mgrwt>
</event>
<event>
 5    1  0.3269032E-002  0.1250054E+03  0.7818608E-02  0.1235061E+00
          4   -1    0    0  501    0  0.00000000000E+00  0.00000000000E+00  0.18480710933E+03  0.18481147301E+03  0.12700000000E+01 0. -1.
         -4   -1    0    0    0  501 -0.00000000000E+00 -0.00000000000E+00 -0.21115030952E+02  0.21153189644E+02  0.12700000000E+01 0. -1.
         25    2    1    2    0    0  0.00000000000E+00  0.00000000000E+00  0.16369207837E+03  0.20596466266E+03  0.12500538285E+03 0.  0.
    9000005    1    3    3    0    0  0.55433657503E+02 -0.16696153627E+02  0.12062473595E+03  0.13380201364E+03  0.10000000000E+01 0.  0.
    9000005    1    3    3    0    0 -0.55433657503E+02  0.16696153627E+02  0.43067342420E+02  0.72162649018E+02  0.10000000000E+01 0.  0.
<mgrwt>
<rscale>  0 0.12500538E+03</rscale>
<asrwt>0</asrwt>
<pdfrwt beam="1">  1        4 0.28435134E-01 0.12500538E+03</pdfrwt>
<pdfrwt beam="2">  1       -4 0.32517373E-02 0.12500538E+03</pdfrwt>
<totfact> 0.89128444E+03</totfact>
</mgrwt>
</event>
<event>
 5    1  0.3269032E-002  0.1249992E+03  0.7818608E-02  0.1235071E+00
          4   -1    0    0  501    0  0.00000000000E+00  0.00000000000E+00  0.25921532077E+02  0.25952624631E+02  0.12700000000E+01 0. -1.
         -4   -1    0    0    0  501 -0.00000000000E+00 -0.00000000000E+00 -0.15056913987E+03  0.15057449579E+03  0.12700000000E+01 0. -1.
         25    2    1    2    0    0  0.00000000000E+00  0.00000000000E+00 -0.12464760780E+03  0.17652712042E+03  0.12499919245E+03 0.  0.
    9000005    1    3    3    0    0 -0.22954158400E+02 -0.58121939246E+02 -0.62864004003E+02  0.88645001037E+02  0.10000000000E+01 0.  0.
    9000005    1    3    3    0    0  0.22954158400E+02  0.58121939246E+02 -0.61783603794E+02  0.87882119383E+02  0.10000000000E+01 0.  0.
<mgrwt>
<rscale>  0 0.12499919E+03</rscale>
<asrwt>0</asrwt>
<pdfrwt beam="1">  1        4 0.39907318E-02 0.12499919E+03</pdfrwt>
<pdfrwt beam="2">  1       -4 0.23167286E-01 0.12499919E+03</pdfrwt>
<totfact> 0.94247602E+03</totfact>
</mgrwt>
</event>
<event>
 5    1  0.3269032E-002  0.1250028E+03  0.7818608E-02  0.1235065E+00
         -4   -1    0    0    0  501 -0.00000000000E+00  0.00000000000E+00  0.24144588455E+02  0.24177966244E+02  0.12700000000E+01 0. -1.
          4   -1    0    0  501    0  0.00000000000E+00 -0.00000000000E+00 -0.16164528931E+03  0.16165027824E+03  0.12700000000E+01 0. -1.
         25    2    1    2    0    0  0.00000000000E+00  0.00000000000E+00 -0.13750070085E+03  0.18582824449E+03  0.12500277482E+03 0.  0.
    9000005    1    3    3    0    0  0.53665607089E+02  0.14784022126E+02 -0.11097740823E+03  0.12415937271E+03  0.10000000000E+01 0.  0.
    9000005    1    3    3    0    0 -0.53665607089E+02 -0.14784022126E+02 -0.26523292625E+02  0.61668871776E+02  0.10000000000E+01 0.  0.
<mgrwt>
<rscale>  0 0.12500277E+03</rscale>
<asrwt>0</asrwt>
<pdfrwt beam="2">  1        4 0.24871457E-01 0.12500277E+03</pdfrwt>
<pdfrwt beam="1">  1       -4 0.37175034E-02 0.12500277E+03</pdfrwt>
<totfact> 0.92572540E+03</totfact>
</mgrwt>
</event>
<event>
 5    1  0.3269032E-002  0.1250005E+03  0.7818608E-02  0.1235068E+00
          4   -1    0    0  501    0  0.00000000000E+00  0.00000000000E+00  0.47698908497E+02  0.47715812597E+02  0.12700000000E+01 0.  1.
         -4   -1    0    0    0  501 -0.00000000000E+00 -0.00000000000E+00 -0.81858232994E+02  0.81868084189E+02  0.12700000000E+01 0.  1.
         25    2    1    2    0    0  0.00000000000E+00  0.00000000000E+00 -0.34159324497E+02  0.12958389679E+03  0.12500050742E+03 0.  0.
    9000005    1    3    3    0    0  0.36558909111E+02 -0.22833945431E+02  0.29826955606E+02  0.52426998580E+02  0.10000000000E+01 0.  0.
    9000005    1    3    3    0    0 -0.36558909111E+02  0.22833945431E+02 -0.63986280103E+02  0.77156898206E+02  0.10000000000E+01 0.  0.
<mgrwt>
<rscale>  0 0.12500051E+03</rscale>
<asrwt>0</asrwt>
<pdfrwt beam="1">  1        4 0.73403517E-02 0.12500051E+03</pdfrwt>
<pdfrwt beam="2">  1       -4 0.12595632E-01 0.12500051E+03</pdfrwt>
<totfact> 0.10353298E+04</totfact>
</mgrwt>
</event>
<event>
 5    1  0.3269032E-002  0.1250062E+03  0.7818608E-02  0.1235060E+00
          4   -1    0    0  501    0  0.00000000000E+00  0.00000000000E+00  0.15420104825E+02  0.15472315044E+02  0.12700000000E+01 0. -1.
         -4   -1    0    0    0  501 -0.00000000000E+00 -0.00000000000E+00 -0.25286491169E+03  0.25286810092E+03  0.12700000000E+01 0. -1.
         25    2    1    2    0    0  0.00000000000E+00  0.00000000000E+00 -0.23744480686E+03  0.26834041596E+03  0.12500616998E+03 0.  0.
    9000005    1    3    3    0    0 -0.22364853991E+02  0.58223628125E+02 -0.12716220503E+03  0.14163828563E+03  0.10000000000E+01 0.  0.
    9000005    1    3    3    0    0  0.22364853991E+02 -0.58223628125E+02 -0.11028260183E+03  0.12670213034E+03  0.10000000000E+01 0.  0.
<mgrwt>
<rscale>  0 0.12500617E+03</rscale>
<asrwt>0</asrwt>
<pdfrwt beam="1">  1        4 0.23765855E-02 0.12500617E+03</pdfrwt>
<pdfrwt beam="2">  1       -4 0.38906552E-01 0.12500617E+03</pdfrwt>
<totfact> 0.79738721E+03</totfact>
</mgrwt>
</event>
<event>
 5    1  0.3269032E-002  0.1249991E+03  0.7818608E-02  0.1235071E+00
         -4   -1    0    0    0  501 -0.00000000000E+00  0.00000000000E+00  0.39755429442E+03  0.39755632294E+03  0.12700000000E+01 0.  1.
          4   -1    0    0  501    0  0.00000000000E+00 -0.00000000000E+00 -0.97824532675E+01  0.98645472238E+01  0.12700000000E+01 0.  1.
         25    2    1    2    0    0  0.00000000000E+00  0.00000000000E+00  0.38777184115E+03  0.40742087016E+03  0.12499905862E+03 0.  0.
    9000005    1    3    3    0    0  0.65252345892E+01 -0.61437193421E+02  0.16329557324E+03  0.17459539416E+03  0.10000000000E+01 0.  0.
    9000005    1    3    3    0    0 -0.65252345892E+01  0.61437193421E+02  0.22447626791E+03  0.23282547601E+03  0.10000000000E+01 0.  0.
<mgrwt>
<rscale>  0 0.12499906E+03</rscale>
<asrwt>0</asrwt>
<pdfrwt beam="2">  1        4 0.15114640E-02 0.12499906E+03</pdfrwt>
<pdfrwt beam="1">  1       -4 0.61168661E-01 0.12499906E+03</pdfrwt>
<totfact> 0.63838717E+03</totfact>
</mgrwt>
</event>
<event>
 5    1  0.3269032E-002  0.1249983E+03  0.7818608E-02  0.1235072E+00
          4   -1    0    0  501    0  0.00000000000E+00  0.00000000000E+00  0.15254955985E+02  0.15307729489E+02  0.12700000000E+01 0. -1.
         -4   -1    0    0    0  501 -0.00000000000E+00 -0.00000000000E+00 -0.25556091559E+03  0.25556407118E+03  0.12700000000E+01 0. -1.
         25    2    1    2    0    0  0.00000000000E+00  0.00000000000E+00 -0.24030595960E+03  0.27087180067E+03  0.12499831269E+03 0.  0.
    9000005    1    3    3    0    0 -0.56131093663E+02 -0.16618250142E+01 -0.60740583712E+02  0.82727745333E+02  0.10000000000E+01 0.  0.
    9000005    1    3    3    0    0  0.56131093663E+02  0.16618250142E+01 -0.17956537589E+03  0.18814405533E+03  0.10000000000E+01 0.  0.
<mgrwt>
<rscale>  0 0.12499831E+03</rscale>
<asrwt>0</asrwt>
<pdfrwt beam="1">  1        4 0.23512187E-02 0.12499831E+03</pdfrwt>
<pdfrwt beam="2">  1       -4 0.39321363E-01 0.12499831E+03</pdfrwt>
<totfact> 0.79407140E+03</totfact>
</mgrwt>
</event>
<event>
 5    1  0.3269032E-002  0.1249996E+03  0.7818608E-02  0.1235070E+00
         -4   -1    0    0    0  501 -0.00000000000E+00  0.00000000000E+00  0.11769876476E+03  0.11770561637E+03  0.12700000000E+01 0.  1.
          4   -1    0    0  501    0  0.00000000000E+00 -0.00000000000E+00 -0.33168369631E+02  0.33192674553E+02  0.12700000000E+01 0.  1.
         25    2    1    2    0    0  0.00000000000E+00  0.00000000000E+00  0.84530395124E+02  0.15089829092E+03  0.12499962601E+03 0.  0.
    9000005    1    3    3    0    0 -0.36625687045E+02  0.54929182772E+01 -0.18498723592E+02  0.41410335392E+02  0.10000000000E+01 0.  0.
    9000005    1    3    3    0    0  0.36625687045E+02 -0.54929182772E+01  0.10302911872E+03  0.10948795553E+03  0.10000000000E+01 0.  0.
<mgrwt>
<rscale>  0 0.12499963E+03</rscale>
<asrwt>0</asrwt>
<pdfrwt beam="2">  1        4 0.51052228E-02 0.12499963E+03</pdfrwt>
<pdfrwt beam="1">  1       -4 0.18109899E-01 0.12499963E+03</pdfrwt>
<totfact> 0.99125772E+03</totfact>
</mgrwt>
</event>
<event>
 5    1  0.3269032E-002  0.1250002E+03  0.7818608E-02  0.1235069E+00
          4   -1    0    0  501    0  0.00000000000E+00  0.00000000000E+00  0.10805070353E+03  0.10805816690E+03  0.12700000000E+01 0. -1.
         -4   -1    0    0    0  501 -0.00000000000E+00 -0.00000000000E+00 -0.36132268261E+02  0.36154580757E+02  0.12700000000E+01 0. -1.
         25    2    1    2    0    0  0.00000000000E+00  0.00000000000E+00  0.71918435268E+02  0.14421274765E+03  0.12500022102E+03 0.  0.
    9000005    1    3    3    0    0 -0.19601474476E+02 -0.11569238912E+02 -0.31185709833E+02  0.38621413599E+02  0.10000000000E+01 0.  0.
    9000005    1    3    3    0    0  0.19601474476E+02  0.11569238912E+02  0.10310414510E+03  0.10559133405E+03  0.10000000000E+01 0.  0.
<mgrwt>
<rscale>  0 0.12500022E+03</rscale>
<asrwt>0</asrwt>
<pdfrwt beam="1">  1        4 0.16625476E-01 0.12500022E+03</pdfrwt>
<pdfrwt beam="2">  1       -4 0.55611010E-02 0.12500022E+03</pdfrwt>
<totfact> 0.10046958E+04</totfact>
</mgrwt>
</event>
<event>
 5    1  0.3269032E-002  0.1250084E+03  0.7818608E-02  0.1235056E+00
          4   -1    0    0  501    0  0.00000000000E+00  0.00000000000E+00  0.32486081054E+03  0.32486329298E+03  0.12700000000E+01 0.  1.
         -4   -1    0    0    0  501 -0.00000000000E+00 -0.00000000000E+00 -0.11989940538E+02  0.12057013482E+02  0.12700000000E+01 0.  1.
         25    2    1    2    0    0  0.00000000000E+00  0.00000000000E+00  0.31287087000E+03  0.33692030646E+03  0.12500844615E+03 0.  0.
    9000005    1    3    3    0    0 -0.18279142567E+02 -0.47854206119E+02  0.59948513102E+02  0.78860486426E+02  0.10000000000E+01 0.  0.
    9000005    1    3    3    0    0  0.18279142567E+02  0.47854206119E+02  0.25292235690E+03  0.25805982003E+03  0.10000000000E+01 0.  0.
<mgrwt>
<rscale>  0 0.12500845E+03</rscale>
<asrwt>0</asrwt>
<pdfrwt beam="1">  1        4 0.49983936E-01 0.12500845E+03</pdfrwt>
<pdfrwt beam="2">  1       -4 0.18499567E-02 0.12500845E+03</pdfrwt>
<totfact> 0.71174548E+03</totfact>
</mgrwt>
</event>
<event>
 5    1  0.3269032E-002  0.1249949E+03  0.7818608E-02  0.1235077E+00
          4   -1    0    0  501    0  0.00000000000E+00  0.00000000000E+00  0.14680526604E+03  0.14681075927E+03  0.12700000000E+01 0. -1.
         -4   -1    0    0    0  501 -0.00000000000E+00 -0.00000000000E+00 -0.26585068444E+02  0.26615385854E+02  0.12700000000E+01 0. -1.
         25    2    1    2    0    0  0.00000000000E+00  0.00000000000E+00  0.12022019759E+03  0.17342614512E+03  0.12499492750E+03 0.  0.
    9000005    1    3    3    0    0  0.52793067964E+02  0.33429582056E+02  0.60854683108E+02  0.87229223530E+02  0.10000000000E+01 0.  0.
    9000005    1    3    3    0    0 -0.52793067964E+02 -0.33429582056E+02  0.59365514486E+02  0.86196921590E+02  0.10000000000E+01 0.  0.
<mgrwt>
<rscale>  0 0.12499493E+03</rscale>
<asrwt>0</asrwt>
<pdfrwt beam="1">  1        4 0.22588180E-01 0.12499493E+03</pdfrwt>
<pdfrwt beam="2">  1       -4 0.40927653E-02 0.12499493E+03</pdfrwt>
<totfact> 0.94824673E+03</totfact>
</mgrwt>
</event>
<event>
 5    1  0.3269032E-002  0.1249981E+03  0.7818608E-02  0.1235072E+00
          4   -1    0    0  501    0  0.00000000000E+00  0.00000000000E+00  0.68124105819E+01  0.69297790684E+01  0.12700000000E+01 0.  1.
         -4   -1    0    0    0  501 -0.00000000000E+00 -0.00000000000E+00 -0.56836909475E+03  0.56837051363E+03  0.12700000000E+01 0.  1.
         25    2    1    2    0    0  0.00000000000E+00  0.00000000000E+00 -0.56155668417E+03  0.57530029270E+03  0.12499806898E+03 0.  0.
    9000005    1    3    3    0    0  0.60668868584E+02  0.12487474615E+02 -0.24269147015E+03  0.25047314891E+03  0.10000000000E+01 0.  0.
    9000005    1    3    3    0    0 -0.60668868584E+02 -0.12487474615E+02 -0.31886521401E+03  0.32482714380E+03  0.10000000000E+01 0.  0.
<mgrwt>
<rscale>  0 0.12499807E+03</rscale>
<asrwt>0</asrwt>
<pdfrwt beam="1">  1        4 0.10572011E-02 0.12499807E+03</pdfrwt>
<pdfrwt beam="2">  1       -4 0.87450500E-01 0.12499807E+03</pdfrwt>
<totfact> 0.50466944E+03</totfact>
</mgrwt>
</event>
<event>
 5    1  0.3269032E-002  0.1249971E+03  0.7818608E-02  0.1235074E+00
          4   -1    0    0  501    0  0.00000000000E+00  0.00000000000E+00  0.92679873022E+01  0.93545971925E+01  0.12700000000E+01 0.  1.
         -4   -1    0    0    0  501 -0.00000000000E+00 -0.00000000000E+00 -0.41941040766E+03  0.41941233047E+03  0.12700000000E+01 0.  1.
         25    2    1    2    0    0  0.00000000000E+00  0.00000000000E+00 -0.41014242035E+03  0.42876692766E+03  0.12499709310E+03 0.  0.
    9000005    1    3    3    0    0 -0.68670720681E+01 -0.10371126604E+00 -0.41812874560E+03  0.41818634045E+03  0.10000000000E+01 0.  0.
    9000005    1    3    3    0    0  0.68670720681E+01  0.10371126604E+00  0.79863252512E+01  0.10580587216E+02  0.10000000000E+01 0.  0.
<mgrwt>
<rscale>  0 0.12499709E+03</rscale>
<asrwt>0</asrwt>
<pdfrwt beam="1">  1        4 0.14326547E-02 0.12499709E+03</pdfrwt>
<pdfrwt beam="2">  1       -4 0.64531474E-01 0.12499709E+03</pdfrwt>
<totfact> 0.61851892E+03</totfact>
</mgrwt>
</event>
<event>
 5    1  0.3269032E-002  0.1250013E+03  0.7818608E-02  0.1235067E+00
          4   -1    0    0  501    0  0.00000000000E+00  0.00000000000E+00  0.17240316104E+03  0.17240783868E+03  0.12700000000E+01 0.  1.
         -4   -1    0    0    0  501 -0.00000000000E+00 -0.00000000000E+00 -0.22635322584E+02  0.22670922532E+02  0.12700000000E+01 0.  1.
         25    2    1    2    0    0  0.00000000000E+00  0.00000000000E+00  0.14976783846E+03  0.19507876121E+03  0.12500127055E+03 0.  0.
    9000005    1    3    3    0    0  0.11116914048E+02  0.60844510936E+02  0.88815329401E+02  0.10823494364E+03  0.10000000000E+01 0.  0.
    9000005    1    3    3    0    0 -0.11116914048E+02 -0.60844510936E+02  0.60952509056E+02  0.86843817564E+02  0.10000000000E+01 0.  0.
<mgrwt>
<rscale>  0 0.12500127E+03</rscale>
<asrwt>0</asrwt>
<pdfrwt beam="1">  1        4 0.26526661E-01 0.12500127E+03</pdfrwt>
<pdfrwt beam="2">  1       -4 0.34854556E-02 0.12500127E+03</pdfrwt>
<totfact> 0.90968471E+03</totfact>
</mgrwt>
</event>
<event>
 5    1  0.3269032E-002  0.1249962E+03  0.7818608E-02  0.1235075E+00
         -4   -1    0    0    0  501 -0.00000000000E+00  0.00000000000E+00  0.53123950331E+02  0.53139128698E+02  0.12700000000E+01 0. -1.
          4   -1    0    0  501    0  0.00000000000E+00 -0.00000000000E+00 -0.73495265779E+02  0.73506237775E+02  0.12700000000E+01 0. -1.
         25    2    1    2    0    0  0.00000000000E+00  0.00000000000E+00 -0.20371315448E+02  0.12664536647E+03  0.12499623337E+03 0.  0.
    9000005    1    3    3    0    0 -0.32657510003E+02  0.12765019307E+02 -0.62593875890E+02  0.71752714070E+02  0.10000000000E+01 0.  0.
    9000005    1    3    3    0    0  0.32657510003E+02 -0.12765019307E+02  0.42222560442E+02  0.54892652403E+02  0.10000000000E+01 0.  0.
<mgrwt>
<rscale>  0 0.12499623E+03</rscale>
<asrwt>0</asrwt>
<pdfrwt beam="2">  1        4 0.11308976E-01 0.12499623E+03</pdfrwt>
<pdfrwt beam="1">  1       -4 0.81749270E-02 0.12499623E+03</pdfrwt>
<totfact> 0.10417746E+04</totfact>
</mgrwt>
</event>
<event>
 5    1  0.3269032E-002  0.1249940E+03  0.7818608E-02  0.1235079E+00
          4   -1    0    0  501    0  0.00000000000E+00  0.00000000000E+00  0.50358329795E+01  0.51935068882E+01  0.12700000000E+01 0. -1.
         -4   -1    0    0    0  501 -0.00000000000E+00 -0.00000000000E+00 -0.76350335752E+03  0.76350441376E+03  0.12700000000E+01 0. -1.
         25    2    1    2    0    0  0.00000000000E+00  0.00000000000E+00 -0.75846752454E+03  0.76869792065E+03  0.12499402962E+03 0.  0.
    9000005    1    3    3    0    0  0.58364460757E+02 -0.18432541833E+02 -0.30175800642E+03  0.30790430870E+03  0.10000000000E+01 0.  0.
    9000005    1    3    3    0    0 -0.58364460757E+02  0.18432541833E+02 -0.45670951812E+03  0.46079361196E+03  0.10000000000E+01 0.  0.
<mgrwt>
<rscale>  0 0.12499403E+03</rscale>
<asrwt>0</asrwt>
<pdfrwt beam="1">  1        4 0.78695415E-03 0.12499403E+03</pdfrwt>
<pdfrwt beam="2">  1       -4 0.11747417E+00 0.12499403E+03</pdfrwt>
<totfact> 0.39700585E+03</totfact>
</mgrwt>
</event>
<event>
 5    1  0.3269032E-002  0.1250000E+03  0.7818608E-02  0.1235069E+00
         -4   -1    0    0    0  501 -0.00000000000E+00  0.00000000000E+00  0.16406243322E+02  0.16455324972E+02  0.12700000000E+01 0. -1.
          4   -1    0    0  501    0  0.00000000000E+00 -0.00000000000E+00 -0.23768885711E+03  0.23769224996E+03  0.12700000000E+01 0. -1.
         25    2    1    2    0    0  0.00000000000E+00  0.00000000000E+00 -0.22128261379E+03  0.25414757494E+03  0.12499997873E+03 0.  0.
    9000005    1    3    3    0    0  0.35705137193E+02  0.25193999273E+02 -0.19813530622E+02  0.47991357732E+02  0.10000000000E+01 0.  0.
    9000005    1    3    3    0    0 -0.35705137193E+02 -0.25193999273E+02 -0.20146908316E+03  0.20615621720E+03  0.10000000000E+01 0.  0.
<mgrwt>
<rscale>  0 0.12499998E+03</rscale>
<asrwt>0</asrwt>
<pdfrwt beam="2">  1        4 0.36571551E-01 0.12499998E+03</pdfrwt>
<pdfrwt beam="1">  1       -4 0.25280741E-02 0.12499998E+03</pdfrwt>
<totfact> 0.81734485E+03</totfact>
</mgrwt>
</event>
<event>
 5    1  0.3269032E-002  0.1249969E+03  0.7818608E-02  0.1235074E+00
         -4   -1    0    0    0  501 -0.00000000000E+00  0.00000000000E+00  0.79039267331E+03  0.79039369363E+03  0.12700000000E+01 0. -1.
          4   -1    0    0  501    0  0.00000000000E+00 -0.00000000000E+00 -0.48592847100E+01  0.50225041456E+01  0.12700000000E+01 0. -1.
         25    2    1    2    0    0  0.00000000000E+00  0.00000000000E+00  0.78553338860E+03  0.79541619777E+03  0.12499689224E+03 0.  0.
    9000005    1    3    3    0    0  0.56971018433E+02 -0.46465361300E+01  0.55347072049E+03  0.55641542545E+03  0.10000000000E+01 0.  0.
    9000005    1    3    3    0    0 -0.56971018433E+02  0.46465361300E+01  0.23206266811E+03  0.23900077232E+03  0.10000000000E+01 0.  0.
<mgrwt>
<rscale>  0 0.12499689E+03</rscale>
<asrwt>0</asrwt>
<pdfrwt beam="2">  1        4 0.76021642E-03 0.12499689E+03</pdfrwt>
<pdfrwt beam="1">  1       -4 0.12161145E+00 0.12499689E+03</pdfrwt>
<totfact> 0.38472806E+03</totfact>
</mgrwt>
</event>
<event>
 5    1  0.3269032E-002  0.1250005E+03  0.7818608E-02  0.1235068E+00
         -4   -1    0    0    0  501 -0.00000000000E+00  0.00000000000E+00  0.47272204383E+02  0.47289261014E+02  0.12700000000E+01 0. -1.
          4   -1    0    0  501    0  0.00000000000E+00 -0.00000000000E+00 -0.82596981090E+02  0.82606744187E+02  0.12700000000E+01 0. -1.
         25    2    1    2    0    0  0.00000000000E+00  0.00000000000E+00 -0.35324776706E+02  0.12989600520E+03  0.12500052927E+03 0.  0.
    9000005    1    3    3    0    0 -0.35279491233E+02  0.15753043906E+02 -0.68703015348E+02  0.78828327471E+02  0.10000000000E+01 0.  0.
    9000005    1    3    3    0    0  0.35279491233E+02 -0.15753043906E+02  0.33378238641E+02  0.51067677730E+02  0.10000000000E+01 0.  0.
<mgrwt>
<rscale>  0 0.12500053E+03</rscale>
<asrwt>0</asrwt>
<pdfrwt beam="2">  1        4 0.12709291E-01 0.12500053E+03</pdfrwt>
<pdfrwt beam="1">  1       -4 0.72747099E-02 0.12500053E+03</pdfrwt>
<totfact> 0.10346609E+04</totfact>
</mgrwt>
</event>
<event>
 5    1  0.3269032E-002  0.1249902E+03  0.7818608E-02  0.1235085E+00
          4   -1    0    0  501    0  0.00000000000E+00  0.00000000000E+00  0.24070794877E+02  0.24104274849E+02  0.12700000000E+01 0. -1.
         -4   -1    0    0    0  501 -0.00000000000E+00 -0.00000000000E+00 -0.16210745897E+03  0.16211243368E+03  0.12700000000E+01 0. -1.
         25    2    1    2    0    0  0.00000000000E+00  0.00000000000E+00 -0.13803666410E+03  0.18621670853E+03  0.12499016722E+03 0.  0.
    9000005    1    3    3    0    0  0.37566249394E+02 -0.39238155769E+02 -0.23006789649E+02  0.59001426522E+02  0.10000000000E+01 0.  0.
    9000005    1    3    3    0    0 -0.37566249394E+02  0.39238155769E+02 -0.11502987445E+03  0.12721528201E+03  0.10000000000E+01 0.  0.
<mgrwt>
<rscale>  0 0.12499017E+03</rscale>
<asrwt>0</asrwt>
<pdfrwt beam="1">  1        4 0.37061574E-02 0.12499017E+03</pdfrwt>
<pdfrwt beam="2">  1       -4 0.24942566E-01 0.12499017E+03</pdfrwt>
<totfact> 0.92530180E+03</totfact>
</mgrwt>
</event>
<event>
 4    1  0.3269032E-002  0.1248964E+03  0.7818608E-02  0.1235231E+00
         -4   -1    0    0    0  501 -0.00000000000E+00  0.00000000000E+00  0.32263053971E+02  0.32288040379E+02  0.12700000000E+01 0. -1.
          4   -1    0    0  501    0  0.00000000000E+00 -0.00000000000E+00 -0.12079938361E+03  0.12080605937E+03  0.12700000000E+01 0. -1.
    9000005    1    1    2    0    0 -0.13184971125E+02  0.15439761348E+02  0.28109801239E+02  0.34689921011E+02  0.10000000000E+01 0.  0.
    9000005    1    1    2    0    0  0.13184971125E+02 -0.15439761348E+02 -0.11664613088E+03  0.11840417874E+03  0.10000000000E+01 0.  0.
<mgrwt>
<rscale>  0 0.12489644E+03</rscale>
<asrwt>0</asrwt>
<pdfrwt beam="2">  1        4 0.18586956E-01 0.12489644E+03</pdfrwt>
<pdfrwt beam="1">  1       -4 0.49659824E-02 0.12489644E+03</pdfrwt>
<totfact> 0.98920753E+03</totfact>
</mgrwt>
</event>
<event>
 5    1  0.3269032E-002  0.1249998E+03  0.7818608E-02  0.1235070E+00
          4   -1    0    0  501    0  0.00000000000E+00  0.00000000000E+00  0.77120728195E+02  0.77131184467E+02  0.12700000000E+01 0. -1.
         -4   -1    0    0    0  501 -0.00000000000E+00 -0.00000000000E+00 -0.50629093821E+02  0.50645019905E+02  0.12700000000E+01 0. -1.
         25    2    1    2    0    0  0.00000000000E+00  0.00000000000E+00  0.26491634374E+02  0.12777620437E+03  0.12499980685E+03 0.  0.
    9000005    1    3    3    0    0  0.28943047532E+02 -0.52426800405E+02  0.31502192590E+02  0.67673167054E+02  0.10000000000E+01 0.  0.
    9000005    1    3    3    0    0 -0.28943047532E+02  0.52426800405E+02 -0.50105582167E+01  0.60103037317E+02  0.10000000000E+01 0.  0.
<mgrwt>
<rscale>  0 0.12499981E+03</rscale>
<asrwt>0</asrwt>
<pdfrwt beam="1">  1        4 0.11866757E-01 0.12499981E+03</pdfrwt>
<pdfrwt beam="2">  1       -4 0.77911208E-02 0.12499981E+03</pdfrwt>
<totfact> 0.10392369E+04</totfact>
</mgrwt>
</event>
<event>
 5    1  0.3269032E-002  0.1250046E+03  0.7818608E-02  0.1235062E+00
         -4   -1    0    0    0  501 -0.00000000000E+00  0.00000000000E+00  0.50860153683E+01  0.52421801120E+01  0.12700000000E+01 0.  1.
          4   -1    0    0  501    0  0.00000000000E+00 -0.00000000000E+00 -0.75632377304E+03  0.75632483931E+03  0.12700000000E+01 0.  1.
         25    2    1    2    0    0  0.00000000000E+00  0.00000000000E+00 -0.75123775767E+03  0.76156701943E+03  0.12500462603E+03 0.  0.
    9000005    1    3    3    0    0 -0.54434332869E+02 -0.90067538487E+01 -0.19682010287E+03  0.20440981166E+03  0.10000000000E+01 0.  0.
    9000005    1    3    3    0    0  0.54434332869E+02  0.90067538487E+01 -0.55441765480E+03  0.55715720776E+03  0.10000000000E+01 0.  0.
<mgrwt>
<rscale>  0 0.12500463E+03</rscale>
<asrwt>0</asrwt>
<pdfrwt beam="2">  1        4 0.11636951E+00 0.12500463E+03</pdfrwt>
<pdfrwt beam="1">  1       -4 0.79455920E-03 0.12500463E+03</pdfrwt>
<totfact> 0.40022884E+03</totfact>
</mgrwt>
</event>
<event>
 5    1  0.3269032E-002  0.1250028E+03  0.7818608E-02  0.1235065E+00
          4   -1    0    0  501    0  0.00000000000E+00  0.00000000000E+00  0.98674783190E+00  0.16082820909E+01  0.12700000000E+01 0.  1.
         -4   -1    0    0    0  501 -0.00000000000E+00 -0.00000000000E+00 -0.30100774283E+04  0.30100776962E+04  0.12700000000E+01 0.  1.
         25    2    1    2    0    0  0.00000000000E+00  0.00000000000E+00 -0.30090906805E+04  0.30116859783E+04  0.12500283459E+03 0.  0.
    9000005    1    3    3    0    0  0.66205662449E+00 -0.39510290195E+02 -0.33810707943E+03  0.34040989779E+03  0.10000000000E+01 0.  0.
    9000005    1    3    3    0    0 -0.66205662449E+00  0.39510290195E+02 -0.26709836010E+04  0.26712760805E+04  0.10000000000E+01 0.  0.
<mgrwt>
<rscale>  0 0.12500283E+03</rscale>
<asrwt>0</asrwt>
<pdfrwt beam="1">  1        4 0.19964071E-03 0.12500283E+03</pdfrwt>
<pdfrwt beam="2">  1       -4 0.46313108E+00 0.12500283E+03</pdfrwt>
<totfact> 0.17736971E+02</totfact>
</mgrwt>
</event>
<event>
 5    1  0.3269032E-002  0.1250008E+03  0.7818608E-02  0.1235068E+00
          4   -1    0    0  501    0  0.00000000000E+00  0.00000000000E+00  0.24576865521E+03  0.24577193652E+03  0.12700000000E+01 0.  1.
         -4   -1    0    0    0  501 -0.00000000000E+00 -0.00000000000E+00 -0.15865458704E+02  0.15916208087E+02  0.12700000000E+01 0.  1.
         25    2    1    2    0    0  0.00000000000E+00  0.00000000000E+00  0.22990319650E+03  0.26168814461E+03  0.12500082107E+03 0.  0.
    9000005    1    3    3    0    0 -0.16190604949E+02 -0.49372123907E+02  0.18764005004E+03  0.19470369972E+03  0.10000000000E+01 0.  0.
    9000005    1    3    3    0    0  0.16190604949E+02  0.49372123907E+02  0.42263146465E+02  0.66984444887E+02  0.10000000000E+01 0.  0.
<mgrwt>
<rscale>  0 0.12500082E+03</rscale>
<asrwt>0</asrwt>
<pdfrwt beam="1">  1        4 0.37814719E-01 0.12500082E+03</pdfrwt>
<pdfrwt beam="2">  1       -4 0.24449960E-02 0.12500082E+03</pdfrwt>
<totfact> 0.80668260E+03</totfact>
</mgrwt>
</event>
<event>
 5    1  0.3269032E-002  0.1249984E+03  0.7818608E-02  0.1235072E+00
          4   -1    0    0  501    0  0.00000000000E+00  0.00000000000E+00  0.28086911853E+02  0.28115609854E+02  0.12700000000E+01 0. -1.
         -4   -1    0    0    0  501 -0.00000000000E+00 -0.00000000000E+00 -0.13897105635E+03  0.13897685923E+03  0.12700000000E+01 0. -1.
         25    2    1    2    0    0  0.00000000000E+00  0.00000000000E+00 -0.11088414449E+03  0.16709246909E+03  0.12499839889E+03 0.  0.
    9000005    1    3    3    0    0 -0.47110126499E+02  0.24519359943E+02 -0.11418568549E+02  0.54331820681E+02  0.10000000000E+01 0.  0.
    9000005    1    3    3    0    0  0.47110126499E+02 -0.24519359943E+02 -0.99465575944E+02  0.11276064840E+03  0.10000000000E+01 0.  0.
<mgrwt>
<rscale>  0 0.12499840E+03</rscale>
<asrwt>0</asrwt>
<pdfrwt beam="1">  1        4 0.43237174E-02 0.12499840E+03</pdfrwt>
<pdfrwt beam="2">  1       -4 0.21382816E-01 0.12499840E+03</pdfrwt>
<totfact> 0.95996025E+03</totfact>
</mgrwt>
</event>
<event>
 5    1  0.3269032E-002  0.1250011E+03  0.7818608E-02  0.1235068E+00
          4   -1    0    0  501    0  0.00000000000E+00  0.00000000000E+00  0.20836728583E+02  0.20875395997E+02  0.12700000000E+01 0. -1.
         -4   -1    0    0    0  501 -0.00000000000E+00 -0.00000000000E+00 -0.18725799831E+03  0.18726230488E+03  0.12700000000E+01 0. -1.
         25    2    1    2    0    0  0.00000000000E+00  0.00000000000E+00 -0.16642126972E+03  0.20813770088E+03  0.12500105404E+03 0.  0.
    9000005    1    3    3    0    0 -0.39153472584E+02  0.17967428136E+01 -0.16425599359E+03  0.16887052475E+03  0.10000000000E+01 0.  0.
    9000005    1    3    3    0    0  0.39153472584E+02 -0.17967428136E+01 -0.21652761328E+01  0.39267176125E+02  0.10000000000E+01 0.  0.
<mgrwt>
<rscale>  0 0.12500105E+03</rscale>
<asrwt>0</asrwt>
<pdfrwt beam="1">  1        4 0.32089564E-02 0.12500105E+03</pdfrwt>
<pdfrwt beam="2">  1       -4 0.28812227E-01 0.12500105E+03</pdfrwt>
<totfact> 0.88778833E+03</totfact>
</mgrwt>
</event>
<event>
 5    1  0.3269032E-002  0.1249958E+03  0.7818608E-02  0.1235076E+00
          4   -1    0    0  501    0  0.00000000000E+00  0.00000000000E+00  0.80285964404E+03  0.80286064851E+03  0.12700000000E+01 0.  1.
         -4   -1    0    0    0  501 -0.00000000000E+00 -0.00000000000E+00 -0.47811895403E+01  0.49469862968E+01  0.12700000000E+01 0.  1.
         25    2    1    2    0    0  0.00000000000E+00  0.00000000000E+00  0.79807845450E+03  0.80780763480E+03  0.12499582120E+03 0.  0.
    9000005    1    3    3    0    0 -0.48366102278E+02  0.28769743535E+02  0.57460660751E+03  0.57735667606E+03  0.10000000000E+01 0.  0.
    9000005    1    3    3    0    0  0.48366102278E+02 -0.28769743535E+02  0.22347184699E+03  0.23045095875E+03  0.10000000000E+01 0.  0.
<mgrwt>
<rscale>  0 0.12499582E+03</rscale>
<asrwt>0</asrwt>
<pdfrwt beam="1">  1        4 0.12352972E+00 0.12499582E+03</pdfrwt>
<pdfrwt beam="2">  1       -4 0.74839834E-03 0.12499582E+03</pdfrwt>
<totfact> 0.37921994E+03</totfact>
</mgrwt>
</event>
<event>
 5    1  0.3269032E-002  0.1250088E+03  0.7818608E-02  0.1235056E+00
          4   -1    0    0  501    0  0.00000000000E+00  0.00000000000E+00  0.13442376591E+02  0.13502236423E+02  0.12700000000E+01 0. -1.
         -4   -1    0    0    0  501 -0.00000000000E+00 -0.00000000000E+00 -0.28992623158E+03  0.28992901314E+03  0.12700000000E+01 0. -1.
         25    2    1    2    0    0  0.00000000000E+00  0.00000000000E+00 -0.27648385499E+03  0.30343124956E+03  0.12500880425E+03 0.  0.
    9000005    1    3    3    0    0  0.37937369238E+02  0.45951159032E+02 -0.18397841431E+03  0.19339030465E+03  0.10000000000E+01 0.  0.
    9000005    1    3    3    0    0 -0.37937369238E+02 -0.45951159032E+02 -0.92505440678E+02  0.11004094491E+03  0.10000000000E+01 0.  0.
<mgrwt>
<rscale>  0 0.12500880E+03</rscale>
<asrwt>0</asrwt>
<pdfrwt beam="1">  1        4 0.20728767E-02 0.12500880E+03</pdfrwt>
<pdfrwt beam="2">  1       -4 0.44608849E-01 0.12500880E+03</pdfrwt>
<totfact> 0.75155750E+03</totfact>
</mgrwt>
</event>
<event>
 5    1  0.3269032E-002  0.1250001E+03  0.7818608E-02  0.1235069E+00
          4   -1    0    0  501    0  0.00000000000E+00  0.00000000000E+00  0.19301051322E+02  0.19342788892E+02  0.12700000000E+01 0. -1.
         -4   -1    0    0    0  501 -0.00000000000E+00 -0.00000000000E+00 -0.20212322126E+03  0.20212721112E+03  0.12700000000E+01 0. -1.
         25    2    1    2    0    0  0.00000000000E+00  0.00000000000E+00 -0.18282216994E+03  0.22147000001E+03  0.12500006033E+03 0.  0.
    9000005    1    3    3    0    0 -0.60816930219E+02 -0.12175660366E+02 -0.77881982270E+02  0.99566806059E+02  0.10000000000E+01 0.  0.
    9000005    1    3    3    0    0  0.60816930219E+02  0.12175660366E+02 -0.10494018767E+03  0.12190319395E+03  0.10000000000E+01 0.  0.
<mgrwt>
<rscale>  0 0.12500006E+03</rscale>
<asrwt>0</asrwt>
<pdfrwt beam="1">  1        4 0.29729101E-02 0.12500006E+03</pdfrwt>
<pdfrwt beam="2">  1       -4 0.31099396E-01 0.12500006E+03</pdfrwt>
<totfact> 0.86636158E+03</totfact>
</mgrwt>
</event>
<event>
 5    1  0.3269032E-002  0.1250264E+03  0.7818608E-02  0.1235028E+00
          4   -1    0    0  501    0  0.00000000000E+00  0.00000000000E+00  0.67293263421E+02  0.67305246466E+02  0.12700000000E+01 0.  1.
         -4   -1    0    0    0  501 -0.00000000000E+00 -0.00000000000E+00 -0.58048608771E+02  0.58062499776E+02  0.12700000000E+01 0.  1.
         25    2    1    2    0    0  0.00000000000E+00  0.00000000000E+00  0.92446546508E+01  0.12536774624E+03  0.12502642984E+03 0.  0.
    9000005    1    3    3    0    0  0.37919733009E+02  0.12981461839E+02 -0.43471903899E+02  0.59137390300E+02  0.10000000000E+01 0.  0.
    9000005    1    3    3    0    0 -0.37919733009E+02 -0.12981461839E+02  0.52716558549E+02  0.66230355942E+02  0.10000000000E+01 0.  0.
<mgrwt>
<rscale>  0 0.12502643E+03</rscale>
<asrwt>0</asrwt>
<pdfrwt beam="1">  1        4 0.10354800E-01 0.12502643E+03</pdfrwt>
<pdfrwt beam="2">  1       -4 0.89325455E-02 0.12502643E+03</pdfrwt>
<totfact> 0.10438644E+04</totfact>
</mgrwt>
</event>
<event>
 5    1  0.3269032E-002  0.1249957E+03  0.7818608E-02  0.1235076E+00
          4   -1    0    0  501    0  0.00000000000E+00  0.00000000000E+00  0.84438993423E+03  0.84439088930E+03  0.12700000000E+01 0. -1.
         -4   -1    0    0    0  501 -0.00000000000E+00 -0.00000000000E+00 -0.45376562429E+01  0.47120297302E+01  0.12700000000E+01 0. -1.
         25    2    1    2    0    0  0.00000000000E+00  0.00000000000E+00  0.83985227799E+03  0.84910291903E+03  0.12499567297E+03 0.  0.
    9000005    1    3    3    0    0 -0.31621862521E+02 -0.47246494300E+02  0.59612793544E+03  0.59883360696E+03  0.10000000000E+01 0.  0.
    9000005    1    3    3    0    0  0.31621862521E+02  0.47246494300E+02  0.24372434255E+03  0.25026931207E+03  0.10000000000E+01 0.  0.
<mgrwt>
<rscale>  0 0.12499567E+03</rscale>
<asrwt>0</asrwt>
<pdfrwt beam="1">  1        4 0.12991961E+00 0.12499567E+03</pdfrwt>
<pdfrwt beam="2">  1       -4 0.71158787E-03 0.12499567E+03</pdfrwt>
<totfact> 0.36167481E+03</totfact>
</mgrwt>
</event>
<event>
 5    1  0.3269032E-002  0.1249990E+03  0.7818608E-02  0.1235071E+00
         -4   -1    0    0    0  501 -0.00000000000E+00  0.00000000000E+00  0.91303786261E+01  0.92182815023E+01  0.12700000000E+01 0. -1.
          4   -1    0    0  501    0  0.00000000000E+00 -0.00000000000E+00 -0.42568449288E+03  0.42568638736E+03  0.12700000000E+01 0. -1.
         25    2    1    2    0    0  0.00000000000E+00  0.00000000000E+00 -0.41655411426E+03  0.43490466886E+03  0.12499896356E+03 0.  0.
    9000005    1    3    3    0    0  0.51725452129E+02 -0.13638933614E+02 -0.32067632895E+03  0.32510898304E+03  0.10000000000E+01 0.  0.
    9000005    1    3    3    0    0 -0.51725452129E+02  0.13638933614E+02 -0.95877785311E+02  0.10979568582E+03  0.10000000000E+01 0.  0.
<mgrwt>
<rscale>  0 0.12499896E+03</rscale>
<asrwt>0</asrwt>
<pdfrwt beam="2">  1        4 0.65496814E-01 0.12499896E+03</pdfrwt>
<pdfrwt beam="1">  1       -4 0.14115815E-02 0.12499896E+03</pdfrwt>
<totfact> 0.61295323E+03</totfact>
</mgrwt>
</event>
<event>
 5    1  0.3269032E-002  0.1250029E+03  0.7818608E-02  0.1235065E+00
         -4   -1    0    0    0  501 -0.00000000000E+00  0.00000000000E+00  0.16438289913E+04  0.16438294819E+04  0.12700000000E+01 0.  1.
          4   -1    0    0  501    0  0.00000000000E+00 -0.00000000000E+00 -0.22062165685E+01  0.25456416769E+01  0.12700000000E+01 0.  1.
         25    2    1    2    0    0  0.00000000000E+00  0.00000000000E+00  0.16416227747E+04  0.16463751236E+04  0.12500285193E+03 0.  0.
    9000005    1    3    3    0    0  0.38214887953E+02 -0.46577852674E+02  0.10394427252E+04  0.10411878087E+04  0.10000000000E+01 0.  0.
    9000005    1    3    3    0    0 -0.38214887953E+02  0.46577852674E+02  0.60218004950E+03  0.60518731483E+03  0.10000000000E+01 0.  0.
<mgrwt>
<rscale>  0 0.12500285E+03</rscale>
<asrwt>0</asrwt>
<pdfrwt beam="2">  1        4 0.36556479E-03 0.12500285E+03</pdfrwt>
<pdfrwt beam="1">  1       -4 0.25292326E+00 0.12500285E+03</pdfrwt>
<totfact> 0.15221515E+03</totfact>
</mgrwt>
</event>
<event>
 5    1  0.3269032E-002  0.1250002E+03  0.7818608E-02  0.1235069E+00
         -4   -1    0    0    0  501 -0.00000000000E+00  0.00000000000E+00  0.10538024249E+04  0.10538031902E+04  0.12700000000E+01 0. -1.
          4   -1    0    0  501    0  0.00000000000E+00 -0.00000000000E+00 -0.35972580500E+01  0.38148611348E+01  0.12700000000E+01 0. -1.
         25    2    1    2    0    0  0.00000000000E+00  0.00000000000E+00  0.10502051668E+04  0.10576180513E+04  0.12500019992E+03 0.  0.
    9000005    1    3    3    0    0  0.41211185942E+02  0.29534506027E+02  0.83420038802E+03  0.83574035218E+03  0.10000000000E+01 0.  0.
    9000005    1    3    3    0    0 -0.41211185942E+02 -0.29534506027E+02  0.21600477882E+03  0.22187769911E+03  0.10000000000E+01 0.  0.
<mgrwt>
<rscale>  0 0.12500020E+03</rscale>
<asrwt>0</asrwt>
<pdfrwt beam="2">  1        4 0.57022126E-03 0.12500020E+03</pdfrwt>
<pdfrwt beam="1">  1       -4 0.16214042E+00 0.12500020E+03</pdfrwt>
<totfact> 0.28757929E+03</totfact>
</mgrwt>
</event>
<event>
 5    1  0.3269032E-002  0.1250018E+03  0.7818608E-02  0.1235067E+00
          4   -1    0    0  501    0  0.00000000000E+00  0.00000000000E+00  0.11963065206E+03  0.11963739304E+03  0.12700000000E+01 0.  1.
         -4   -1    0    0    0  501 -0.00000000000E+00 -0.00000000000E+00 -0.32633495977E+02  0.32658198965E+02  0.12700000000E+01 0.  1.
         25    2    1    2    0    0  0.00000000000E+00  0.00000000000E+00  0.86997156085E+02  0.15229559200E+03  0.12500176869E+03 0.  0.
    9000005    1    3    3    0    0  0.19697313513E+02  0.20326629432E+02 -0.24382126130E+02  0.37371701838E+02  0.10000000000E+01 0.  0.
    9000005    1    3    3    0    0 -0.19697313513E+02 -0.20326629432E+02  0.11137928221E+03  0.11492389016E+03  0.10000000000E+01 0.  0.
<mgrwt>
<rscale>  0 0.12500177E+03</rscale>
<asrwt>0</asrwt>
<pdfrwt beam="1">  1        4 0.18407135E-01 0.12500177E+03</pdfrwt>
<pdfrwt beam="2">  1       -4 0.50229566E-02 0.12500177E+03</pdfrwt>
<totfact> 0.98844125E+03</totfact>
</mgrwt>
</event>
<event>
 5    1  0.3269032E-002  0.1250001E+03  0.7818608E-02  0.1235069E+00
          4   -1    0    0  501    0  0.00000000000E+00  0.00000000000E+00  0.44699679116E+02  0.44717716993E+02  0.12700000000E+01 0. -1.
         -4   -1    0    0    0  501 -0.00000000000E+00 -0.00000000000E+00 -0.87348655688E+02  0.87357887740E+02  0.12700000000E+01 0. -1.
         25    2    1    2    0    0  0.00000000000E+00  0.00000000000E+00 -0.42648976572E+02  0.13207560473E+03  0.12500012065E+03 0.  0.
    9000005    1    3    3    0    0  0.11803020989E+02  0.13906926346E+02 -0.84478500490E+02  0.86431076298E+02  0.10000000000E+01 0.  0.
    9000005    1    3    3    0    0 -0.11803020989E+02 -0.13906926346E+02  0.41829523919E+02  0.45644528436E+02  0.10000000000E+01 0.  0.
<mgrwt>
<rscale>  0 0.12500012E+03</rscale>
<asrwt>0</asrwt>
<pdfrwt beam="1">  1        4 0.68789714E-02 0.12500012E+03</pdfrwt>
<pdfrwt beam="2">  1       -4 0.13440352E-01 0.12500012E+03</pdfrwt>
<totfact> 0.10300057E+04</totfact>
</mgrwt>
</event>
<event>
 5    1  0.3269032E-002  0.1249971E+03  0.7818608E-02  0.1235074E+00
          4   -1    0    0  501    0  0.00000000000E+00  0.00000000000E+00  0.18225683835E+02  0.18269878249E+02  0.12700000000E+01 0. -1.
         -4   -1    0    0    0  501 -0.00000000000E+00 -0.00000000000E+00 -0.21401104536E+03  0.21401481359E+03  0.12700000000E+01 0. -1.
         25    2    1    2    0    0  0.00000000000E+00  0.00000000000E+00 -0.19578536152E+03  0.23228469184E+03  0.12499708107E+03 0.  0.
    9000005    1    3    3    0    0 -0.18758549785E+02 -0.49957058914E+02 -0.37462191549E+02  0.65207413083E+02  0.10000000000E+01 0.  0.
    9000005    1    3    3    0    0  0.18758549785E+02  0.49957058914E+02 -0.15832316997E+03  0.16707727875E+03  0.10000000000E+01 0.  0.
<mgrwt>
<rscale>  0 0.12499708E+03</rscale>
<asrwt>0</asrwt>
<pdfrwt beam="1">  1        4 0.28076409E-02 0.12499708E+03</pdfrwt>
<pdfrwt beam="2">  1       -4 0.32928464E-01 0.12499708E+03</pdfrwt>
<totfact> 0.84965544E+03</totfact>
</mgrwt>
</event>
<event>
 5    1  0.3269032E-002  0.1250005E+03  0.7818608E-02  0.1235069E+00
         -4   -1    0    0    0  501 -0.00000000000E+00  0.00000000000E+00  0.59933605578E+03  0.59933740135E+03  0.12700000000E+01 0. -1.
          4   -1    0    0  501    0  0.00000000000E+00 -0.00000000000E+00 -0.64544468977E+01  0.65782052837E+01  0.12700000000E+01 0. -1.
         25    2    1    2    0    0  0.00000000000E+00  0.00000000000E+00  0.59288160888E+03  0.60591560664E+03  0.12500048085E+03 0.  0.
    9000005    1    3    3    0    0  0.47434531341E+02  0.17953407141E+02  0.11946961388E+03  0.12979348301E+03  0.10000000000E+01 0.  0.
    9000005    1    3    3    0    0 -0.47434531341E+02 -0.17953407141E+02  0.47341199501E+03  0.47612212363E+03  0.10000000000E+01 0.  0.
<mgrwt>
<rscale>  0 0.12500048E+03</rscale>
<asrwt>0</asrwt>
<pdfrwt beam="2">  1        4 0.10026149E-02 0.12500048E+03</pdfrwt>
<pdfrwt beam="1">  1       -4 0.92215199E-01 0.12500048E+03</pdfrwt>
<totfact> 0.48495794E+03</totfact>
</mgrwt>
</event>
<event>
 5    1  0.3269032E-002  0.1250020E+03  0.7818608E-02  0.1235066E+00
          4   -1    0    0  501    0  0.00000000000E+00  0.00000000000E+00  0.23893642270E+03  0.23893979784E+03  0.12700000000E+01 0.  1.
         -4   -1    0    0    0  501 -0.00000000000E+00 -0.00000000000E+00 -0.16320850924E+02  0.16370188603E+02  0.12700000000E+01 0.  1.
         25    2    1    2    0    0  0.00000000000E+00  0.00000000000E+00  0.22261557177E+03  0.25530998644E+03  0.12500198551E+03 0.  0.
    9000005    1    3    3    0    0  0.23689239957E+02  0.57059794629E+02  0.92107276077E+02  0.11091325691E+03  0.10000000000E+01 0.  0.
    9000005    1    3    3    0    0 -0.23689239957E+02 -0.57059794629E+02  0.13050829569E+03  0.14439672953E+03  0.10000000000E+01 0.  0.
<mgrwt>
<rscale>  0 0.12500199E+03</rscale>
<asrwt>0</asrwt>
<pdfrwt beam="1">  1        4 0.36763502E-01 0.12500199E+03</pdfrwt>
<pdfrwt beam="2">  1       -4 0.25149552E-02 0.12500199E+03</pdfrwt>
<totfact> 0.81565171E+03</totfact>
</mgrwt>
</event>
<event>
 5    1  0.3269032E-002  0.1250003E+03  0.7818608E-02  0.1235069E+00
         -4   -1    0    0    0  501 -0.00000000000E+00  0.00000000000E+00  0.11518704940E+03  0.11519405041E+03  0.12700000000E+01 0. -1.
          4   -1    0    0  501    0  0.00000000000E+00 -0.00000000000E+00 -0.33892487451E+02  0.33916273463E+02  0.12700000000E+01 0. -1.
         25    2    1    2    0    0  0.00000000000E+00  0.00000000000E+00  0.81294561946E+02  0.14911032387E+03  0.12500033153E+03 0.  0.
    9000005    1    3    3    0    0  0.28686735766E+01 -0.60748833228E+02  0.57794095749E+02  0.83903560890E+02  0.10000000000E+01 0.  0.
    9000005    1    3    3    0    0 -0.28686735766E+01  0.60748833228E+02  0.23500466198E+02  0.65206762979E+02  0.10000000000E+01 0.  0.
<mgrwt>
<rscale>  0 0.12500033E+03</rscale>
<asrwt>0</asrwt>
<pdfrwt beam="2">  1        4 0.52165970E-02 0.12500033E+03</pdfrwt>
<pdfrwt beam="1">  1       -4 0.17723453E-01 0.12500033E+03</pdfrwt>
<totfact> 0.99480595E+03</totfact>
</mgrwt>
</event>
<event>
 5    1  0.3269032E-002  0.1249959E+03  0.7818608E-02  0.1235076E+00
         -4   -1    0    0    0  501 -0.00000000000E+00  0.00000000000E+00  0.66169803072E+02  0.66181989533E+02  0.12700000000E+01 0. -1.
          4   -1    0    0  501    0  0.00000000000E+00 -0.00000000000E+00 -0.59005426695E+02  0.59019092499E+02  0.12700000000E+01 0. -1.
         25    2    1    2    0    0  0.00000000000E+00  0.00000000000E+00  0.71643763769E+01  0.12520108203E+03  0.12499593055E+03 0.  0.
    9000005    1    3    3    0    0  0.10281973927E+02 -0.57450505695E+02  0.25950792639E+02  0.63880538750E+02  0.10000000000E+01 0.  0.
    9000005    1    3    3    0    0 -0.10281973927E+02  0.57450505695E+02 -0.18786416262E+02  0.61320543282E+02  0.10000000000E+01 0.  0.
<mgrwt>
<rscale>  0 0.12499593E+03</rscale>
<asrwt>0</asrwt>
<pdfrwt beam="2">  1        4 0.90797466E-02 0.12499593E+03</pdfrwt>
<pdfrwt beam="1">  1       -4 0.10181958E-01 0.12499593E+03</pdfrwt>
<totfact> 0.10449458E+04</totfact>
</mgrwt>
</event>
<event>
 5    1  0.3269032E-002  0.1249985E+03  0.7818608E-02  0.1235072E+00
          4   -1    0    0  501    0  0.00000000000E+00  0.00000000000E+00  0.44860702893E+02  0.44878676051E+02  0.12700000000E+01 0. -1.
         -4   -1    0    0    0  501 -0.00000000000E+00 -0.00000000000E+00 -0.87032945342E+02  0.87042210880E+02  0.12700000000E+01 0. -1.
         25    2    1    2    0    0  0.00000000000E+00  0.00000000000E+00 -0.42172242449E+02  0.13192088693E+03  0.12499848949E+03 0.  0.
    9000005    1    3    3    0    0 -0.35108813833E+02 -0.45415032776E+02 -0.47152114484E+02  0.74293175400E+02  0.10000000000E+01 0.  0.
    9000005    1    3    3    0    0  0.35108813833E+02  0.45415032776E+02  0.49798720347E+01  0.57627711531E+02  0.10000000000E+01 0.  0.
<mgrwt>
<rscale>  0 0.12499849E+03</rscale>
<asrwt>0</asrwt>
<pdfrwt beam="1">  1        4 0.69037419E-02 0.12499849E+03</pdfrwt>
<pdfrwt beam="2">  1       -4 0.13391779E-01 0.12499849E+03</pdfrwt>
<totfact> 0.10303738E+04</totfact>
</mgrwt>
</event>
<event>
 5    1  0.3269032E-002  0.1250013E+03  0.7818608E-02  0.1235067E+00
          4   -1    0    0  501    0  0.00000000000E+00  0.00000000000E+00  0.55346629956E+01  0.56785028375E+01  0.12700000000E+01 0. -1.
         -4   -1    0    0    0  501 -0.00000000000E+00 -0.00000000000E+00 -0.69659605903E+03  0.69659721673E+03  0.12700000000E+01 0. -1.
         25    2    1    2    0    0  0.00000000000E+00  0.00000000000E+00 -0.69106139603E+03  0.70227571957E+03  0.12500133281E+03 0.  0.
    9000005    1    3    3    0    0  0.86319718117E+01 -0.55947892944E+02 -0.49424246044E+03  0.49747491129E+03  0.10000000000E+01 0.  0.
    9000005    1    3    3    0    0 -0.86319718117E+01  0.55947892944E+02 -0.19681893560E+03  0.20480080828E+03  0.10000000000E+01 0.  0.
<mgrwt>
<rscale>  0 0.12500133E+03</rscale>
<asrwt>0</asrwt>
<pdfrwt beam="1">  1        4 0.86264082E-03 0.12500133E+03</pdfrwt>
<pdfrwt beam="2">  1       -4 0.10717971E+00 0.12500133E+03</pdfrwt>
<totfact> 0.42965601E+03</totfact>
</mgrwt>
</event>
<event>
 5    1  0.3269032E-002  0.1249890E+03  0.7818608E-02  0.1235086E+00
          4   -1    0    0  501    0  0.00000000000E+00  0.00000000000E+00  0.87290514775E+01  0.88209545797E+01  0.12700000000E+01 0. -1.
         -4   -1    0    0    0  501 -0.00000000000E+00 -0.00000000000E+00 -0.44498527413E+03  0.44498708644E+03  0.12700000000E+01 0. -1.
         25    2    1    2    0    0  0.00000000000E+00  0.00000000000E+00 -0.43625622266E+03  0.45380804102E+03  0.12498898466E+03 0.  0.
    9000005    1    3    3    0    0  0.40476104183E+01 -0.25234680563E+02 -0.42515889882E+03  0.42592753081E+03  0.10000000000E+01 0.  0.
    9000005    1    3    3    0    0 -0.40476104183E+01  0.25234680563E+02 -0.11097323836E+02  0.27880510210E+02  0.10000000000E+01 0.  0.
<mgrwt>
<rscale>  0 0.12498898E+03</rscale>
<asrwt>0</asrwt>
<pdfrwt beam="1">  1        4 0.13501402E-02 0.12498898E+03</pdfrwt>
<pdfrwt beam="2">  1       -4 0.68466464E-01 0.12498898E+03</pdfrwt>
<totfact> 0.59649796E+03</totfact>
</mgrwt>
</event>
<event>
 5    1  0.3269032E-002  0.1250013E+03  0.7818608E-02  0.1235067E+00
         -4   -1    0    0    0  501 -0.00000000000E+00  0.00000000000E+00  0.28326832355E+01  0.31043508682E+01  0.12700000000E+01 0. -1.
          4   -1    0    0  501    0  0.00000000000E+00 -0.00000000000E+00 -0.13156477826E+04  0.13156483956E+04  0.12700000000E+01 0. -1.
         25    2    1    2    0    0  0.00000000000E+00  0.00000000000E+00 -0.13128150994E+04  0.13187527465E+04  0.12500128445E+03 0.  0.
    9000005    1    3    3    0    0 -0.61972796465E+02  0.64121041031E+01 -0.60516960766E+03  0.60836912858E+03  0.10000000000E+01 0.  0.
    9000005    1    3    3    0    0  0.61972796465E+02 -0.64121041031E+01 -0.70764549175E+03  0.71038361789E+03  0.10000000000E+01 0.  0.
<mgrwt>
<rscale>  0 0.12500128E+03</rscale>
<asrwt>0</asrwt>
<pdfrwt beam="2">  1        4 0.20242783E+00 0.12500128E+03</pdfrwt>
<pdfrwt beam="1">  1       -4 0.45674313E-03 0.12500128E+03</pdfrwt>
<totfact> 0.21789662E+03</totfact>
</mgrwt>
</event>
<event>
 5    1  0.3269032E-002  0.1250014E+03  0.7818608E-02  0.1235067E+00
          4   -1    0    0  501    0  0.00000000000E+00  0.00000000000E+00  0.87297652750E+02  0.87306890196E+02  0.12700000000E+01 0. -1.
         -4   -1    0    0    0  501 -0.00000000000E+00 -0.00000000000E+00 -0.44726710105E+02  0.44744737085E+02  0.12700000000E+01 0. -1.
         25    2    1    2    0    0  0.00000000000E+00  0.00000000000E+00  0.42570942645E+02  0.13205162728E+03  0.12500138843E+03 0.  0.
    9000005    1    3    3    0    0  0.15216904118E+02 -0.14322781311E+02 -0.40931457356E+02  0.45968254662E+02  0.10000000000E+01 0.  0.
    9000005    1    3    3    0    0 -0.15216904118E+02  0.14322781311E+02  0.83502400001E+02  0.86083372618E+02  0.10000000000E+01 0.  0.
<mgrwt>
<rscale>  0 0.12500139E+03</rscale>
<asrwt>0</asrwt>
<pdfrwt beam="1">  1        4 0.13432505E-01 0.12500139E+03</pdfrwt>
<pdfrwt beam="2">  1       -4 0.68831296E-02 0.12500139E+03</pdfrwt>
<totfact> 0.10300274E+04</totfact>
</mgrwt>
</event>
<event>
 5    1  0.3269032E-002  0.1250085E+03  0.7818608E-02  0.1235056E+00
          4   -1    0    0  501    0  0.00000000000E+00  0.00000000000E+00  0.52404466512E+02  0.52419853209E+02  0.12700000000E+01 0.  1.
         -4   -1    0    0    0  501 -0.00000000000E+00 -0.00000000000E+00 -0.74518749636E+02  0.74529570959E+02  0.12700000000E+01 0.  1.
         25    2    1    2    0    0  0.00000000000E+00  0.00000000000E+00 -0.22114283124E+02  0.12694942417E+03  0.12500845883E+03 0.  0.
    9000005    1    3    3    0    0 -0.39536415689E+02  0.46657081456E+02 -0.24132112699E+02  0.65752340482E+02  0.10000000000E+01 0.  0.
    9000005    1    3    3    0    0  0.39536415689E+02 -0.46657081456E+02  0.20178295750E+01  0.61197083686E+02  0.10000000000E+01 0.  0.
<mgrwt>
<rscale>  0 0.12500846E+03</rscale>
<asrwt>0</asrwt>
<pdfrwt beam="1">  1        4 0.80642416E-02 0.12500846E+03</pdfrwt>
<pdfrwt beam="2">  1       -4 0.11466439E-01 0.12500846E+03</pdfrwt>
<totfact> 0.10408257E+04</totfact>
</mgrwt>
</event>
<event>
 5    1  0.3269032E-002  0.1249997E+03  0.7818608E-02  0.1235070E+00
         -4   -1    0    0    0  501 -0.00000000000E+00  0.00000000000E+00  0.34746548577E+03  0.34746780671E+03  0.12700000000E+01 0.  1.
          4   -1    0    0  501    0  0.00000000000E+00 -0.00000000000E+00 -0.11203829918E+02  0.11275580022E+02  0.12700000000E+01 0.  1.
         25    2    1    2    0    0  0.00000000000E+00  0.00000000000E+00  0.33626165585E+03  0.35874338673E+03  0.12499966532E+03 0.  0.
    9000005    1    3    3    0    0  0.19120195791E+02  0.10772007391E+02  0.20509076329E+00  0.21969526453E+02  0.10000000000E+01 0.  0.
    9000005    1    3    3    0    0 -0.19120195791E+02 -0.10772007391E+02  0.33605656508E+03  0.33677386028E+03  0.10000000000E+01 0.  0.
<mgrwt>
<rscale>  0 0.12499967E+03</rscale>
<asrwt>0</asrwt>
<pdfrwt beam="2">  1        4 0.17293640E-02 0.12499967E+03</pdfrwt>
<pdfrwt beam="1">  1       -4 0.53461924E-01 0.12499967E+03</pdfrwt>
<totfact> 0.68773776E+03</totfact>
</mgrwt>
</event>
<event>
 5    1  0.3269032E-002  0.1249988E+03  0.7818608E-02  0.1235071E+00
          4   -1    0    0  501    0  0.00000000000E+00  0.00000000000E+00  0.14104184765E+02  0.14161247398E+02  0.12700000000E+01 0.  1.
         -4   -1    0    0    0  501 -0.00000000000E+00 -0.00000000000E+00 -0.27633365959E+03  0.27633657796E+03  0.12700000000E+01 0.  1.
         25    2    1    2    0    0  0.00000000000E+00  0.00000000000E+00 -0.26222947482E+03  0.29049782536E+03  0.12499875629E+03 0.  0.
    9000005    1    3    3    0    0 -0.39175601168E+02 -0.31981230628E+02 -0.45799812067E+02  0.68235984823E+02  0.10000000000E+01 0.  0.
    9000005    1    3    3    0    0  0.39175601168E+02  0.31981230628E+02 -0.21642966275E+03  0.22226184054E+03  0.10000000000E+01 0.  0.
<mgrwt>
<rscale>  0 0.12499876E+03</rscale>
<asrwt>0</asrwt>
<pdfrwt beam="1">  1        4 0.21744887E-02 0.12499876E+03</pdfrwt>
<pdfrwt beam="2">  1       -4 0.42517481E-01 0.12499876E+03</pdfrwt>
<totfact> 0.76808569E+03</totfact>
</mgrwt>
</event>
<event>
 5    1  0.3269032E-002  0.1250020E+03  0.7818608E-02  0.1235066E+00
          4   -1    0    0  501    0  0.00000000000E+00  0.00000000000E+00  0.29873135816E+01  0.32460656855E+01  0.12700000000E+01 0.  1.
         -4   -1    0    0    0  501 -0.00000000000E+00 -0.00000000000E+00 -0.12531134481E+04  0.12531140917E+04  0.12700000000E+01 0.  1.
         25    2    1    2    0    0  0.00000000000E+00  0.00000000000E+00 -0.12501261345E+04  0.12563601574E+04  0.12500197099E+03 0.  0.
    9000005    1    3    3    0    0 -0.66704677834E+01  0.25486319596E+02 -0.11946230425E+04  0.11949139138E+04  0.10000000000E+01 0.  0.
    9000005    1    3    3    0    0  0.66704677834E+01 -0.25486319596E+02 -0.55503092044E+02  0.61446243607E+02  0.10000000000E+01 0.  0.
<mgrwt>
<rscale>  0 0.12500197E+03</rscale>
<asrwt>0</asrwt>
<pdfrwt beam="1">  1        4 0.47954122E-03 0.12500197E+03</pdfrwt>
<pdfrwt beam="2">  1       -4 0.19280624E+00 0.12500197E+03</pdfrwt>
<totfact> 0.23281549E+03</totfact>
</mgrwt>
</event>
<event>
 5    1  0.3269032E-002  0.1250007E+03  0.7818608E-02  0.1235068E+00
          4   -1    0    0  501    0  0.00000000000E+00  0.00000000000E+00  0.12755462440E+02  0.12818530417E+02  0.12700000000E+01 0. -1.
         -4   -1    0    0    0  501 -0.00000000000E+00 -0.00000000000E+00 -0.30542539210E+03  0.30542803250E+03  0.12700000000E+01 0. -1.
         25    2    1    2    0    0  0.00000000000E+00  0.00000000000E+00 -0.29266992966E+03  0.31824656292E+03  0.12500074833E+03 0.  0.
    9000005    1    3    3    0    0 -0.16950248740E+02  0.39309932266E+02 -0.30424963492E+02  0.52528659897E+02  0.10000000000E+01 0.  0.
    9000005    1    3    3    0    0  0.16950248740E+02 -0.39309932266E+02 -0.26224496617E+03  0.26571790303E+03  0.10000000000E+01 0.  0.
<mgrwt>
<rscale>  0 0.12500075E+03</rscale>
<asrwt>0</asrwt>
<pdfrwt beam="1">  1        4 0.19674336E-02 0.12500075E+03</pdfrwt>
<pdfrwt beam="2">  1       -4 0.46993571E-01 0.12500075E+03</pdfrwt>
<totfact> 0.73363945E+03</totfact>
</mgrwt>
</event>
<event>
 5    1  0.3269032E-002  0.1250025E+03  0.7818608E-02  0.1235065E+00
          4   -1    0    0  501    0  0.00000000000E+00  0.00000000000E+00  0.59374150050E+01  0.60717210856E+01  0.12700000000E+01 0.  1.
         -4   -1    0    0    0  501 -0.00000000000E+00 -0.00000000000E+00 -0.65043768459E+03  0.65043892444E+03  0.12700000000E+01 0.  1.
         25    2    1    2    0    0  0.00000000000E+00  0.00000000000E+00 -0.64450026958E+03  0.65651064553E+03  0.12500252078E+03 0.  0.
    9000005    1    3    3    0    0 -0.88205581170E+01  0.28550143009E+02 -0.61051130349E+03  0.61124296691E+03  0.10000000000E+01 0.  0.
    9000005    1    3    3    0    0  0.88205581170E+01 -0.28550143009E+02 -0.33988966094E+02  0.45267678618E+02  0.10000000000E+01 0.  0.
<mgrwt>
<rscale>  0 0.12500252E+03</rscale>
<asrwt>0</asrwt>
<pdfrwt beam="1">  1        4 0.92387559E-03 0.12500252E+03</pdfrwt>
<pdfrwt beam="2">  1       -4 0.10007771E+00 0.12500252E+03</pdfrwt>
<totfact> 0.45481249E+03</totfact>
</mgrwt>
</event>
<event>
 4    1  0.3269032E-002  0.1250671E+03  0.7818608E-02  0.1234964E+00
         -4   -1    0    0    0  501 -0.00000000000E+00  0.00000000000E+00  0.39952572640E+01  0.41922524501E+01  0.12700000000E+01 0. -1.
          4   -1    0    0  501    0  0.00000000000E+00 -0.00000000000E+00 -0.95502449754E+03  0.95502534197E+03  0.12700000000E+01 0. -1.
    9000005    1    1    2    0    0 -0.29407966477E+02  0.41526763533E+02 -0.19684815697E+03  0.20332116832E+03  0.10000000000E+01 0.  0.
    9000005    1    1    2    0    0  0.29407966477E+02 -0.41526763533E+02 -0.75418108330E+03  0.75589642610E+03  0.10000000000E+01 0.  0.
<mgrwt>
<rscale>  0 0.12506709E+03</rscale>
<asrwt>0</asrwt>
<pdfrwt beam="2">  1        4 0.14694189E+00 0.12506709E+03</pdfrwt>
<pdfrwt beam="1">  1       -4 0.62987416E-03 0.12506709E+03</pdfrwt>
<totfact> 0.31944211E+03</totfact>
</mgrwt>
</event>
<event>
 5    1  0.3269032E-002  0.1250081E+03  0.7818608E-02  0.1235057E+00
          4   -1    0    0  501    0  0.00000000000E+00  0.00000000000E+00  0.85643373516E+01  0.86579890432E+01  0.12700000000E+01 0. -1.
         -4   -1    0    0    0  501 -0.00000000000E+00 -0.00000000000E+00 -0.45359082498E+03  0.45359260290E+03  0.12700000000E+01 0. -1.
         25    2    1    2    0    0  0.00000000000E+00  0.00000000000E+00 -0.44502648763E+03  0.46225059194E+03  0.12500813998E+03 0.  0.
    9000005    1    3    3    0    0 -0.37593710635E+02 -0.25457261901E+02 -0.38131916117E+03  0.38401388249E+03  0.10000000000E+01 0.  0.
    9000005    1    3    3    0    0  0.37593710635E+02  0.25457261901E+02 -0.63707326452E+02  0.78236709456E+02  0.10000000000E+01 0.  0.
<mgrwt>
<rscale>  0 0.12500814E+03</rscale>
<asrwt>0</asrwt>
<pdfrwt beam="1">  1        4 0.13249315E-02 0.12500814E+03</pdfrwt>
<pdfrwt beam="2">  1       -4 0.69790526E-01 0.12500814E+03</pdfrwt>
<totfact> 0.58906477E+03</totfact>
</mgrwt>
</event>
<event>
 4    1  0.3269032E-002  0.1250619E+03  0.7818608E-02  0.1234973E+00
         -4   -1    0    0    0  501 -0.00000000000E+00  0.00000000000E+00  0.34009899282E+03  0.34010136404E+03  0.12700000000E+01 0.  1.
          4   -1    0    0  501    0  0.00000000000E+00 -0.00000000000E+00 -0.11459511344E+02  0.11529670431E+02  0.12700000000E+01 0.  1.
    9000005    1    1    2    0    0  0.17601205183E+02  0.20613606532E+02  0.32273344597E+03  0.32387127126E+03  0.10000000000E+01 0.  0.
    9000005    1    1    2    0    0 -0.17601205183E+02 -0.20613606532E+02  0.59060355113E+01  0.27759763213E+02  0.10000000000E+01 0.  0.
<mgrwt>
<rscale>  0 0.12506189E+03</rscale>
<asrwt>0</asrwt>
<pdfrwt beam="2">  1        4 0.17685811E-02 0.12506189E+03</pdfrwt>
<pdfrwt beam="1">  1       -4 0.52328498E-01 0.12506189E+03</pdfrwt>
<totfact> 0.69450340E+03</totfact>
</mgrwt>
</event>
<event>
 5    1  0.3269032E-002  0.1250029E+03  0.7818608E-02  0.1235065E+00
          4   -1    0    0  501    0  0.00000000000E+00  0.00000000000E+00  0.23891807158E+02  0.23925537596E+02  0.12700000000E+01 0. -1.
         -4   -1    0    0    0  501 -0.00000000000E+00 -0.00000000000E+00 -0.16335356309E+03  0.16335849986E+03  0.12700000000E+01 0. -1.
         25    2    1    2    0    0  0.00000000000E+00  0.00000000000E+00 -0.13946175594E+03  0.18728403745E+03  0.12500291723E+03 0.  0.
    9000005    1    3    3    0    0  0.26081346700E+02 -0.21555794779E+02  0.89878203649E+01  0.35023846864E+02  0.10000000000E+01 0.  0.
    9000005    1    3    3    0    0 -0.26081346700E+02  0.21555794779E+02 -0.14844957630E+03  0.15226019059E+03  0.10000000000E+01 0.  0.
<mgrwt>
<rscale>  0 0.12500292E+03</rscale>
<asrwt>0</asrwt>
<pdfrwt beam="1">  1        4 0.36786371E-02 0.12500292E+03</pdfrwt>
<pdfrwt beam="2">  1       -4 0.25134291E-01 0.12500292E+03</pdfrwt>
<totfact> 0.92316008E+03</totfact>
</mgrwt>
</event>
<event>
 5    1  0.3269032E-002  0.1249784E+03  0.7818608E-02  0.1235103E+00
          4   -1    0    0  501    0  0.00000000000E+00  0.00000000000E+00  0.18483400869E+03  0.18483837174E+03  0.12700000000E+01 0. -1.
         -4   -1    0    0    0  501 -0.00000000000E+00 -0.00000000000E+00 -0.21102837750E+02  0.21141018450E+02  0.12700000000E+01 0. -1.
         25    2    1    2    0    0  0.00000000000E+00  0.00000000000E+00  0.16373117094E+03  0.20597939019E+03  0.12497844953E+03 0.  0.
    9000005    1    3    3    0    0 -0.34104879998E+02 -0.41463053355E+02  0.29188239407E+02  0.61116944892E+02  0.10000000000E+01 0.  0.
    9000005    1    3    3    0    0  0.34104879998E+02  0.41463053355E+02  0.13454293153E+03  0.14486244530E+03  0.10000000000E+01 0.  0.
<mgrwt>
<rscale>  0 0.12497845E+03</rscale>
<asrwt>0</asrwt>
<pdfrwt beam="1">  1        4 0.28439273E-01 0.12497845E+03</pdfrwt>
<pdfrwt beam="2">  1       -4 0.32498631E-02 0.12497845E+03</pdfrwt>
<totfact> 0.89179713E+03</totfact>
</mgrwt>
</event>
<event>
 5    1  0.3269032E-002  0.1250016E+03  0.7818608E-02  0.1235067E+00
         -4   -1    0    0    0  501 -0.00000000000E+00  0.00000000000E+00  0.33014312294E+02  0.33038730549E+02  0.12700000000E+01 0. -1.
          4   -1    0    0  501    0  0.00000000000E+00 -0.00000000000E+00 -0.11825142059E+03  0.11825824018E+03  0.12700000000E+01 0. -1.
         25    2    1    2    0    0  0.00000000000E+00  0.00000000000E+00 -0.85237108294E+02  0.15129697073E+03  0.12500163488E+03 0.  0.
    9000005    1    3    3    0    0  0.22103407409E+02  0.53188471522E+02 -0.71962683241E+02  0.92180268502E+02  0.10000000000E+01 0.  0.
    9000005    1    3    3    0    0 -0.22103407409E+02 -0.53188471522E+02 -0.13274425054E+02  0.59116702229E+02  0.10000000000E+01 0.  0.
<mgrwt>
<rscale>  0 0.12500163E+03</rscale>
<asrwt>0</asrwt>
<pdfrwt beam="2">  1        4 0.18194929E-01 0.12500163E+03</pdfrwt>
<pdfrwt beam="1">  1       -4 0.50815279E-02 0.12500163E+03</pdfrwt>
<totfact> 0.99042149E+03</totfact>
</mgrwt>
</event>
<event>
 5    1  0.3269032E-002  0.1250003E+03  0.7818608E-02  0.1235069E+00
         -4   -1    0    0    0  501 -0.00000000000E+00  0.00000000000E+00  0.76452056264E+01  0.77499721980E+01  0.12700000000E+01 0. -1.
          4   -1    0    0  501    0  0.00000000000E+00 -0.00000000000E+00 -0.50736096277E+03  0.50736255226E+03  0.12700000000E+01 0. -1.
         25    2    1    2    0    0  0.00000000000E+00  0.00000000000E+00 -0.49971575714E+03  0.51511252446E+03  0.12500029969E+03 0.  0.
    9000005    1    3    3    0    0 -0.18592721284E+02  0.20170242182E+02 -0.18472886242E+02  0.33087391564E+02  0.10000000000E+01 0.  0.
    9000005    1    3    3    0    0  0.18592721284E+02 -0.20170242182E+02 -0.48124287090E+03  0.48202513290E+03  0.10000000000E+01 0.  0.
<mgrwt>
<rscale>  0 0.12500030E+03</rscale>
<asrwt>0</asrwt>
<pdfrwt beam="2">  1        4 0.78063687E-01 0.12500030E+03</pdfrwt>
<pdfrwt beam="1">  1       -4 0.11843671E-02 0.12500030E+03</pdfrwt>
<totfact> 0.54710245E+03</totfact>
</mgrwt>
</event>
<event>
 5    1  0.3269032E-002  0.1250026E+03  0.7818608E-02  0.1235065E+00
          4   -1    0    0  501    0  0.00000000000E+00  0.00000000000E+00  0.12100035809E+03  0.12100702276E+03  0.12700000000E+01 0. -1.
         -4   -1    0    0    0  501 -0.00000000000E+00 -0.00000000000E+00 -0.32264249313E+02  0.32289234796E+02  0.12700000000E+01 0. -1.
         25    2    1    2    0    0  0.00000000000E+00  0.00000000000E+00  0.88736108775E+02  0.15329625756E+03  0.12500258229E+03 0.  0.
    9000005    1    3    3    0    0  0.13057898134E+02 -0.60966000285E+02  0.39157965142E+02  0.73632249243E+02  0.10000000000E+01 0.  0.
    9000005    1    3    3    0    0 -0.13057898134E+02  0.60966000285E+02  0.49578143633E+02  0.79664008314E+02  0.10000000000E+01 0.  0.
<mgrwt>
<rscale>  0 0.12500258E+03</rscale>
<asrwt>0</asrwt>
<pdfrwt beam="1">  1        4 0.18617875E-01 0.12500258E+03</pdfrwt>
<pdfrwt beam="2">  1       -4 0.49661652E-02 0.12500258E+03</pdfrwt>
<totfact> 0.98644919E+03</totfact>
</mgrwt>
</event>
<event>
 5    1  0.3269032E-002  0.1250018E+03  0.7818608E-02  0.1235066E+00
         -4   -1    0    0    0  501 -0.00000000000E+00  0.00000000000E+00  0.10545230925E+03  0.10545995650E+03  0.12700000000E+01 0. -1.
          4   -1    0    0  501    0  0.00000000000E+00 -0.00000000000E+00 -0.37023988608E+02  0.37045764029E+02  0.12700000000E+01 0. -1.
         25    2    1    2    0    0  0.00000000000E+00  0.00000000000E+00  0.68428320637E+02  0.14250572053E+03  0.12500178126E+03 0.  0.
    9000005    1    3    3    0    0  0.51900042179E+02 -0.30223232134E+02  0.53904129937E+02  0.80707579341E+02  0.10000000000E+01 0.  0.
    9000005    1    3    3    0    0 -0.51900042179E+02  0.30223232134E+02  0.14524190700E+02  0.61798141188E+02  0.10000000000E+01 0.  0.
<mgrwt>
<rscale>  0 0.12500178E+03</rscale>
<asrwt>0</asrwt>
<pdfrwt beam="2">  1        4 0.56982616E-02 0.12500178E+03</pdfrwt>
<pdfrwt beam="1">  1       -4 0.16225695E-01 0.12500178E+03</pdfrwt>
<totfact> 0.10081510E+04</totfact>
</mgrwt>
</event>
<event>
 4    1  0.3269032E-002  0.1250741E+03  0.7818608E-02  0.1234953E+00
         -4   -1    0    0    0  501 -0.00000000000E+00  0.00000000000E+00  0.97182955324E+01  0.98009268978E+01  0.12700000000E+01 0. -1.
          4   -1    0    0  501    0  0.00000000000E+00 -0.00000000000E+00 -0.40063765521E+03  0.40063966812E+03  0.12700000000E+01 0. -1.
    9000005    1    1    2    0    0 -0.24878755796E+02  0.50307464950E+02 -0.28593195412E+03  0.29138956039E+03  0.10000000000E+01 0.  0.
    9000005    1    1    2    0    0  0.24878755796E+02 -0.50307464950E+02 -0.10498740556E+03  0.11905103463E+03  0.10000000000E+01 0.  0.
<mgrwt>
<rscale>  0 0.12507412E+03</rscale>
<asrwt>0</asrwt>
<pdfrwt beam="2">  1        4 0.61643061E-01 0.12507412E+03</pdfrwt>
<pdfrwt beam="1">  1       -4 0.15016338E-02 0.12507412E+03</pdfrwt>
<totfact> 0.63446033E+03</totfact>
</mgrwt>
</event>
<event>
 5    1  0.3269032E-002  0.1250081E+03  0.7818608E-02  0.1235057E+00
          4   -1    0    0  501    0  0.00000000000E+00  0.00000000000E+00  0.14501825264E+02  0.14557329287E+02  0.12700000000E+01 0.  1.
         -4   -1    0    0    0  501 -0.00000000000E+00 -0.00000000000E+00 -0.26882598618E+03  0.26882898606E+03  0.12700000000E+01 0.  1.
         25    2    1    2    0    0  0.00000000000E+00  0.00000000000E+00 -0.25432416091E+03  0.28338631534E+03  0.12500809934E+03 0.  0.
    9000005    1    3    3    0    0  0.37740703902E+02 -0.14338125341E+01 -0.14284228187E+02  0.40391282776E+02  0.10000000000E+01 0.  0.
    9000005    1    3    3    0    0 -0.37740703902E+02  0.14338125341E+01 -0.24003993273E+03  0.24299503257E+03  0.10000000000E+01 0.  0.
<mgrwt>
<rscale>  0 0.12500810E+03</rscale>
<asrwt>0</asrwt>
<pdfrwt beam="1">  1        4 0.22355505E-02 0.12500810E+03</pdfrwt>
<pdfrwt beam="2">  1       -4 0.41362341E-01 0.12500810E+03</pdfrwt>
<totfact> 0.77717249E+03</totfact>
</mgrwt>
</event>
<event>
 5    1  0.3269032E-002  0.1250032E+03  0.7818608E-02  0.1235064E+00
          4   -1    0    0  501    0  0.00000000000E+00  0.00000000000E+00  0.17729390738E+02  0.17774819154E+02  0.12700000000E+01 0.  1.
         -4   -1    0    0    0  501 -0.00000000000E+00 -0.00000000000E+00 -0.22000842376E+03  0.22001208928E+03  0.12700000000E+01 0.  1.
         25    2    1    2    0    0  0.00000000000E+00  0.00000000000E+00 -0.20227903303E+03  0.23778690843E+03  0.12500322643E+03 0.  0.
    9000005    1    3    3    0    0 -0.59594995550E+02  0.11253935723E+02 -0.72464324934E+02  0.94500227259E+02  0.10000000000E+01 0.  0.
    9000005    1    3    3    0    0  0.59594995550E+02 -0.11253935723E+02 -0.12981470809E+03  0.14328668117E+03  0.10000000000E+01 0.  0.
<mgrwt>
<rscale>  0 0.12500323E+03</rscale>
<asrwt>0</asrwt>
<pdfrwt beam="1">  1        4 0.27313752E-02 0.12500323E+03</pdfrwt>
<pdfrwt beam="2">  1       -4 0.33851224E-01 0.12500323E+03</pdfrwt>
<totfact> 0.84122025E+03</totfact>
</mgrwt>
</event>
<event>
 5    1  0.3269032E-002  0.1250006E+03  0.7818608E-02  0.1235068E+00
         -4   -1    0    0    0  501 -0.00000000000E+00  0.00000000000E+00  0.45060838933E+03  0.45061017902E+03  0.12700000000E+01 0. -1.
          4   -1    0    0  501    0  0.00000000000E+00 -0.00000000000E+00 -0.86205868842E+01  0.87136340426E+01  0.12700000000E+01 0. -1.
         25    2    1    2    0    0  0.00000000000E+00  0.00000000000E+00  0.44198780245E+03  0.45932381306E+03  0.12500059093E+03 0.  0.
    9000005    1    3    3    0    0 -0.10487713449E+02 -0.27941267506E+02  0.19240749078E+02  0.35523414649E+02  0.10000000000E+01 0.  0.
    9000005    1    3    3    0    0  0.10487713449E+02  0.27941267506E+02  0.42274705337E+03  0.42380039841E+03  0.10000000000E+01 0.  0.
<mgrwt>
<rscale>  0 0.12500059E+03</rscale>
<asrwt>0</asrwt>
<pdfrwt beam="2">  1        4 0.13335395E-02 0.12500059E+03</pdfrwt>
<pdfrwt beam="1">  1       -4 0.69331652E-01 0.12500059E+03</pdfrwt>
<totfact> 0.59163733E+03</totfact>
</mgrwt>
</event>
<event>
 5    1  0.3269032E-002  0.1249992E+03  0.7818608E-02  0.1235071E+00
         -4   -1    0    0    0  501 -0.00000000000E+00  0.00000000000E+00  0.61699245836E+02  0.61712315114E+02  0.12700000000E+01 0. -1.
          4   -1    0    0  501    0  0.00000000000E+00 -0.00000000000E+00 -0.63284160566E+02  0.63296902598E+02  0.12700000000E+01 0. -1.
         25    2    1    2    0    0  0.00000000000E+00  0.00000000000E+00 -0.15849147300E+01  0.12500921771E+03  0.12499917023E+03 0.  0.
    9000005    1    3    3    0    0  0.37216911559E+02 -0.10313299998E+02  0.48341273680E+02  0.61881672600E+02  0.10000000000E+01 0.  0.
    9000005    1    3    3    0    0 -0.37216911559E+02  0.10313299998E+02 -0.49926188410E+02  0.63127545113E+02  0.10000000000E+01 0.  0.
<mgrwt>
<rscale>  0 0.12499917E+03</rscale>
<asrwt>0</asrwt>
<pdfrwt beam="2">  1        4 0.97380102E-02 0.12499917E+03</pdfrwt>
<pdfrwt beam="1">  1       -4 0.94941771E-02 0.12499917E+03</pdfrwt>
<totfact> 0.10452858E+04</totfact>
</mgrwt>
</event>
<event>
 4    1  0.3269032E-002  0.1247048E+03  0.7818608E-02  0.1235531E+00
          4   -1    0    0  501    0  0.00000000000E+00  0.00000000000E+00  0.18936840048E+02  0.18979378572E+02  0.12700000000E+01 0. -1.
         -4   -1    0    0    0  501 -0.00000000000E+00 -0.00000000000E+00 -0.20502993871E+03  0.20503387200E+03  0.12700000000E+01 0. -1.
    9000005    1    1    2    0    0  0.38407934272E+02 -0.36176439799E+02 -0.15270367783E+03  0.16156521109E+03  0.10000000000E+01 0.  0.
    9000005    1    1    2    0    0 -0.38407934272E+02  0.36176439799E+02 -0.33389420829E+02  0.62448039480E+02  0.10000000000E+01 0.  0.
<mgrwt>
<rscale>  0 0.12470483E+03</rscale>
<asrwt>0</asrwt>
<pdfrwt beam="1">  1        4 0.29169349E-02 0.12470483E+03</pdfrwt>
<pdfrwt beam="2">  1       -4 0.31546641E-01 0.12470483E+03</pdfrwt>
<totfact> 0.86808102E+03</totfact>
</mgrwt>
</event>
<event>
 5    1  0.3269032E-002  0.1250324E+03  0.7818608E-02  0.1235019E+00
          4   -1    0    0  501    0  0.00000000000E+00  0.00000000000E+00  0.79066088155E+03  0.79066190152E+03  0.12700000000E+01 0.  1.
         -4   -1    0    0    0  501 -0.00000000000E+00 -0.00000000000E+00 -0.48604333963E+01  0.50236155108E+01  0.12700000000E+01 0.  1.
         25    2    1    2    0    0  0.00000000000E+00  0.00000000000E+00  0.78580044815E+03  0.79568551703E+03  0.12503238657E+03 0.  0.
    9000005    1    3    3    0    0  0.22614819218E+02  0.35725347524E+02  0.99918761794E+02  0.10850110351E+03  0.10000000000E+01 0.  0.
    9000005    1    3    3    0    0 -0.22614819218E+02 -0.35725347524E+02  0.68588168636E+03  0.68718441352E+03  0.10000000000E+01 0.  0.
<mgrwt>
<rscale>  0 0.12503239E+03</rscale>
<asrwt>0</asrwt>
<pdfrwt beam="1">  1        4 0.12165277E+00 0.12503239E+03</pdfrwt>
<pdfrwt beam="2">  1       -4 0.76038990E-03 0.12503239E+03</pdfrwt>
<totfact> 0.38430861E+03</totfact>
</mgrwt>
</event>
<event>
 5    1  0.3269032E-002  0.1249981E+03  0.7818608E-02  0.1235072E+00
          4   -1    0    0  501    0  0.00000000000E+00  0.00000000000E+00  0.80344097866E+02  0.80354134690E+02  0.12700000000E+01 0. -1.
         -4   -1    0    0    0  501 -0.00000000000E+00 -0.00000000000E+00 -0.48596193248E+02  0.48612785337E+02  0.12700000000E+01 0. -1.
         25    2    1    2    0    0  0.00000000000E+00  0.00000000000E+00  0.31747904617E+02  0.12896692003E+03  0.12499814804E+03 0.  0.
    9000005    1    3    3    0    0 -0.54071833486E+02  0.92734934292E+00  0.48181277779E+02  0.72436583863E+02  0.10000000000E+01 0.  0.
    9000005    1    3    3    0    0  0.54071833486E+02 -0.92734934292E+00 -0.16433373162E+02  0.56530336164E+02  0.10000000000E+01 0.  0.
<mgrwt>
<rscale>  0 0.12499815E+03</rscale>
<asrwt>0</asrwt>
<pdfrwt beam="1">  1        4 0.12362679E-01 0.12499815E+03</pdfrwt>
<pdfrwt beam="2">  1       -4 0.74783859E-02 0.12499815E+03</pdfrwt>
<totfact> 0.10367091E+04</totfact>
</mgrwt>
</event>
<event>
 5    1  0.3269032E-002  0.1250008E+03  0.7818608E-02  0.1235068E+00
         -4   -1    0    0    0  501 -0.00000000000E+00  0.00000000000E+00  0.16575986520E+02  0.16624567036E+02  0.12700000000E+01 0. -1.
          4   -1    0    0  501    0  0.00000000000E+00 -0.00000000000E+00 -0.23526502520E+03  0.23526845301E+03  0.12700000000E+01 0. -1.
         25    2    1    2    0    0  0.00000000000E+00  0.00000000000E+00 -0.21868903868E+03  0.25189302005E+03  0.12500079164E+03 0.  0.
    9000005    1    3    3    0    0  0.42427674250E+02 -0.45882165330E+02 -0.10962111248E+03  0.12618664326E+03  0.10000000000E+01 0.  0.
    9000005    1    3    3    0    0 -0.42427674250E+02  0.45882165330E+02 -0.10906792620E+03  0.12570637678E+03  0.10000000000E+01 0.  0.
<mgrwt>
<rscale>  0 0.12500079E+03</rscale>
<asrwt>0</asrwt>
<pdfrwt beam="2">  1        4 0.36198618E-01 0.12500079E+03</pdfrwt>
<pdfrwt beam="1">  1       -4 0.25541526E-02 0.12500079E+03</pdfrwt>
<totfact> 0.82055949E+03</totfact>
</mgrwt>
</event>
<event>
 5    1  0.3269032E-002  0.1250017E+03  0.7818608E-02  0.1235067E+00
         -4   -1    0    0    0  501 -0.00000000000E+00  0.00000000000E+00  0.16416158198E+02  0.16465210293E+02  0.12700000000E+01 0. -1.
          4   -1    0    0  501    0  0.00000000000E+00 -0.00000000000E+00 -0.23755212739E+03  0.23755552220E+03  0.12700000000E+01 0. -1.
         25    2    1    2    0    0  0.00000000000E+00  0.00000000000E+00 -0.22113596919E+03  0.25402073249E+03  0.12500166265E+03 0.  0.
    9000005    1    3    3    0    0 -0.10093169376E+01  0.58861875874E+02 -0.15317582370E+03  0.16410232210E+03  0.10000000000E+01 0.  0.
    9000005    1    3    3    0    0  0.10093169376E+01 -0.58861875874E+02 -0.67960145485E+02  0.89918410387E+02  0.10000000000E+01 0.  0.
<mgrwt>
<rscale>  0 0.12500166E+03</rscale>
<asrwt>0</asrwt>
<pdfrwt beam="2">  1        4 0.36550513E-01 0.12500166E+03</pdfrwt>
<pdfrwt beam="1">  1       -4 0.25295974E-02 0.12500166E+03</pdfrwt>
<totfact> 0.81749532E+03</totfact>
</mgrwt>
</event>
<event>
 5    1  0.3269032E-002  0.1249988E+03  0.7818608E-02  0.1235071E+00
          4   -1    0    0  501    0  0.00000000000E+00  0.00000000000E+00  0.79999166593E+02  0.80009246688E+02  0.12700000000E+01 0. -1.
         -4   -1    0    0    0  501 -0.00000000000E+00 -0.00000000000E+00 -0.48806307149E+02  0.48822827832E+02  0.12700000000E+01 0. -1.
         25    2    1    2    0    0  0.00000000000E+00  0.00000000000E+00  0.31192859444E+02  0.12883207452E+03  0.12499883577E+03 0.  0.
    9000005    1    3    3    0    0  0.36654989118E+02  0.44915974311E+02 -0.84458174892E+01  0.58594921356E+02  0.10000000000E+01 0.  0.
    9000005    1    3    3    0    0 -0.36654989118E+02 -0.44915974311E+02  0.39638676933E+02  0.70237153164E+02  0.10000000000E+01 0.  0.
<mgrwt>
<rscale>  0 0.12499884E+03</rscale>
<asrwt>0</asrwt>
<pdfrwt beam="1">  1        4 0.12309610E-01 0.12499884E+03</pdfrwt>
<pdfrwt beam="2">  1       -4 0.75107089E-02 0.12499884E+03</pdfrwt>
<totfact> 0.10369829E+04</totfact>
</mgrwt>
</event>
<event>
 5    1  0.3269032E-002  0.1249987E+03  0.7818608E-02  0.1235071E+00
         -4   -1    0    0    0  501 -0.00000000000E+00  0.00000000000E+00  0.14454291438E+03  0.14454849358E+03  0.12700000000E+01 0. -1.
          4   -1    0    0  501    0  0.00000000000E+00 -0.00000000000E+00 -0.27003244356E+02  0.27033092789E+02  0.12700000000E+01 0. -1.
         25    2    1    2    0    0  0.00000000000E+00  0.00000000000E+00  0.11753967002E+03  0.17158158637E+03  0.12499866700E+03 0.  0.
    9000005    1    3    3    0    0  0.47178048602E+01  0.12808954207E+02  0.14247823219E+03  0.14313411067E+03  0.10000000000E+01 0.  0.
    9000005    1    3    3    0    0 -0.47178048602E+01 -0.12808954207E+02 -0.24938562167E+02  0.28447475697E+02  0.10000000000E+01 0.  0.
<mgrwt>
<rscale>  0 0.12499867E+03</rscale>
<asrwt>0</asrwt>
<pdfrwt beam="2">  1        4 0.41570705E-02 0.12499867E+03</pdfrwt>
<pdfrwt beam="1">  1       -4 0.22240096E-01 0.12499867E+03</pdfrwt>
<totfact> 0.95157516E+03</totfact>
</mgrwt>
</event>
<event>
 5    1  0.3269032E-002  0.1250007E+03  0.7818608E-02  0.1235068E+00
         -4   -1    0    0    0  501 -0.00000000000E+00  0.00000000000E+00  0.11435094372E+03  0.11435799591E+03  0.12700000000E+01 0.  1.
          4   -1    0    0  501    0  0.00000000000E+00 -0.00000000000E+00 -0.34140680884E+02  0.34164294098E+02  0.12700000000E+01 0.  1.
         25    2    1    2    0    0  0.00000000000E+00  0.00000000000E+00  0.80210262835E+02  0.14852229001E+03  0.12500073746E+03 0.  0.
    9000005    1    3    3    0    0  0.55998737024E+02  0.10950304485E+02  0.70386683120E+02  0.90614860135E+02  0.10000000000E+01 0.  0.
    9000005    1    3    3    0    0 -0.55998737024E+02 -0.10950304485E+02  0.98235797148E+01  0.57907429878E+02  0.10000000000E+01 0.  0.
<mgrwt>
<rscale>  0 0.12500074E+03</rscale>
<asrwt>0</asrwt>
<pdfrwt beam="2">  1        4 0.52547714E-02 0.12500074E+03</pdfrwt>
<pdfrwt beam="1">  1       -4 0.17594812E-01 0.12500074E+03</pdfrwt>
<totfact> 0.99597423E+03</totfact>
</mgrwt>
</event>
<event>
 5    1  0.3269032E-002  0.1250039E+03  0.7818608E-02  0.1235063E+00
          4   -1    0    0  501    0  0.00000000000E+00  0.00000000000E+00  0.77594819064E+01  0.78627259558E+01  0.12700000000E+01 0.  1.
         -4   -1    0    0    0  501 -0.00000000000E+00 -0.00000000000E+00 -0.50001625128E+03  0.50001786412E+03  0.12700000000E+01 0.  1.
         25    2    1    2    0    0  0.00000000000E+00  0.00000000000E+00 -0.49225676937E+03  0.50788059008E+03  0.12500386709E+03 0.  0.
    9000005    1    3    3    0    0  0.91985547194E+01  0.48848945863E+02 -0.92237648696E+02  0.10478366646E+03  0.10000000000E+01 0.  0.
    9000005    1    3    3    0    0 -0.91985547194E+01 -0.48848945863E+02 -0.40001912068E+03  0.40309692361E+03  0.10000000000E+01 0.  0.
<mgrwt>
<rscale>  0 0.12500387E+03</rscale>
<asrwt>0</asrwt>
<pdfrwt beam="1">  1        4 0.12018328E-02 0.12500387E+03</pdfrwt>
<pdfrwt beam="2">  1       -4 0.76933618E-01 0.12500387E+03</pdfrwt>
<totfact> 0.55253386E+03</totfact>
</mgrwt>
</event>
<event>
 5    1  0.3269032E-002  0.1249976E+03  0.7818608E-02  0.1235073E+00
          4   -1    0    0  501    0  0.00000000000E+00  0.00000000000E+00  0.12712308452E+03  0.12712942821E+03  0.12700000000E+01 0.  1.
         -4   -1    0    0    0  501 -0.00000000000E+00 -0.00000000000E+00 -0.30706691573E+02  0.30732943357E+02  0.12700000000E+01 0.  1.
         25    2    1    2    0    0  0.00000000000E+00  0.00000000000E+00  0.96416392943E+02  0.15786237157E+03  0.12499763009E+03 0.  0.
    9000005    1    3    3    0    0  0.16305133911E+02  0.12894496637E+02  0.12263472503E+03  0.12438810723E+03  0.10000000000E+01 0.  0.
    9000005    1    3    3    0    0 -0.16305133911E+02 -0.12894496637E+02 -0.26218332091E+02  0.33474264339E+02  0.10000000000E+01 0.  0.
<mgrwt>
<rscale>  0 0.12499763E+03</rscale>
<asrwt>0</asrwt>
<pdfrwt beam="1">  1        4 0.19559905E-01 0.12499763E+03</pdfrwt>
<pdfrwt beam="2">  1       -4 0.47266137E-02 0.12499763E+03</pdfrwt>
<totfact> 0.97761701E+03</totfact>
</mgrwt>
</event>
<event>
 5    1  0.3269032E-002  0.1249966E+03  0.7818608E-02  0.1235075E+00
         -4   -1    0    0    0  501 -0.00000000000E+00  0.00000000000E+00  0.95399467357E+01  0.96241095027E+01  0.12700000000E+01 0. -1.
          4   -1    0    0  501    0  0.00000000000E+00 -0.00000000000E+00 -0.40755675232E+03  0.40755873106E+03  0.12700000000E+01 0. -1.
         25    2    1    2    0    0  0.00000000000E+00  0.00000000000E+00 -0.39801680558E+03  0.41718284056E+03  0.12499657968E+03 0.  0.
    9000005    1    3    3    0    0  0.40270722387E+02 -0.24894977822E+02 -0.62880982582E+02  0.78717907573E+02  0.10000000000E+01 0.  0.
    9000005    1    3    3    0    0 -0.40270722387E+02  0.24894977822E+02 -0.33513582300E+03  0.33846493299E+03  0.10000000000E+01 0.  0.
<mgrwt>
<rscale>  0 0.12499658E+03</rscale>
<asrwt>0</asrwt>
<pdfrwt beam="2">  1        4 0.62707652E-01 0.12499658E+03</pdfrwt>
<pdfrwt beam="1">  1       -4 0.14743107E-02 0.12499658E+03</pdfrwt>
<totfact> 0.62919979E+03</totfact>
</mgrwt>
</event>
<event>
 5    1  0.3269032E-002  0.1249957E+03  0.7818608E-02  0.1235076E+00
          4   -1    0    0  501    0  0.00000000000E+00  0.00000000000E+00  0.91759878903E+02  0.91768667182E+02  0.12700000000E+01 0.  1.
         -4   -1    0    0    0  501 -0.00000000000E+00 -0.00000000000E+00 -0.42547136376E+02  0.42566086428E+02  0.12700000000E+01 0.  1.
         25    2    1    2    0    0  0.00000000000E+00  0.00000000000E+00  0.49212742527E+02  0.13433475361E+03  0.12499572793E+03 0.  0.
    9000005    1    3    3    0    0  0.30300776330E+02 -0.56390392772E+01 -0.33815494614E+02  0.45764871749E+02  0.10000000000E+01 0.  0.
    9000005    1    3    3    0    0 -0.30300776330E+02  0.56390392772E+01  0.83028237141E+02  0.88569881861E+02  0.10000000000E+01 0.  0.
<mgrwt>
<rscale>  0 0.12499573E+03</rscale>
<asrwt>0</asrwt>
<pdfrwt beam="1">  1        4 0.14119038E-01 0.12499573E+03</pdfrwt>
<pdfrwt beam="2">  1       -4 0.65478471E-02 0.12499573E+03</pdfrwt>
<totfact> 0.10253100E+04</totfact>
</mgrwt>
</event>
<event>
 5    1  0.3269032E-002  0.1250015E+03  0.7818608E-02  0.1235067E+00
         -4   -1    0    0    0  501 -0.00000000000E+00  0.00000000000E+00  0.86108439132E+01  0.87039952261E+01  0.12700000000E+01 0.  1.
          4   -1    0    0  501    0  0.00000000000E+00 -0.00000000000E+00 -0.45111969566E+03  0.45112148332E+03  0.12700000000E+01 0.  1.
         25    2    1    2    0    0  0.00000000000E+00  0.00000000000E+00 -0.44250885174E+03  0.45982547854E+03  0.12500154737E+03 0.  0.
    9000005    1    3    3    0    0 -0.20014705372E+02  0.58614269682E+02 -0.25183863950E+03  0.25934517807E+03  0.10000000000E+01 0.  0.
    9000005    1    3    3    0    0  0.20014705372E+02 -0.58614269682E+02 -0.19067021224E+03  0.20048030047E+03  0.10000000000E+01 0.  0.
<mgrwt>
<rscale>  0 0.12500155E+03</rscale>
<asrwt>0</asrwt>
<pdfrwt beam="2">  1        4 0.69410315E-01 0.12500155E+03</pdfrwt>
<pdfrwt beam="1">  1       -4 0.13320486E-02 0.12500155E+03</pdfrwt>
<totfact> 0.59119960E+03</totfact>
</mgrwt>
</event>
<event>
 5    1  0.3269032E-002  0.1250004E+03  0.7818608E-02  0.1235069E+00
          4   -1    0    0  501    0  0.00000000000E+00  0.00000000000E+00  0.52825442044E+02  0.52840706157E+02  0.12700000000E+01 0.  1.
         -4   -1    0    0    0  501 -0.00000000000E+00 -0.00000000000E+00 -0.73915450002E+02  0.73926359636E+02  0.12700000000E+01 0.  1.
         25    2    1    2    0    0  0.00000000000E+00  0.00000000000E+00 -0.21090007958E+02  0.12676706579E+03  0.12500040214E+03 0.  0.
    9000005    1    3    3    0    0 -0.44031598207E+02  0.44342705522E+02 -0.10071544001E+02  0.63304764214E+02  0.10000000000E+01 0.  0.
    9000005    1    3    3    0    0  0.44031598207E+02 -0.44342705522E+02 -0.11018463957E+02  0.63462301578E+02  0.10000000000E+01 0.  0.
<mgrwt>
<rscale>  0 0.12500040E+03</rscale>
<asrwt>0</asrwt>
<pdfrwt beam="1">  1        4 0.81290044E-02 0.12500040E+03</pdfrwt>
<pdfrwt beam="2">  1       -4 0.11373621E-01 0.12500040E+03</pdfrwt>
<totfact> 0.10414116E+04</totfact>
</mgrwt>
</event>
<event>
 5    1  0.3269032E-002  0.1249964E+03  0.7818608E-02  0.1235075E+00
         -4   -1    0    0    0  501 -0.00000000000E+00  0.00000000000E+00  0.52818288874E+02  0.52833555053E+02  0.12700000000E+01 0.  1.
          4   -1    0    0  501    0  0.00000000000E+00 -0.00000000000E+00 -0.73920667944E+02  0.73931576807E+02  0.12700000000E+01 0.  1.
         25    2    1    2    0    0  0.00000000000E+00  0.00000000000E+00 -0.21102379070E+02  0.12676513186E+03  0.12499635296E+03 0.  0.
    9000005    1    3    3    0    0 -0.28750751782E+02 -0.18836953106E+02 -0.63477665751E+02  0.72193147733E+02  0.10000000000E+01 0.  0.
    9000005    1    3    3    0    0  0.28750751782E+02  0.18836953106E+02  0.42375286681E+02  0.54571984128E+02  0.10000000000E+01 0.  0.
<mgrwt>
<rscale>  0 0.12499635E+03</rscale>
<asrwt>0</asrwt>
<pdfrwt beam="2">  1        4 0.11374424E-01 0.12499635E+03</pdfrwt>
<pdfrwt beam="1">  1       -4 0.81279041E-02 0.12499635E+03</pdfrwt>
<totfact> 0.10415110E+04</totfact>
</mgrwt>
</event>
<event>
 5    1  0.3269032E-002  0.1249981E+03  0.7818608E-02  0.1235072E+00
          4   -1    0    0  501    0  0.00000000000E+00  0.00000000000E+00  0.26416194689E+03  0.26416499973E+03  0.12700000000E+01 0. -1.
         -4   -1    0    0    0  501 -0.00000000000E+00 -0.00000000000E+00 -0.14756463753E+02  0.14811013554E+02  0.12700000000E+01 0. -1.
         25    2    1    2    0    0  0.00000000000E+00  0.00000000000E+00  0.24940548314E+03  0.27897601329E+03  0.12499808387E+03 0.  0.
    9000005    1    3    3    0    0 -0.56141256163E+02 -0.61478471038E-01  0.18595800390E+03  0.19425041477E+03  0.10000000000E+01 0.  0.
    9000005    1    3    3    0    0  0.56141256163E+02  0.61478471038E-01  0.63447479235E+02  0.84725598519E+02  0.10000000000E+01 0.  0.
<mgrwt>
<rscale>  0 0.12499808E+03</rscale>
<asrwt>0</asrwt>
<pdfrwt beam="1">  1        4 0.40644730E-01 0.12499808E+03</pdfrwt>
<pdfrwt beam="2">  1       -4 0.22746562E-02 0.12499808E+03</pdfrwt>
<totfact> 0.78317410E+03</totfact>
</mgrwt>
</event>
<event>
 5    1  0.3269032E-002  0.1249997E+03  0.7818608E-02  0.1235070E+00
         -4   -1    0    0    0  501 -0.00000000000E+00  0.00000000000E+00  0.71412138638E+01  0.72532637791E+01  0.12700000000E+01 0. -1.
          4   -1    0    0  501    0  0.00000000000E+00 -0.00000000000E+00 -0.54262761631E+03  0.54262910251E+03  0.12700000000E+01 0. -1.
         25    2    1    2    0    0  0.00000000000E+00  0.00000000000E+00 -0.53548640245E+03  0.54988236628E+03  0.12499971817E+03 0.  0.
    9000005    1    3    3    0    0  0.16042901709E+02 -0.40165644991E+02 -0.46616893765E+03  0.46817211810E+03  0.10000000000E+01 0.  0.
    9000005    1    3    3    0    0 -0.16042901709E+02  0.40165644991E+02 -0.69317464798E+02  0.81710248187E+02  0.10000000000E+01 0.  0.
<mgrwt>
<rscale>  0 0.12499972E+03</rscale>
<asrwt>0</asrwt>
<pdfrwt beam="2">  1        4 0.83489873E-01 0.12499972E+03</pdfrwt>
<pdfrwt beam="1">  1       -4 0.11073823E-02 0.12499972E+03</pdfrwt>
<totfact> 0.52192466E+03</totfact>
</mgrwt>
</event>
<event>
 4    1  0.3269032E-002  0.1252280E+03  0.7818608E-02  0.1234713E+00
         -4   -1    0    0    0  501 -0.00000000000E+00  0.00000000000E+00  0.51051267524E+03  0.51051425492E+03  0.12700000000E+01 0. -1.
          4   -1    0    0  501    0  0.00000000000E+00 -0.00000000000E+00 -0.76254527112E+01  0.77304869867E+01  0.12700000000E+01 0. -1.
    9000005    1    1    2    0    0  0.58196860104E+02 -0.21683361343E+02  0.28415296491E+03  0.29086242479E+03  0.10000000000E+01 0.  0.
    9000005    1    1    2    0    0 -0.58196860104E+02  0.21683361343E+02  0.21873425762E+03  0.22738231712E+03  0.10000000000E+01 0.  0.
<mgrwt>
<rscale>  0 0.12522801E+03</rscale>
<asrwt>0</asrwt>
<pdfrwt beam="2">  1        4 0.11813474E-02 0.12522801E+03</pdfrwt>
<pdfrwt beam="1">  1       -4 0.78548630E-01 0.12522801E+03</pdfrwt>
<totfact> 0.54204008E+03</totfact>
</mgrwt>
</event>
<event>
 5    1  0.3269032E-002  0.1250028E+03  0.7818608E-02  0.1235065E+00
         -4   -1    0    0    0  501 -0.00000000000E+00  0.00000000000E+00  0.89767023673E+02  0.89776007034E+02  0.12700000000E+01 0.  1.
          4   -1    0    0  501    0  0.00000000000E+00 -0.00000000000E+00 -0.43496942280E+02  0.43515478714E+02  0.12700000000E+01 0.  1.
         25    2    1    2    0    0  0.00000000000E+00  0.00000000000E+00  0.46270081392E+02  0.13329148575E+03  0.12500279893E+03 0.  0.
    9000005    1    3    3    0    0  0.10795799327E+02  0.60109251052E+02  0.37271308824E+02  0.71552930105E+02  0.10000000000E+01 0.  0.
    9000005    1    3    3    0    0 -0.10795799327E+02 -0.60109251052E+02  0.89987725683E+01  0.61738555643E+02  0.10000000000E+01 0.  0.
<mgrwt>
<rscale>  0 0.12500280E+03</rscale>
<asrwt>0</asrwt>
<pdfrwt beam="2">  1        4 0.66939542E-02 0.12500280E+03</pdfrwt>
<pdfrwt beam="1">  1       -4 0.13812428E-01 0.12500280E+03</pdfrwt>
<totfact> 0.10273560E+04</totfact>
</mgrwt>
</event>
<event>
 5    1  0.3269032E-002  0.1249893E+03  0.7818608E-02  0.1235086E+00
          4   -1    0    0  501    0  0.00000000000E+00  0.00000000000E+00  0.32618862343E+02  0.32643576405E+02  0.12700000000E+01 0. -1.
         -4   -1    0    0    0  501 -0.00000000000E+00 -0.00000000000E+00 -0.11966042260E+03  0.11966716189E+03  0.12700000000E+01 0. -1.
         25    2    1    2    0    0  0.00000000000E+00  0.00000000000E+00 -0.87041560253E+02  0.15231073830E+03  0.12498931070E+03 0.  0.
    9000005    1    3    3    0    0 -0.23314116084E+02  0.49897013300E+02 -0.75502373827E+01  0.55599154936E+02  0.10000000000E+01 0.  0.
    9000005    1    3    3    0    0  0.23314116084E+02 -0.49897013300E+02 -0.79491322870E+02  0.96711583364E+02  0.10000000000E+01 0.  0.
<mgrwt>
<rscale>  0 0.12498931E+03</rscale>
<asrwt>0</asrwt>
<pdfrwt beam="1">  1        4 0.50207061E-02 0.12498931E+03</pdfrwt>
<pdfrwt beam="2">  1       -4 0.18411715E-01 0.12498931E+03</pdfrwt>
<totfact> 0.98868843E+03</totfact>
</mgrwt>
</event>
<event>
 5    1  0.3269032E-002  0.1250036E+03  0.7818608E-02  0.1235064E+00
          4   -1    0    0  501    0  0.00000000000E+00  0.00000000000E+00  0.83705944376E+01  0.84663895043E+01  0.12700000000E+01 0.  1.
         -4   -1    0    0    0  501 -0.00000000000E+00 -0.00000000000E+00 -0.46393833141E+03  0.46394006968E+03  0.12700000000E+01 0.  1.
         25    2    1    2    0    0  0.00000000000E+00  0.00000000000E+00 -0.45556773697E+03  0.47240645918E+03  0.12500359877E+03 0.  0.
    9000005    1    3    3    0    0 -0.39287950786E+02  0.31196196193E+02 -0.86951626445E+02  0.10039089140E+03  0.10000000000E+01 0.  0.
    9000005    1    3    3    0    0  0.39287950786E+02 -0.31196196193E+02 -0.36861611053E+03  0.37201556779E+03  0.10000000000E+01 0.  0.
<mgrwt>
<rscale>  0 0.12500360E+03</rscale>
<asrwt>0</asrwt>
<pdfrwt beam="1">  1        4 0.12952867E-02 0.12500360E+03</pdfrwt>
<pdfrwt beam="2">  1       -4 0.71382611E-01 0.12500360E+03</pdfrwt>
<totfact> 0.58066112E+03</totfact>
</mgrwt>
</event>
<event>
 5    1  0.3269032E-002  0.1250031E+03  0.7818608E-02  0.1235064E+00
         -4   -1    0    0    0  501 -0.00000000000E+00  0.00000000000E+00  0.11145396913E+03  0.11146120461E+03  0.12700000000E+01 0. -1.
          4   -1    0    0  501    0  0.00000000000E+00 -0.00000000000E+00 -0.35029977174E+02  0.35052991325E+02  0.12700000000E+01 0. -1.
         25    2    1    2    0    0  0.00000000000E+00  0.00000000000E+00  0.76423991953E+02  0.14651419594E+03  0.12500313222E+03 0.  0.
    9000005    1    3    3    0    0 -0.58366998671E+02  0.11015696788E+02  0.60981633076E+02  0.85134080615E+02  0.10000000000E+01 0.  0.
    9000005    1    3    3    0    0  0.58366998671E+02 -0.11015696788E+02  0.15442358877E+02  0.61380115325E+02  0.10000000000E+01 0.  0.
<mgrwt>
<rscale>  0 0.12500313E+03</rscale>
<asrwt>0</asrwt>
<pdfrwt beam="2">  1        4 0.53915541E-02 0.12500313E+03</pdfrwt>
<pdfrwt beam="1">  1       -4 0.17149092E-01 0.12500313E+03</pdfrwt>
<totfact> 0.99996084E+03</totfact>
</mgrwt>
</event>
<event>
 5    1  0.3269032E-002  0.1249997E+03  0.7818608E-02  0.1235070E+00
         -4   -1    0    0    0  501 -0.00000000000E+00  0.00000000000E+00  0.11237552344E+02  0.11309088500E+02  0.12700000000E+01 0. -1.
          4   -1    0    0  501    0  0.00000000000E+00 -0.00000000000E+00 -0.34642956887E+03  0.34643189675E+03  0.12700000000E+01 0. -1.
         25    2    1    2    0    0  0.00000000000E+00  0.00000000000E+00 -0.33519201652E+03  0.35774098525E+03  0.12499969835E+03 0.  0.
    9000005    1    3    3    0    0 -0.33507029949E+02 -0.51587406025E+02 -0.13608226844E+03  0.14934311266E+03  0.10000000000E+01 0.  0.
    9000005    1    3    3    0    0  0.33507029949E+02  0.51587406025E+02 -0.19910974809E+03  0.20839787259E+03  0.10000000000E+01 0.  0.
<mgrwt>
<rscale>  0 0.12499970E+03</rscale>
<asrwt>0</asrwt>
<pdfrwt beam="2">  1        4 0.53302531E-01 0.12499970E+03</pdfrwt>
<pdfrwt beam="1">  1       -4 0.17345363E-02 0.12499970E+03</pdfrwt>
<totfact> 0.68881728E+03</totfact>
</mgrwt>
</event>
<event>
 5    1  0.3269032E-002  0.1250014E+03  0.7818608E-02  0.1235067E+00
         -4   -1    0    0    0  501 -0.00000000000E+00  0.00000000000E+00  0.44327824326E+02  0.44346013456E+02  0.12700000000E+01 0. -1.
          4   -1    0    0  501    0  0.00000000000E+00 -0.00000000000E+00 -0.88083016934E+02  0.88092172026E+02  0.12700000000E+01 0. -1.
         25    2    1    2    0    0  0.00000000000E+00  0.00000000000E+00 -0.43755192608E+02  0.13243818548E+03  0.12500142437E+03 0.  0.
    9000005    1    3    3    0    0 -0.51235617440E+02 -0.31108586056E+02 -0.40607162556E+02  0.72407004300E+02  0.10000000000E+01 0.  0.
    9000005    1    3    3    0    0  0.51235617440E+02  0.31108586056E+02 -0.31480300523E+01  0.60031181182E+02  0.10000000000E+01 0.  0.
<mgrwt>
<rscale>  0 0.12500142E+03</rscale>
<asrwt>0</asrwt>
<pdfrwt beam="2">  1        4 0.13553337E-01 0.12500142E+03</pdfrwt>
<pdfrwt beam="1">  1       -4 0.68217687E-02 0.12500142E+03</pdfrwt>
<totfact> 0.10292024E+04</totfact>
</mgrwt>
</event>
<event>
 4    1  0.3269032E-002  0.1246016E+03  0.7818608E-02  0.1235693E+00
          4   -1    0    0  501    0  0.00000000000E+00  0.00000000000E+00  0.40242066010E+03  0.40242266410E+03  0.12700000000E+01 0.  1.
         -4   -1    0    0    0  501 -0.00000000000E+00 -0.00000000000E+00 -0.96012650898E+01  0.96848950085E+01  0.12700000000E+01 0.  1.
    9000005    1    1    2    0    0  0.35810260949E+02  0.45850007510E+02  0.27005363721E+03  0.27625090941E+03  0.10000000000E+01 0.  0.
    9000005    1    1    2    0    0 -0.35810260949E+02 -0.45850007510E+02  0.12276575781E+03  0.13585664970E+03  0.10000000000E+01 0.  0.
<mgrwt>
<rscale>  0 0.12460162E+03</rscale>
<asrwt>0</asrwt>
<pdfrwt beam="1">  1        4 0.61917441E-01 0.12460162E+03</pdfrwt>
<pdfrwt beam="2">  1       -4 0.14837053E-02 0.12460162E+03</pdfrwt>
<totfact> 0.63952511E+03</totfact>
</mgrwt>
</event>
<event>
 5    1  0.3269032E-002  0.1250005E+03  0.7818608E-02  0.1235068E+00
         -4   -1    0    0    0  501 -0.00000000000E+00  0.00000000000E+00  0.11515117854E+02  0.11584940189E+02  0.12700000000E+01 0.  1.
          4   -1    0    0  501    0  0.00000000000E+00 -0.00000000000E+00 -0.33813451164E+03  0.33813689663E+03  0.12700000000E+01 0.  1.
         25    2    1    2    0    0  0.00000000000E+00  0.00000000000E+00 -0.32661939379E+03  0.34972183682E+03  0.12500053900E+03 0.  0.
    9000005    1    3    3    0    0  0.22989910047E+02  0.52127039542E+02 -0.91460043680E+02  0.10775761600E+03  0.10000000000E+01 0.  0.
    9000005    1    3    3    0    0 -0.22989910047E+02 -0.52127039542E+02 -0.23515935011E+03  0.24196422082E+03  0.10000000000E+01 0.  0.
<mgrwt>
<rscale>  0 0.12500054E+03</rscale>
<asrwt>0</asrwt>
<pdfrwt beam="2">  1        4 0.52026241E-01 0.12500054E+03</pdfrwt>
<pdfrwt beam="1">  1       -4 0.17771113E-02 0.12500054E+03</pdfrwt>
<totfact> 0.69754339E+03</totfact>
</mgrwt>
</event>
<event>
 5    1  0.3269032E-002  0.1249971E+03  0.7818608E-02  0.1235074E+00
          4   -1    0    0  501    0  0.00000000000E+00  0.00000000000E+00  0.29846217667E+03  0.29846487867E+03  0.12700000000E+01 0.  1.
         -4   -1    0    0    0  501 -0.00000000000E+00 -0.00000000000E+00 -0.13053737209E+02  0.13115370949E+02  0.12700000000E+01 0.  1.
         25    2    1    2    0    0  0.00000000000E+00  0.00000000000E+00  0.28540843946E+03  0.31158024962E+03  0.12499709853E+03 0.  0.
    9000005    1    3    3    0    0 -0.38215500311E+02 -0.70631147133E+01  0.26468760419E+03  0.26752726938E+03  0.10000000000E+01 0.  0.
    9000005    1    3    3    0    0  0.38215500311E+02  0.70631147133E+01  0.20720835271E+02  0.44052980237E+02  0.10000000000E+01 0.  0.
<mgrwt>
<rscale>  0 0.12499710E+03</rscale>
<asrwt>0</asrwt>
<pdfrwt beam="1">  1        4 0.45922204E-01 0.12499710E+03</pdfrwt>
<pdfrwt beam="2">  1       -4 0.20132163E-02 0.12499710E+03</pdfrwt>
<totfact> 0.74173595E+03</totfact>
</mgrwt>
</event>
<event>
 5    1  0.3269032E-002  0.1249995E+03  0.7818608E-02  0.1235070E+00
         -4   -1    0    0    0  501 -0.00000000000E+00  0.00000000000E+00  0.12384868643E+02  0.12449814107E+02  0.12700000000E+01 0. -1.
          4   -1    0    0  501    0  0.00000000000E+00 -0.00000000000E+00 -0.31451145189E+03  0.31451401602E+03  0.12700000000E+01 0. -1.
         25    2    1    2    0    0  0.00000000000E+00  0.00000000000E+00 -0.30212658325E+03  0.32696383012E+03  0.12499949561E+03 0.  0.
    9000005    1    3    3    0    0 -0.14862980731E+02  0.22636380049E+02 -0.37467521893E+01  0.27356024015E+02  0.10000000000E+01 0.  0.
    9000005    1    3    3    0    0  0.14862980731E+02 -0.22636380049E+02 -0.29837983106E+03  0.29960780611E+03  0.10000000000E+01 0.  0.
<mgrwt>
<rscale>  0 0.12499950E+03</rscale>
<asrwt>0</asrwt>
<pdfrwt beam="2">  1        4 0.48391564E-01 0.12499950E+03</pdfrwt>
<pdfrwt beam="1">  1       -4 0.19105577E-02 0.12499950E+03</pdfrwt>
<totfact> 0.72336265E+03</totfact>
</mgrwt>
</event>
<event>
 5    1  0.3269032E-002  0.1250166E+03  0.7818608E-02  0.1235043E+00
         -4   -1    0    0    0  501 -0.00000000000E+00  0.00000000000E+00  0.18642316533E+03  0.18642749119E+03  0.12700000000E+01 0.  1.
          4   -1    0    0  501    0  0.00000000000E+00 -0.00000000000E+00 -0.20935411965E+02  0.20973897447E+02  0.12700000000E+01 0.  1.
         25    2    1    2    0    0  0.00000000000E+00  0.00000000000E+00  0.16548775337E+03  0.20740138864E+03  0.12501655689E+03 0.  0.
    9000005    1    3    3    0    0  0.53868218208E+02 -0.23641939332E+02  0.11776229801E+03  0.13164226168E+03  0.10000000000E+01 0.  0.
    9000005    1    3    3    0    0 -0.53868218208E+02  0.23641939332E+02  0.47725455356E+02  0.75759126956E+02  0.10000000000E+01 0.  0.
<mgrwt>
<rscale>  0 0.12501656E+03</rscale>
<asrwt>0</asrwt>
<pdfrwt beam="2">  1        4 0.32241259E-02 0.12501656E+03</pdfrwt>
<pdfrwt beam="1">  1       -4 0.28683779E-01 0.12501656E+03</pdfrwt>
<totfact> 0.88869128E+03</totfact>
</mgrwt>
</event>
<event>
 5    1  0.3269032E-002  0.1250097E+03  0.7818608E-02  0.1235054E+00
         -4   -1    0    0    0  501 -0.00000000000E+00  0.00000000000E+00  0.44892831481E+01  0.46654649483E+01  0.12700000000E+01 0.  1.
          4   -1    0    0  501    0  0.00000000000E+00 -0.00000000000E+00 -0.85333859917E+03  0.85333954422E+03  0.12700000000E+01 0.  1.
         25    2    1    2    0    0  0.00000000000E+00  0.00000000000E+00 -0.84884931602E+03  0.85800500917E+03  0.12500973742E+03 0.  0.
    9000005    1    3    3    0    0  0.90990398234E+01  0.12782601766E+02 -0.92154145415E+01  0.18223921060E+02  0.10000000000E+01 0.  0.
    9000005    1    3    3    0    0 -0.90990398234E+01 -0.12782601766E+02 -0.83963390148E+03  0.83978108811E+03  0.10000000000E+01 0.  0.
<mgrwt>
<rscale>  0 0.12500974E+03</rscale>
<asrwt>0</asrwt>
<pdfrwt beam="2">  1        4 0.13129636E+00 0.12500974E+03</pdfrwt>
<pdfrwt beam="1">  1       -4 0.70428477E-03 0.12500974E+03</pdfrwt>
<totfact> 0.35794393E+03</totfact>
</mgrwt>
</event>
<event>
 5    1  0.3269032E-002  0.1250024E+03  0.7818608E-02  0.1235066E+00
          4   -1    0    0  501    0  0.00000000000E+00  0.00000000000E+00  0.21498753282E+03  0.21499128393E+03  0.12700000000E+01 0.  1.
         -4   -1    0    0    0  501 -0.00000000000E+00 -0.00000000000E+00 -0.18144245470E+02  0.18188637763E+02  0.12700000000E+01 0.  1.
         25    2    1    2    0    0  0.00000000000E+00  0.00000000000E+00  0.19684328735E+03  0.23317992169E+03  0.12500238441E+03 0.  0.
    9000005    1    3    3    0    0  0.29480494237E+02  0.26547615557E+02  0.18849425678E+03  0.19262647864E+03  0.10000000000E+01 0.  0.
    9000005    1    3    3    0    0 -0.29480494237E+02 -0.26547615557E+02  0.83490305624E+01  0.40553443055E+02  0.10000000000E+01 0.  0.
<mgrwt>
<rscale>  0 0.12500238E+03</rscale>
<asrwt>0</asrwt>
<pdfrwt beam="1">  1        4 0.33078709E-01 0.12500238E+03</pdfrwt>
<pdfrwt beam="2">  1       -4 0.27951257E-02 0.12500238E+03</pdfrwt>
<totfact> 0.84819184E+03</totfact>
</mgrwt>
</event>
<event>
 5    1  0.3269032E-002  0.1249995E+03  0.7818608E-02  0.1235070E+00
          4   -1    0    0  501    0  0.00000000000E+00  0.00000000000E+00  0.83074755740E+01  0.84039901483E+01  0.12700000000E+01 0. -1.
         -4   -1    0    0    0  501 -0.00000000000E+00 -0.00000000000E+00 -0.46739231749E+03  0.46739404291E+03  0.12700000000E+01 0. -1.
         25    2    1    2    0    0  0.00000000000E+00  0.00000000000E+00 -0.45908484191E+03  0.47579803305E+03  0.12499950474E+03 0.  0.
    9000005    1    3    3    0    0  0.22590256005E+01  0.60011377797E+02 -0.16375110298E+03  0.17441872717E+03  0.10000000000E+01 0.  0.
    9000005    1    3    3    0    0 -0.22590256005E+01 -0.60011377797E+02 -0.29533373894E+03  0.30137930588E+03  0.10000000000E+01 0.  0.
<mgrwt>
<rscale>  0 0.12499950E+03</rscale>
<asrwt>0</asrwt>
<pdfrwt beam="1">  1        4 0.12856305E-02 0.12499950E+03</pdfrwt>
<pdfrwt beam="2">  1       -4 0.71914047E-01 0.12499950E+03</pdfrwt>
<totfact> 0.57792923E+03</totfact>
</mgrwt>
</event>
<event>
 5    1  0.3269032E-002  0.1249999E+03  0.7818608E-02  0.1235069E+00
          4   -1    0    0  501    0  0.00000000000E+00  0.00000000000E+00  0.72540626351E+02  0.72551742717E+02  0.12700000000E+01 0.  1.
         -4   -1    0    0    0  501 -0.00000000000E+00 -0.00000000000E+00 -0.53826336666E+02  0.53841317024E+02  0.12700000000E+01 0.  1.
         25    2    1    2    0    0  0.00000000000E+00  0.00000000000E+00  0.18714289685E+02  0.12639305974E+03  0.12499992365E+03 0.  0.
    9000005    1    3    3    0    0 -0.19025599372E+02 -0.63644983612E+01 -0.50486629662E+02  0.54335808133E+02  0.10000000000E+01 0.  0.
    9000005    1    3    3    0    0  0.19025599372E+02  0.63644983612E+01  0.69200919347E+02  0.72057251608E+02  0.10000000000E+01 0.  0.
<mgrwt>
<rscale>  0 0.12499992E+03</rscale>
<asrwt>0</asrwt>
<pdfrwt beam="1">  1        4 0.11162104E-01 0.12499992E+03</pdfrwt>
<pdfrwt beam="2">  1       -4 0.82829823E-02 0.12499992E+03</pdfrwt>
<totfact> 0.10422379E+04</totfact>
</mgrwt>
</event>
<event>
 5    1  0.3269032E-002  0.1250001E+03  0.7818608E-02  0.1235069E+00
          4   -1    0    0  501    0  0.00000000000E+00  0.00000000000E+00  0.74107761015E+02  0.74118642342E+02  0.12700000000E+01 0.  1.
         -4   -1    0    0    0  501 -0.00000000000E+00 -0.00000000000E+00 -0.52688090026E+02  0.52703393919E+02  0.12700000000E+01 0.  1.
         25    2    1    2    0    0  0.00000000000E+00  0.00000000000E+00  0.21419670989E+02  0.12682203626E+03  0.12500010630E+03 0.  0.
    9000005    1    3    3    0    0 -0.48495894450E+01 -0.78964184108E+00  0.73916456309E+02  0.74086331838E+02  0.10000000000E+01 0.  0.
    9000005    1    3    3    0    0  0.48495894450E+01  0.78964184108E+00 -0.52496785320E+02  0.52735704422E+02  0.10000000000E+01 0.  0.
<mgrwt>
<rscale>  0 0.12500011E+03</rscale>
<asrwt>0</asrwt>
<pdfrwt beam="1">  1        4 0.11403208E-01 0.12500011E+03</pdfrwt>
<pdfrwt beam="2">  1       -4 0.81078743E-02 0.12500011E+03</pdfrwt>
<totfact> 0.10412989E+04</totfact>
</mgrwt>
</event>
<event>
 5    1  0.3269032E-002  0.1249921E+03  0.7818608E-02  0.1235082E+00
         -4   -1    0    0    0  501 -0.00000000000E+00  0.00000000000E+00  0.23722827230E+03  0.23723167175E+03  0.12700000000E+01 0. -1.
          4   -1    0    0  501    0  0.00000000000E+00 -0.00000000000E+00 -0.16436125319E+02  0.16485118001E+02  0.12700000000E+01 0. -1.
         25    2    1    2    0    0  0.00000000000E+00  0.00000000000E+00  0.22079214698E+03  0.25371678975E+03  0.12499214867E+03 0.  0.
    9000005    1    3    3    0    0 -0.17578109554E+02  0.41233427168E+02  0.22019567211E+02  0.49950443358E+02  0.10000000000E+01 0.  0.
    9000005    1    3    3    0    0  0.17578109554E+02 -0.41233427168E+02  0.19877257977E+03  0.20376634639E+03  0.10000000000E+01 0.  0.
<mgrwt>
<rscale>  0 0.12499215E+03</rscale>
<asrwt>0</asrwt>
<pdfrwt beam="2">  1        4 0.25326649E-02 0.12499215E+03</pdfrwt>
<pdfrwt beam="1">  1       -4 0.36500686E-01 0.12499215E+03</pdfrwt>
<totfact> 0.81810290E+03</totfact>
</mgrwt>
</event>
<event>
 5    1  0.3269032E-002  0.1250035E+03  0.7818608E-02  0.1235064E+00
         -4   -1    0    0    0  501 -0.00000000000E+00  0.00000000000E+00  0.41257044162E+03  0.41257239631E+03  0.12700000000E+01 0. -1.
          4   -1    0    0  501    0  0.00000000000E+00 -0.00000000000E+00 -0.94240391817E+01  0.95092278602E+01  0.12700000000E+01 0. -1.
         25    2    1    2    0    0  0.00000000000E+00  0.00000000000E+00  0.40314640244E+03  0.42208162417E+03  0.12500350261E+03 0.  0.
    9000005    1    3    3    0    0  0.59752984310E+02 -0.67092132602E+01  0.25907751110E+03  0.26596539142E+03  0.10000000000E+01 0.  0.
    9000005    1    3    3    0    0 -0.59752984310E+02  0.67092132602E+01  0.14406889133E+03  0.15611623275E+03  0.10000000000E+01 0.  0.
<mgrwt>
<rscale>  0 0.12500350E+03</rscale>
<asrwt>0</asrwt>
<pdfrwt beam="2">  1        4 0.14565557E-02 0.12500350E+03</pdfrwt>
<pdfrwt beam="1">  1       -4 0.63479072E-01 0.12500350E+03</pdfrwt>
<totfact> 0.62455538E+03</totfact>
</mgrwt>
</event>
<event>
 5    1  0.3269032E-002  0.1249995E+03  0.7818608E-02  0.1235070E+00
          4   -1    0    0  501    0  0.00000000000E+00  0.00000000000E+00  0.39686207148E+02  0.39706522611E+02  0.12700000000E+01 0.  1.
         -4   -1    0    0    0  501 -0.00000000000E+00 -0.00000000000E+00 -0.98378035622E+02  0.98386232741E+02  0.12700000000E+01 0.  1.
         25    2    1    2    0    0  0.00000000000E+00  0.00000000000E+00 -0.58691828474E+02  0.13809275535E+03  0.12499951340E+03 0.  0.
    9000005    1    3    3    0    0  0.12322223035E+02 -0.58172283913E+02 -0.81138566182E+01  0.60022383037E+02  0.10000000000E+01 0.  0.
    9000005    1    3    3    0    0 -0.12322223035E+02  0.58172283913E+02 -0.50577971856E+02  0.78070372314E+02  0.10000000000E+01 0.  0.
<mgrwt>
<rscale>  0 0.12499951E+03</rscale>
<asrwt>0</asrwt>
<pdfrwt beam="1">  1        4 0.61077636E-02 0.12499951E+03</pdfrwt>
<pdfrwt beam="2">  1       -4 0.15137276E-01 0.12499951E+03</pdfrwt>
<totfact> 0.10173380E+04</totfact>
</mgrwt>
</event>
<event>
 4    1  0.3269032E-002  0.1251103E+03  0.7818608E-02  0.1234897E+00
         -4   -1    0    0    0  501 -0.00000000000E+00  0.00000000000E+00  0.18615642620E+03  0.18616075826E+03  0.12700000000E+01 0.  1.
          4   -1    0    0  501    0  0.00000000000E+00 -0.00000000000E+00 -0.20996970716E+02  0.21035343574E+02  0.12700000000E+01 0.  1.
    9000005    1    1    2    0    0  0.34879464542E+02  0.20645181065E+01  0.16849495127E+03  0.17208250313E+03  0.10000000000E+01 0.  0.
    9000005    1    1    2    0    0 -0.34879464542E+02 -0.20645181065E+01 -0.33354957814E+01  0.35113598703E+02  0.10000000000E+01 0.  0.
<mgrwt>
<rscale>  0 0.12511027E+03</rscale>
<asrwt>0</asrwt>
<pdfrwt beam="2">  1        4 0.32335882E-02 0.12511027E+03</pdfrwt>
<pdfrwt beam="1">  1       -4 0.28642735E-01 0.12511027E+03</pdfrwt>
<totfact> 0.88716906E+03</totfact>
</mgrwt>
</event>
<event>
 5    1  0.3269032E-002  0.1249952E+03  0.7818608E-02  0.1235077E+00
         -4   -1    0    0    0  501 -0.00000000000E+00  0.00000000000E+00  0.36165783035E+02  0.36188074866E+02  0.12700000000E+01 0.  1.
          4   -1    0    0  501    0  0.00000000000E+00 -0.00000000000E+00 -0.10794189766E+03  0.10794936855E+03  0.12700000000E+01 0.  1.
         25    2    1    2    0    0  0.00000000000E+00  0.00000000000E+00 -0.71776114629E+02  0.14413744342E+03  0.12499516776E+03 0.  0.
    9000005    1    3    3    0    0  0.55300216779E+02 -0.12233049381E+02 -0.54401056805E+01  0.56906556940E+02  0.10000000000E+01 0.  0.
    9000005    1    3    3    0    0 -0.55300216779E+02  0.12233049381E+02 -0.66336008948E+02  0.87230886480E+02  0.10000000000E+01 0.  0.
<mgrwt>
<rscale>  0 0.12499517E+03</rscale>
<asrwt>0</asrwt>
<pdfrwt beam="2">  1        4 0.16608735E-01 0.12499517E+03</pdfrwt>
<pdfrwt beam="1">  1       -4 0.55662561E-02 0.12499517E+03</pdfrwt>
<totfact> 0.10049637E+04</totfact>
</mgrwt>
</event>
<event>
 5    1  0.3269032E-002  0.1250055E+03  0.7818608E-02  0.1235061E+00
         -4   -1    0    0    0  501 -0.00000000000E+00  0.00000000000E+00  0.14836400895E+03  0.14836944446E+03  0.12700000000E+01 0.  1.
          4   -1    0    0  501    0  0.00000000000E+00 -0.00000000000E+00 -0.26309900934E+02  0.26340535059E+02  0.12700000000E+01 0.  1.
         25    2    1    2    0    0  0.00000000000E+00  0.00000000000E+00  0.12205410801E+03  0.17470997952E+03  0.12500548653E+03 0.  0.
    9000005    1    3    3    0    0  0.51625044725E+02 -0.29398135041E+02  0.33919115494E+02  0.68417117614E+02  0.10000000000E+01 0.  0.
    9000005    1    3    3    0    0 -0.51625044725E+02  0.29398135041E+02  0.88134992519E+02  0.10629286191E+03  0.10000000000E+01 0.  0.
<mgrwt>
<rscale>  0 0.12500549E+03</rscale>
<asrwt>0</asrwt>
<pdfrwt beam="2">  1        4 0.40504516E-02 0.12500549E+03</pdfrwt>
<pdfrwt beam="1">  1       -4 0.22828007E-01 0.12500549E+03</pdfrwt>
<totfact> 0.94566343E+03</totfact>
</mgrwt>
</event>
<event>
 5    1  0.3269032E-002  0.1250009E+03  0.7818608E-02  0.1235068E+00
         -4   -1    0    0    0  501 -0.00000000000E+00  0.00000000000E+00  0.11315419887E+02  0.11386466845E+02  0.12700000000E+01 0.  1.
          4   -1    0    0  501    0  0.00000000000E+00 -0.00000000000E+00 -0.34406728674E+03  0.34406963060E+03  0.12700000000E+01 0.  1.
         25    2    1    2    0    0  0.00000000000E+00  0.00000000000E+00 -0.33275186685E+03  0.35545609745E+03  0.12500092928E+03 0.  0.
    9000005    1    3    3    0    0  0.50902325224E+01 -0.16695642436E+02 -0.33700906840E+03  0.33746224548E+03  0.10000000000E+01 0.  0.
    9000005    1    3    3    0    0 -0.50902325224E+01  0.16695642436E+02  0.42572015482E+01  0.17993851964E+02  0.10000000000E+01 0.  0.
<mgrwt>
<rscale>  0 0.12500093E+03</rscale>
<asrwt>0</asrwt>
<pdfrwt beam="2">  1        4 0.52939066E-01 0.12500093E+03</pdfrwt>
<pdfrwt beam="1">  1       -4 0.17464795E-02 0.12500093E+03</pdfrwt>
<totfact> 0.69127042E+03</totfact>
</mgrwt>
</event>
<event>
 5    1  0.3269032E-002  0.1249972E+03  0.7818608E-02  0.1235074E+00
         -4   -1    0    0    0  501 -0.00000000000E+00  0.00000000000E+00  0.16264157715E+01  0.20635232641E+01  0.12700000000E+01 0. -1.
          4   -1    0    0  501    0  0.00000000000E+00 -0.00000000000E+00 -0.21167128885E+04  0.21167132695E+04  0.12700000000E+01 0. -1.
         25    2    1    2    0    0  0.00000000000E+00  0.00000000000E+00 -0.21150864727E+04  0.21187767928E+04  0.12499724157E+03 0.  0.
    9000005    1    3    3    0    0 -0.18357689787E+01 -0.86528764329E+00 -0.21162372605E+04  0.21162384699E+04  0.10000000000E+01 0.  0.
    9000005    1    3    3    0    0  0.18357689787E+01  0.86528764329E+00  0.11507877659E+01  0.25383228579E+01  0.10000000000E+01 0.  0.
<mgrwt>
<rscale>  0 0.12499724E+03</rscale>
<asrwt>0</asrwt>
<pdfrwt beam="2">  1        4 0.32567985E+00 0.12499724E+03</pdfrwt>
<pdfrwt beam="1">  1       -4 0.28387246E-03 0.12499724E+03</pdfrwt>
<totfact> 0.83901853E+02</totfact>
</mgrwt>
</event>
<event>
 5    1  0.3269032E-002  0.1250008E+03  0.7818608E-02  0.1235068E+00
         -4   -1    0    0    0  501 -0.00000000000E+00  0.00000000000E+00  0.38129684533E+01  0.40189088601E+01  0.12700000000E+01 0.  1.
          4   -1    0    0  501    0  0.00000000000E+00 -0.00000000000E+00 -0.99733188998E+03  0.99733269859E+03  0.12700000000E+01 0.  1.
         25    2    1    2    0    0  0.00000000000E+00  0.00000000000E+00 -0.99351892152E+03  0.10013516074E+04  0.12500077722E+03 0.  0.
    9000005    1    3    3    0    0 -0.59792887549E+02 -0.14108340035E+01 -0.35165211714E+03  0.35670350621E+03  0.10000000000E+01 0.  0.
    9000005    1    3    3    0    0  0.59792887549E+02  0.14108340035E+01 -0.64186680438E+03  0.64464810123E+03  0.10000000000E+01 0.  0.
<mgrwt>
<rscale>  0 0.12500078E+03</rscale>
<asrwt>0</asrwt>
<pdfrwt beam="2">  1        4 0.15345138E+00 0.12500078E+03</pdfrwt>
<pdfrwt beam="1">  1       -4 0.60251510E-03 0.12500078E+03</pdfrwt>
<totfact> 0.30559421E+03</totfact>
</mgrwt>
</event>
<event>
 5    1  0.3269032E-002  0.1250008E+03  0.7818608E-02  0.1235068E+00
         -4   -1    0    0    0  501 -0.00000000000E+00  0.00000000000E+00  0.11994519144E+02  0.12061566627E+02  0.12700000000E+01 0. -1.
          4   -1    0    0  501    0  0.00000000000E+00 -0.00000000000E+00 -0.32469780705E+03  0.32470029074E+03  0.12700000000E+01 0. -1.
         25    2    1    2    0    0  0.00000000000E+00  0.00000000000E+00 -0.31270328791E+03  0.33676185736E+03  0.12500080922E+03 0.  0.
    9000005    1    3    3    0    0 -0.35285642335E+02 -0.32446642548E+02 -0.26436497943E+03  0.26867769449E+03  0.10000000000E+01 0.  0.
    9000005    1    3    3    0    0  0.35285642335E+02  0.32446642548E+02 -0.48338308476E+02  0.68084162872E+02  0.10000000000E+01 0.  0.
<mgrwt>
<rscale>  0 0.12500081E+03</rscale>
<asrwt>0</asrwt>
<pdfrwt beam="2">  1        4 0.49958851E-01 0.12500081E+03</pdfrwt>
<pdfrwt beam="1">  1       -4 0.18506594E-02 0.12500081E+03</pdfrwt>
<totfact> 0.71204621E+03</totfact>
</mgrwt>
</event>
<event>
 5    1  0.3269032E-002  0.1250095E+03  0.7818608E-02  0.1235054E+00
         -4   -1    0    0    0  501 -0.00000000000E+00  0.00000000000E+00  0.16155301327E+03  0.16155800505E+03  0.12700000000E+01 0.  1.
          4   -1    0    0  501    0  0.00000000000E+00 -0.00000000000E+00 -0.24161012550E+02  0.24194367680E+02  0.12700000000E+01 0.  1.
         25    2    1    2    0    0  0.00000000000E+00  0.00000000000E+00  0.13739200072E+03  0.18575237273E+03  0.12500952809E+03 0.  0.
    9000005    1    3    3    0    0  0.30979268239E+02  0.25323050288E+02  0.14003299521E+03  0.14564069378E+03  0.10000000000E+01 0.  0.
    9000005    1    3    3    0    0 -0.30979268239E+02 -0.25323050288E+02 -0.26409944934E+01  0.40111678953E+02  0.10000000000E+01 0.  0.
<mgrwt>
<rscale>  0 0.12500953E+03</rscale>
<asrwt>0</asrwt>
<pdfrwt beam="2">  1        4 0.37200287E-02 0.12500953E+03</pdfrwt>
<pdfrwt beam="1">  1       -4 0.24857259E-01 0.12500953E+03</pdfrwt>
<totfact> 0.92571919E+03</totfact>
</mgrwt>
</event>
<event>
 5    1  0.3269032E-002  0.1250427E+03  0.7818608E-02  0.1235003E+00
          4   -1    0    0  501    0  0.00000000000E+00  0.00000000000E+00  0.84078488729E+03  0.84078584645E+03  0.12700000000E+01 0. -1.
         -4   -1    0    0    0  501 -0.00000000000E+00 -0.00000000000E+00 -0.45614187627E+01  0.47349172251E+01  0.12700000000E+01 0. -1.
         25    2    1    2    0    0  0.00000000000E+00  0.00000000000E+00  0.83622346852E+03  0.84552076367E+03  0.12504268269E+03 0.  0.
    9000005    1    3    3    0    0 -0.25001801461E+02 -0.44741524428E+02  0.17609542460E+03  0.18340526887E+03  0.10000000000E+01 0.  0.
    9000005    1    3    3    0    0  0.25001801461E+02  0.44741524428E+02  0.66012804393E+03  0.66211549481E+03  0.10000000000E+01 0.  0.
<mgrwt>
<rscale>  0 0.12504268E+03</rscale>
<asrwt>0</asrwt>
<pdfrwt beam="1">  1        4 0.12936482E+00 0.12504268E+03</pdfrwt>
<pdfrwt beam="2">  1       -4 0.71517720E-03 0.12504268E+03</pdfrwt>
<totfact> 0.36277528E+03</totfact>
</mgrwt>
</event>
<event>
 5    1  0.3269032E-002  0.1249896E+03  0.7818608E-02  0.1235085E+00
          4   -1    0    0  501    0  0.00000000000E+00  0.00000000000E+00  0.71933349039E+01  0.73045853434E+01  0.12700000000E+01 0.  1.
         -4   -1    0    0    0  501 -0.00000000000E+00 -0.00000000000E+00 -0.53866903064E+03  0.53867052775E+03  0.12700000000E+01 0.  1.
         25    2    1    2    0    0  0.00000000000E+00  0.00000000000E+00 -0.53147569573E+03  0.54597511310E+03  0.12498963542E+03 0.  0.
    9000005    1    3    3    0    0 -0.49931841242E+02 -0.31014469060E+02 -0.35835075348E+03  0.36314094864E+03  0.10000000000E+01 0.  0.
    9000005    1    3    3    0    0  0.49931841242E+02  0.31014469060E+02 -0.17312494226E+03  0.18283416445E+03  0.10000000000E+01 0.  0.
<mgrwt>
<rscale>  0 0.12498964E+03</rscale>
<asrwt>0</asrwt>
<pdfrwt beam="1">  1        4 0.11153402E-02 0.12498964E+03</pdfrwt>
<pdfrwt beam="2">  1       -4 0.82880800E-01 0.12498964E+03</pdfrwt>
<totfact> 0.52477709E+03</totfact>
</mgrwt>
</event>
<event>
 5    1  0.3269032E-002  0.1250067E+03  0.7818608E-02  0.1235059E+00
          4   -1    0    0  501    0  0.00000000000E+00  0.00000000000E+00  0.14946324628E+03  0.14946864182E+03  0.12700000000E+01 0.  1.
         -4   -1    0    0    0  501 -0.00000000000E+00 -0.00000000000E+00 -0.26116679207E+02  0.26147539708E+02  0.12700000000E+01 0.  1.
         25    2    1    2    0    0  0.00000000000E+00  0.00000000000E+00  0.12334656707E+03  0.17561618153E+03  0.12500667025E+03 0.  0.
    9000005    1    3    3    0    0  0.48272332686E+02  0.34764551440E+02  0.88581831383E+02  0.10670769884E+03  0.10000000000E+01 0.  0.
    9000005    1    3    3    0    0 -0.48272332686E+02 -0.34764551440E+02  0.34764735690E+02  0.68908482695E+02  0.10000000000E+01 0.  0.
<mgrwt>
<rscale>  0 0.12500667E+03</rscale>
<asrwt>0</asrwt>
<pdfrwt beam="1">  1        4 0.22997134E-01 0.12500667E+03</pdfrwt>
<pdfrwt beam="2">  1       -4 0.40207396E-02 0.12500667E+03</pdfrwt>
<totfact> 0.94397984E+03</totfact>
</mgrwt>
</event>
<event>
 5    1  0.3269032E-002  0.1250001E+03  0.7818608E-02  0.1235069E+00
          4   -1    0    0  501    0  0.00000000000E+00  0.00000000000E+00  0.30049377871E+03  0.30049646245E+03  0.12700000000E+01 0. -1.
         -4   -1    0    0    0  501 -0.00000000000E+00 -0.00000000000E+00 -0.12965681803E+02  0.13027732136E+02  0.12700000000E+01 0. -1.
         25    2    1    2    0    0  0.00000000000E+00  0.00000000000E+00  0.28752809691E+03  0.31352419459E+03  0.12500005631E+03 0.  0.
    9000005    1    3    3    0    0  0.49411582785E+02 -0.32333430366E+02  0.92465639526E+02  0.10971713506E+03  0.10000000000E+01 0.  0.
    9000005    1    3    3    0    0 -0.49411582785E+02  0.32333430366E+02  0.19506245738E+03  0.20380705953E+03  0.10000000000E+01 0.  0.
<mgrwt>
<rscale>  0 0.12500006E+03</rscale>
<asrwt>0</asrwt>
<pdfrwt beam="1">  1        4 0.46234791E-01 0.12500006E+03</pdfrwt>
<pdfrwt beam="2">  1       -4 0.19996998E-02 0.12500006E+03</pdfrwt>
<totfact> 0.73932921E+03</totfact>
</mgrwt>
</event>
<event>
 4    1  0.3269032E-002  0.1250737E+03  0.7818608E-02  0.1234954E+00
         -4   -1    0    0    0  501 -0.00000000000E+00  0.00000000000E+00  0.32565760138E+03  0.32566007774E+03  0.12700000000E+01 0. -1.
          4   -1    0    0  501    0  0.00000000000E+00 -0.00000000000E+00 -0.11973011712E+02  0.12040178963E+02  0.12700000000E+01 0. -1.
    9000005    1    1    2    0    0 -0.52819366437E+02 -0.22142612094E+02  0.22459475494E+03  0.23178434953E+03  0.10000000000E+01 0.  0.
    9000005    1    1    2    0    0  0.52819366437E+02  0.22142612094E+02  0.89089834727E+02  0.10591590718E+03  0.10000000000E+01 0.  0.
<mgrwt>
<rscale>  0 0.12507374E+03</rscale>
<asrwt>0</asrwt>
<pdfrwt beam="2">  1        4 0.18473589E-02 0.12507374E+03</pdfrwt>
<pdfrwt beam="1">  1       -4 0.50106528E-01 0.12507374E+03</pdfrwt>
<totfact> 0.70983228E+03</totfact>
</mgrwt>
</event>
<event>
 5    1  0.3269032E-002  0.1250108E+03  0.7818608E-02  0.1235052E+00
         -4   -1    0    0    0  501 -0.00000000000E+00  0.00000000000E+00  0.23017683866E+03  0.23018034225E+03  0.12700000000E+01 0. -1.
          4   -1    0    0  501    0  0.00000000000E+00 -0.00000000000E+00 -0.16946193194E+02  0.16993715420E+02  0.12700000000E+01 0. -1.
         25    2    1    2    0    0  0.00000000000E+00  0.00000000000E+00  0.21323064547E+03  0.24717405767E+03  0.12501082600E+03 0.  0.
    9000005    1    3    3    0    0 -0.57846485437E+02 -0.21093358383E+02  0.85432185444E+02  0.10531288599E+03  0.10000000000E+01 0.  0.
    9000005    1    3    3    0    0  0.57846485437E+02  0.21093358383E+02  0.12779846003E+03  0.14186117168E+03  0.10000000000E+01 0.  0.
<mgrwt>
<rscale>  0 0.12501083E+03</rscale>
<asrwt>0</asrwt>
<pdfrwt beam="2">  1        4 0.26110320E-02 0.12501083E+03</pdfrwt>
<pdfrwt beam="1">  1       -4 0.35415742E-01 0.12501083E+03</pdfrwt>
<totfact> 0.82720435E+03</totfact>
</mgrwt>
</event>
<event>
 5    1  0.3269032E-002  0.1249998E+03  0.7818608E-02  0.1235070E+00
          4   -1    0    0  501    0  0.00000000000E+00  0.00000000000E+00  0.51937341903E+01  0.53467536730E+01  0.12700000000E+01 0.  1.
         -4   -1    0    0    0  501 -0.00000000000E+00 -0.00000000000E+00 -0.74103352328E+03  0.74103461156E+03  0.12700000000E+01 0.  1.
         25    2    1    2    0    0  0.00000000000E+00  0.00000000000E+00 -0.73583978909E+03  0.74638136523E+03  0.12499978862E+03 0.  0.
    9000005    1    3    3    0    0 -0.30348065891E+02 -0.29047512451E+02 -0.91667241260E+02  0.10083970549E+03  0.10000000000E+01 0.  0.
    9000005    1    3    3    0    0  0.30348065891E+02  0.29047512451E+02 -0.64417254783E+03  0.64554165974E+03  0.10000000000E+01 0.  0.
<mgrwt>
<rscale>  0 0.12499979E+03</rscale>
<asrwt>0</asrwt>
<pdfrwt beam="1">  1        4 0.81089106E-03 0.12499979E+03</pdfrwt>
<pdfrwt beam="2">  1       -4 0.11401693E+00 0.12499979E+03</pdfrwt>
<totfact> 0.40748028E+03</totfact>
</mgrwt>
</event>
<event>
 5    1  0.3269032E-002  0.1249915E+03  0.7818608E-02  0.1235083E+00
         -4   -1    0    0    0  501 -0.00000000000E+00  0.00000000000E+00  0.51500432516E+02  0.51516089228E+02  0.12700000000E+01 0.  1.
          4   -1    0    0  501    0  0.00000000000E+00 -0.00000000000E+00 -0.75806099083E+02  0.75816736663E+02  0.12700000000E+01 0.  1.
         25    2    1    2    0    0  0.00000000000E+00  0.00000000000E+00 -0.24305666567E+02  0.12733282589E+03  0.12499153220E+03 0.  0.
    9000005    1    3    3    0    0 -0.23235740208E+02  0.21431544883E+02  0.42759636329E+02  0.53184558267E+02  0.10000000000E+01 0.  0.
    9000005    1    3    3    0    0  0.23235740208E+02 -0.21431544883E+02 -0.67065302896E+02  0.74148267624E+02  0.10000000000E+01 0.  0.
<mgrwt>
<rscale>  0 0.12499153E+03</rscale>
<asrwt>0</asrwt>
<pdfrwt beam="2">  1        4 0.11664499E-01 0.12499153E+03</pdfrwt>
<pdfrwt beam="1">  1       -4 0.79251661E-02 0.12499153E+03</pdfrwt>
<totfact> 0.10403911E+04</totfact>
</mgrwt>
</event>
<event>
 5    1  0.3269032E-002  0.1249950E+03  0.7818608E-02  0.1235077E+00
         -4   -1    0    0    0  501 -0.00000000000E+00  0.00000000000E+00  0.17754909305E+02  0.17800272594E+02  0.12700000000E+01 0.  1.
          4   -1    0    0  501    0  0.00000000000E+00 -0.00000000000E+00 -0.21966417956E+03  0.21966785081E+03  0.12700000000E+01 0.  1.
         25    2    1    2    0    0  0.00000000000E+00  0.00000000000E+00 -0.20190927025E+03  0.23746812341E+03  0.12499502478E+03 0.  0.
    9000005    1    3    3    0    0  0.62758376585E+01  0.60926445468E+02 -0.12449410696E+03  0.13874869572E+03  0.10000000000E+01 0.  0.
    9000005    1    3    3    0    0 -0.62758376585E+01 -0.60926445468E+02 -0.77415163293E+02  0.98719427690E+02  0.10000000000E+01 0.  0.
<mgrwt>
<rscale>  0 0.12499502E+03</rscale>
<asrwt>0</asrwt>
<pdfrwt beam="2">  1        4 0.33798259E-01 0.12499502E+03</pdfrwt>
<pdfrwt beam="1">  1       -4 0.27352965E-02 0.12499502E+03</pdfrwt>
<totfact> 0.84185236E+03</totfact>
</mgrwt>
</event>
<event>
 5    1  0.3269032E-002  0.1250000E+03  0.7818608E-02  0.1235069E+00
          4   -1    0    0  501    0  0.00000000000E+00  0.00000000000E+00  0.43399955072E+03  0.43400140890E+03  0.12700000000E+01 0.  1.
         -4   -1    0    0    0  501 -0.00000000000E+00 -0.00000000000E+00 -0.89538955466E+01  0.90435139995E+01  0.12700000000E+01 0.  1.
         25    2    1    2    0    0  0.00000000000E+00  0.00000000000E+00  0.42504565518E+03  0.44304492290E+03  0.12499997889E+03 0.  0.
    9000005    1    3    3    0    0  0.50102439695E+02  0.36980789936E+02  0.23108099395E+03  0.23932667852E+03  0.10000000000E+01 0.  0.
    9000005    1    3    3    0    0 -0.50102439695E+02 -0.36980789936E+02  0.19396466123E+03  0.20371824438E+03  0.10000000000E+01 0.  0.
<mgrwt>
<rscale>  0 0.12499998E+03</rscale>
<asrwt>0</asrwt>
<pdfrwt beam="1">  1        4 0.66776204E-01 0.12499998E+03</pdfrwt>
<pdfrwt beam="2">  1       -4 0.13845589E-02 0.12499998E+03</pdfrwt>
<totfact> 0.60571108E+03</totfact>
</mgrwt>
</event>
<event>
 5    1  0.3269032E-002  0.1249999E+03  0.7818608E-02  0.1235069E+00
         -4   -1    0    0    0  501 -0.00000000000E+00  0.00000000000E+00  0.23084236317E+03  0.23084585665E+03  0.12700000000E+01 0.  1.
          4   -1    0    0  501    0  0.00000000000E+00 -0.00000000000E+00 -0.16894234281E+02  0.16941902253E+02  0.12700000000E+01 0.  1.
         25    2    1    2    0    0  0.00000000000E+00  0.00000000000E+00  0.21394812889E+03  0.24778775891E+03  0.12499988643E+03 0.  0.
    9000005    1    3    3    0    0  0.66850932900E+01  0.59620219657E+02  0.72298937969E+02  0.93954230856E+02  0.10000000000E+01 0.  0.
    9000005    1    3    3    0    0 -0.66850932900E+01 -0.59620219657E+02  0.14164919092E+03  0.15383352805E+03  0.10000000000E+01 0.  0.
<mgrwt>
<rscale>  0 0.12499989E+03</rscale>
<asrwt>0</asrwt>
<pdfrwt beam="2">  1        4 0.26030485E-02 0.12499989E+03</pdfrwt>
<pdfrwt beam="1">  1       -4 0.35518145E-01 0.12499989E+03</pdfrwt>
<totfact> 0.82651229E+03</totfact>
</mgrwt>
</event>
<event>
 5    1  0.3269032E-002  0.1249952E+03  0.7818608E-02  0.1235077E+00
          4   -1    0    0  501    0  0.00000000000E+00  0.00000000000E+00  0.64986371689E+02  0.64998780029E+02  0.12700000000E+01 0. -1.
         -4   -1    0    0    0  501 -0.00000000000E+00 -0.00000000000E+00 -0.60079311353E+02  0.60092732944E+02  0.12700000000E+01 0. -1.
         25    2    1    2    0    0  0.00000000000E+00  0.00000000000E+00  0.49070603363E+01  0.12509151297E+03  0.12499522942E+03 0.  0.
    9000005    1    3    3    0    0  0.36408024908E+02 -0.36091779500E+02  0.38213267238E+02  0.63948531009E+02  0.10000000000E+01 0.  0.
    9000005    1    3    3    0    0 -0.36408024908E+02  0.36091779500E+02 -0.33306206902E+02  0.61142981964E+02  0.10000000000E+01 0.  0.
<mgrwt>
<rscale>  0 0.12499523E+03</rscale>
<asrwt>0</asrwt>
<pdfrwt beam="1">  1        4 0.99998902E-02 0.12499523E+03</pdfrwt>
<pdfrwt beam="2">  1       -4 0.92449579E-02 0.12499523E+03</pdfrwt>
<totfact> 0.10452002E+04</totfact>
</mgrwt>
</event>
<event>
 5    1  0.3269032E-002  0.1249998E+03  0.7818608E-02  0.1235070E+00
          4   -1    0    0  501    0  0.00000000000E+00  0.00000000000E+00  0.67919295283E+03  0.67919414019E+03  0.12700000000E+01 0.  1.
         -4   -1    0    0    0  501 -0.00000000000E+00 -0.00000000000E+00 -0.56799772586E+01  0.58202269422E+01  0.12700000000E+01 0.  1.
         25    2    1    2    0    0  0.00000000000E+00  0.00000000000E+00  0.67351297557E+03  0.68501436714E+03  0.12499981968E+03 0.  0.
    9000005    1    3    3    0    0  0.39178119228E+02  0.48628078875E+02  0.34975217904E+03  0.35528467716E+03  0.10000000000E+01 0.  0.
    9000005    1    3    3    0    0 -0.39178119228E+02 -0.48628078875E+02  0.32376079654E+03  0.32972968998E+03  0.10000000000E+01 0.  0.
<mgrwt>
<rscale>  0 0.12499982E+03</rscale>
<asrwt>0</asrwt>
<pdfrwt beam="1">  1        4 0.10450203E+00 0.12499982E+03</pdfrwt>
<pdfrwt beam="2">  1       -4 0.88472303E-03 0.12499982E+03</pdfrwt>
<totfact> 0.43889858E+03</totfact>
</mgrwt>
</event>
<event>
 5    1  0.3269032E-002  0.1249997E+03  0.7818608E-02  0.1235070E+00
         -4   -1    0    0    0  501 -0.00000000000E+00  0.00000000000E+00  0.17235976735E+04  0.17235981414E+04  0.12700000000E+01 0.  1.
          4   -1    0    0  501    0  0.00000000000E+00 -0.00000000000E+00 -0.20878998615E+01  0.24438137883E+01  0.12700000000E+01 0.  1.
         25    2    1    2    0    0  0.00000000000E+00  0.00000000000E+00  0.17215097736E+04  0.17260419552E+04  0.12499972118E+03 0.  0.
    9000005    1    3    3    0    0 -0.17884934920E+02  0.59800317826E+02  0.90282774558E+03  0.90498336289E+03  0.10000000000E+01 0.  0.
    9000005    1    3    3    0    0  0.17884934920E+02 -0.59800317826E+02  0.81868202806E+03  0.82105859230E+03  0.10000000000E+01 0.  0.
<mgrwt>
<rscale>  0 0.12499972E+03</rscale>
<asrwt>0</asrwt>
<pdfrwt beam="2">  1        4 0.34863034E-03 0.12499972E+03</pdfrwt>
<pdfrwt beam="1">  1       -4 0.26519553E+00 0.12499972E+03</pdfrwt>
<totfact> 0.13878162E+03</totfact>
</mgrwt>
</event>
<event>
 5    1  0.3269032E-002  0.1250002E+03  0.7818608E-02  0.1235069E+00
         -4   -1    0    0    0  501 -0.00000000000E+00  0.00000000000E+00  0.46506857333E+02  0.46524194555E+02  0.12700000000E+01 0.  1.
          4   -1    0    0  501    0  0.00000000000E+00 -0.00000000000E+00 -0.83955528264E+02  0.83965133395E+02  0.12700000000E+01 0.  1.
         25    2    1    2    0    0  0.00000000000E+00  0.00000000000E+00 -0.37448670931E+02  0.13048932795E+03  0.12500024702E+03 0.  0.
    9000005    1    3    3    0    0  0.25413430606E+02 -0.44358585758E+02  0.18794684396E+02  0.54477213100E+02  0.10000000000E+01 0.  0.
    9000005    1    3    3    0    0 -0.25413430606E+02  0.44358585758E+02 -0.56243355326E+02  0.76012114850E+02  0.10000000000E+01 0.  0.
<mgrwt>
<rscale>  0 0.12500025E+03</rscale>
<asrwt>0</asrwt>
<pdfrwt beam="2">  1        4 0.12918308E-01 0.12500025E+03</pdfrwt>
<pdfrwt beam="1">  1       -4 0.71569736E-02 0.12500025E+03</pdfrwt>
<totfact> 0.10333992E+04</totfact>
</mgrwt>
</event>
<event>
 5    1  0.3269032E-002  0.1250015E+03  0.7818608E-02  0.1235067E+00
         -4   -1    0    0    0  501 -0.00000000000E+00  0.00000000000E+00  0.22849101147E+02  0.22884368535E+02  0.12700000000E+01 0.  1.
          4   -1    0    0  501    0  0.00000000000E+00 -0.00000000000E+00 -0.17079317909E+03  0.17079790082E+03  0.12700000000E+01 0.  1.
         25    2    1    2    0    0  0.00000000000E+00  0.00000000000E+00 -0.14794407794E+03  0.19368226935E+03  0.12500148504E+03 0.  0.
    9000005    1    3    3    0    0  0.44118268876E+02  0.42780889742E+02 -0.91550952898E+02  0.11026877687E+03  0.10000000000E+01 0.  0.
    9000005    1    3    3    0    0 -0.44118268876E+02 -0.42780889742E+02 -0.56393125045E+02  0.83413492482E+02  0.10000000000E+01 0.  0.
<mgrwt>
<rscale>  0 0.12500149E+03</rscale>
<asrwt>0</asrwt>
<pdfrwt beam="2">  1        4 0.26278949E-01 0.12500149E+03</pdfrwt>
<pdfrwt beam="1">  1       -4 0.35183225E-02 0.12500149E+03</pdfrwt>
<totfact> 0.91207498E+03</totfact>
</mgrwt>
</event>
<event>
 5    1  0.3269032E-002  0.1249876E+03  0.7818608E-02  0.1235089E+00
         -4   -1    0    0    0  501 -0.00000000000E+00  0.00000000000E+00  0.16016664115E+02  0.16066935905E+02  0.12700000000E+01 0. -1.
          4   -1    0    0  501    0  0.00000000000E+00 -0.00000000000E+00 -0.24340422796E+03  0.24340754115E+03  0.12700000000E+01 0. -1.
         25    2    1    2    0    0  0.00000000000E+00  0.00000000000E+00 -0.22738756384E+03  0.25947447705E+03  0.12498759959E+03 0.  0.
    9000005    1    3    3    0    0 -0.45473787548E+02 -0.42783631354E+02 -0.10853687190E+03  0.12521803794E+03  0.10000000000E+01 0.  0.
    9000005    1    3    3    0    0  0.45473787548E+02  0.42783631354E+02 -0.11885069195E+03  0.13425643911E+03  0.10000000000E+01 0.  0.
<mgrwt>
<rscale>  0 0.12498760E+03</rscale>
<asrwt>0</asrwt>
<pdfrwt beam="2">  1        4 0.37450923E-01 0.12498760E+03</pdfrwt>
<pdfrwt beam="1">  1       -4 0.24682243E-02 0.12498760E+03</pdfrwt>
<totfact> 0.81002226E+03</totfact>
</mgrwt>
</event>
<event>
 5    1  0.3269032E-002  0.1250065E+03  0.7818608E-02  0.1235059E+00
         -4   -1    0    0    0  501 -0.00000000000E+00  0.00000000000E+00  0.62026718435E+03  0.62026848452E+03  0.12700000000E+01 0. -1.
          4   -1    0    0  501    0  0.00000000000E+00 -0.00000000000E+00 -0.62330078956E+01  0.63610759646E+01  0.12700000000E+01 0. -1.
         25    2    1    2    0    0  0.00000000000E+00  0.00000000000E+00  0.61403417646E+03  0.62662956048E+03  0.12500654468E+03 0.  0.
    9000005    1    3    3    0    0  0.30065386070E+02 -0.35285740700E+02  0.96919767254E+02  0.10744045896E+03  0.10000000000E+01 0.  0.
    9000005    1    3    3    0    0 -0.30065386070E+02  0.35285740700E+02  0.51711440920E+03  0.51918910152E+03  0.10000000000E+01 0.  0.
<mgrwt>
<rscale>  0 0.12500654E+03</rscale>
<asrwt>0</asrwt>
<pdfrwt beam="2">  1        4 0.96887529E-03 0.12500654E+03</pdfrwt>
<pdfrwt beam="1">  1       -4 0.95435711E-01 0.12500654E+03</pdfrwt>
<totfact> 0.47221905E+03</totfact>
</mgrwt>
</event>
<event>
 5    1  0.3269032E-002  0.1250060E+03  0.7818608E-02  0.1235060E+00
         -4   -1    0    0    0  501 -0.00000000000E+00  0.00000000000E+00  0.87861595134E+02  0.87870773295E+02  0.12700000000E+01 0. -1.
          4   -1    0    0  501    0  0.00000000000E+00 -0.00000000000E+00 -0.44442807672E+02  0.44460949763E+02  0.12700000000E+01 0. -1.
         25    2    1    2    0    0  0.00000000000E+00  0.00000000000E+00  0.43418787462E+02  0.13233172306E+03  0.12500597515E+03 0.  0.
    9000005    1    3    3    0    0 -0.20118716280E+02 -0.41801069973E+02 -0.22619812142E+02  0.51621198136E+02  0.10000000000E+01 0.  0.
    9000005    1    3    3    0    0  0.20118716280E+02  0.41801069973E+02  0.66038599604E+02  0.80710524922E+02  0.10000000000E+01 0.  0.
<mgrwt>
<rscale>  0 0.12500598E+03</rscale>
<asrwt>0</asrwt>
<pdfrwt beam="2">  1        4 0.68394567E-02 0.12500598E+03</pdfrwt>
<pdfrwt beam="1">  1       -4 0.13519270E-01 0.12500598E+03</pdfrwt>
<totfact> 0.10293236E+04</totfact>
</mgrwt>
</event>
<event>
 5    1  0.3269032E-002  0.1250030E+03  0.7818608E-02  0.1235065E+00
          4   -1    0    0  501    0  0.00000000000E+00  0.00000000000E+00  0.50256948575E+02  0.50272992551E+02  0.12700000000E+01 0. -1.
         -4   -1    0    0    0  501 -0.00000000000E+00 -0.00000000000E+00 -0.77695657108E+02  0.77706036017E+02  0.12700000000E+01 0. -1.
         25    2    1    2    0    0  0.00000000000E+00  0.00000000000E+00 -0.27438708533E+02  0.12797902857E+03  0.12500299607E+03 0.  0.
    9000005    1    3    3    0    0  0.15395896048E+02  0.45917830311E+02 -0.54155954191E+02  0.72659122827E+02  0.10000000000E+01 0.  0.
    9000005    1    3    3    0    0 -0.15395896048E+02 -0.45917830311E+02  0.26717245658E+02  0.55319905741E+02  0.10000000000E+01 0.  0.
<mgrwt>
<rscale>  0 0.12500300E+03</rscale>
<asrwt>0</asrwt>
<pdfrwt beam="1">  1        4 0.77338708E-02 0.12500300E+03</pdfrwt>
<pdfrwt beam="2">  1       -4 0.11955211E-01 0.12500300E+03</pdfrwt>
<totfact> 0.10387238E+04</totfact>
</mgrwt>
</event>
<event>
 5    1  0.3269032E-002  0.1249951E+03  0.7818608E-02  0.1235077E+00
          4   -1    0    0  501    0  0.00000000000E+00  0.00000000000E+00  0.23821834299E+03  0.23822172830E+03  0.12700000000E+01 0.  1.
         -4   -1    0    0    0  501 -0.00000000000E+00 -0.00000000000E+00 -0.16368395588E+02  0.16417590388E+02  0.12700000000E+01 0.  1.
         25    2    1    2    0    0  0.00000000000E+00  0.00000000000E+00  0.22184994740E+03  0.25463931869E+03  0.12499513375E+03 0.  0.
    9000005    1    3    3    0    0 -0.48796964375E+02 -0.38942721632E+02  0.10543339832E+03  0.12253522262E+03  0.10000000000E+01 0.  0.
    9000005    1    3    3    0    0  0.48796964375E+02  0.38942721632E+02  0.11641654908E+03  0.13210409607E+03  0.10000000000E+01 0.  0.
<mgrwt>
<rscale>  0 0.12499513E+03</rscale>
<asrwt>0</asrwt>
<pdfrwt beam="1">  1        4 0.36653017E-01 0.12499513E+03</pdfrwt>
<pdfrwt beam="2">  1       -4 0.25222596E-02 0.12499513E+03</pdfrwt>
<totfact> 0.81673144E+03</totfact>
</mgrwt>
</event>
<event>
 5    1  0.3269032E-002  0.1249997E+03  0.7818608E-02  0.1235070E+00
          4   -1    0    0  501    0  0.00000000000E+00  0.00000000000E+00  0.76646211377E+02  0.76656732375E+02  0.12700000000E+01 0.  1.
         -4   -1    0    0    0  501 -0.00000000000E+00 -0.00000000000E+00 -0.50942512331E+02  0.50958340462E+02  0.12700000000E+01 0.  1.
         25    2    1    2    0    0  0.00000000000E+00  0.00000000000E+00  0.25703699046E+02  0.12761507284E+03  0.12499970668E+03 0.  0.
    9000005    1    3    3    0    0 -0.23689241282E+02  0.26098480504E+02  0.65535044659E+02  0.74418767227E+02  0.10000000000E+01 0.  0.
    9000005    1    3    3    0    0  0.23689241282E+02 -0.26098480504E+02 -0.39831345614E+02  0.53196305610E+02  0.10000000000E+01 0.  0.
<mgrwt>
<rscale>  0 0.12499971E+03</rscale>
<asrwt>0</asrwt>
<pdfrwt beam="1">  1        4 0.11793752E-01 0.12499971E+03</pdfrwt>
<pdfrwt beam="2">  1       -4 0.78393364E-02 0.12499971E+03</pdfrwt>
<totfact> 0.10395878E+04</totfact>
</mgrwt>
</event>
<event>
 5    1  0.3269032E-002  0.1249986E+03  0.7818608E-02  0.1235072E+00
         -4   -1    0    0    0  501 -0.00000000000E+00  0.00000000000E+00  0.42014774944E+03  0.42014966888E+03  0.12700000000E+01 0.  1.
          4   -1    0    0  501    0  0.00000000000E+00 -0.00000000000E+00 -0.92517898307E+01  0.93385499448E+01  0.12700000000E+01 0.  1.
         25    2    1    2    0    0  0.00000000000E+00  0.00000000000E+00  0.41089595961E+03  0.42948821882E+03  0.12499856193E+03 0.  0.
    9000005    1    3    3    0    0  0.53120050882E+02 -0.16105702824E+02  0.10681620045E+03  0.12038203416E+03  0.10000000000E+01 0.  0.
    9000005    1    3    3    0    0 -0.53120050882E+02  0.16105702824E+02  0.30407975916E+03  0.30910618467E+03  0.10000000000E+01 0.  0.
<mgrwt>
<rscale>  0 0.12499856E+03</rscale>
<asrwt>0</asrwt>
<pdfrwt beam="2">  1        4 0.14301741E-02 0.12499856E+03</pdfrwt>
<pdfrwt beam="1">  1       -4 0.64644922E-01 0.12499856E+03</pdfrwt>
<totfact> 0.61784374E+03</totfact>
</mgrwt>
</event>
<event>
 5    1  0.3269032E-002  0.1250162E+03  0.7818608E-02  0.1235044E+00
         -4   -1    0    0    0  501 -0.00000000000E+00  0.00000000000E+00  0.57059470974E+02  0.57073602724E+02  0.12700000000E+01 0.  1.
          4   -1    0    0  501    0  0.00000000000E+00 -0.00000000000E+00 -0.68448496315E+02  0.68460277152E+02  0.12700000000E+01 0.  1.
         25    2    1    2    0    0  0.00000000000E+00  0.00000000000E+00 -0.11389025341E+02  0.12553387988E+03  0.12501617935E+03 0.  0.
    9000005    1    3    3    0    0 -0.50780657330E+02 -0.19491193441E+02  0.25217371066E+02  0.59962468129E+02  0.10000000000E+01 0.  0.
    9000005    1    3    3    0    0  0.50780657330E+02  0.19491193441E+02 -0.36606396406E+02  0.65571411747E+02  0.10000000000E+01 0.  0.
<mgrwt>
<rscale>  0 0.12501618E+03</rscale>
<asrwt>0</asrwt>
<pdfrwt beam="2">  1        4 0.10532531E-01 0.12501618E+03</pdfrwt>
<pdfrwt beam="1">  1       -4 0.87803735E-02 0.12501618E+03</pdfrwt>
<totfact> 0.10437396E+04</totfact>
</mgrwt>
</event>
<event>
 5    1  0.3269032E-002  0.1250013E+03  0.7818608E-02  0.1235067E+00
          4   -1    0    0  501    0  0.00000000000E+00  0.00000000000E+00  0.10231446009E+02  0.10309965443E+02  0.12700000000E+01 0.  1.
         -4   -1    0    0    0  501 -0.00000000000E+00 -0.00000000000E+00 -0.38025729295E+03  0.38025941374E+03  0.12700000000E+01 0.  1.
         25    2    1    2    0    0  0.00000000000E+00  0.00000000000E+00 -0.37002584694E+03  0.39056937918E+03  0.12500125021E+03 0.  0.
    9000005    1    3    3    0    0  0.20925939330E+02 -0.93625569757E+01 -0.33661131503E+01  0.23192307511E+02  0.10000000000E+01 0.  0.
    9000005    1    3    3    0    0 -0.20925939330E+02  0.93625569757E+01 -0.36665973379E+03  0.36737707167E+03  0.10000000000E+01 0.  0.
<mgrwt>
<rscale>  0 0.12500125E+03</rscale>
<asrwt>0</asrwt>
<pdfrwt beam="1">  1        4 0.15802720E-02 0.12500125E+03</pdfrwt>
<pdfrwt beam="2">  1       -4 0.58507314E-01 0.12500125E+03</pdfrwt>
<totfact> 0.65478649E+03</totfact>
</mgrwt>
</event>
<event>
 5    1  0.3269032E-002  0.1250036E+03  0.7818608E-02  0.1235064E+00
         -4   -1    0    0    0  501 -0.00000000000E+00  0.00000000000E+00  0.16899485769E+04  0.16899490541E+04  0.12700000000E+01 0. -1.
          4   -1    0    0  501    0  0.00000000000E+00 -0.00000000000E+00 -0.21366457123E+01  0.24855894472E+01  0.12700000000E+01 0. -1.
         25    2    1    2    0    0  0.00000000000E+00  0.00000000000E+00  0.16878119312E+04  0.16924346436E+04  0.12500363048E+03 0.  0.
    9000005    1    3    3    0    0 -0.75837392482E+01 -0.57907711605E+02  0.54278360712E+03  0.54591744827E+03  0.10000000000E+01 0.  0.
    9000005    1    3    3    0    0  0.75837392482E+01  0.57907711605E+02  0.11450283241E+04  0.11465171953E+04  0.10000000000E+01 0.  0.
<mgrwt>
<rscale>  0 0.12500363E+03</rscale>
<asrwt>0</asrwt>
<pdfrwt beam="2">  1        4 0.35559281E-03 0.12500363E+03</pdfrwt>
<pdfrwt beam="1">  1       -4 0.26001929E+00 0.12500363E+03</pdfrwt>
<totfact> 0.14433344E+03</totfact>
</mgrwt>
</event>
<event>
 5    1  0.3269032E-002  0.1249968E+03  0.7818608E-02  0.1235074E+00
         -4   -1    0    0    0  501 -0.00000000000E+00  0.00000000000E+00  0.30388206039E+01  0.32935286036E+01  0.12700000000E+01 0.  1.
          4   -1    0    0  501    0  0.00000000000E+00 -0.00000000000E+00 -0.12334259007E+04  0.12334265546E+04  0.12700000000E+01 0.  1.
         25    2    1    2    0    0  0.00000000000E+00  0.00000000000E+00 -0.12303870801E+04  0.12367200832E+04  0.12499678859E+03 0.  0.
    9000005    1    3    3    0    0  0.62382219766E+02 -0.36753093648E+01 -0.61526164058E+03  0.61842779337E+03  0.10000000000E+01 0.  0.
    9000005    1    3    3    0    0 -0.62382219766E+02  0.36753093648E+01 -0.61512543955E+03  0.61829228980E+03  0.10000000000E+01 0.  0.
<mgrwt>
<rscale>  0 0.12499679E+03</rscale>
<asrwt>0</asrwt>
<pdfrwt beam="2">  1        4 0.18977709E+00 0.12499679E+03</pdfrwt>
<pdfrwt beam="1">  1       -4 0.48715506E-03 0.12499679E+03</pdfrwt>
<totfact> 0.23773057E+03</totfact>
</mgrwt>
</event>
<event>
 5    1  0.3269032E-002  0.1249970E+03  0.7818608E-02  0.1235074E+00
         -4   -1    0    0    0  501 -0.00000000000E+00  0.00000000000E+00  0.25084666398E+02  0.25116794944E+02  0.12700000000E+01 0. -1.
          4   -1    0    0  501    0  0.00000000000E+00 -0.00000000000E+00 -0.15558077967E+03  0.15558596306E+03  0.12700000000E+01 0. -1.
         25    2    1    2    0    0  0.00000000000E+00  0.00000000000E+00 -0.13049611327E+03  0.18070275801E+03  0.12499700466E+03 0.  0.
    9000005    1    3    3    0    0 -0.18958380191E+02 -0.10506751793E+02 -0.14997945983E+03  0.15154091983E+03  0.10000000000E+01 0.  0.
    9000005    1    3    3    0    0  0.18958380191E+02  0.10506751793E+02  0.19483346558E+02  0.29161838176E+02  0.10000000000E+01 0.  0.
<mgrwt>
<rscale>  0 0.12499700E+03</rscale>
<asrwt>0</asrwt>
<pdfrwt beam="2">  1        4 0.23938374E-01 0.12499700E+03</pdfrwt>
<pdfrwt beam="1">  1       -4 0.38620497E-02 0.12499700E+03</pdfrwt>
<totfact> 0.93496936E+03</totfact>
</mgrwt>
</event>
<event>
 5    1  0.3269032E-002  0.1250226E+03  0.7818608E-02  0.1235034E+00
         -4   -1    0    0    0  501 -0.00000000000E+00  0.00000000000E+00  0.56930595890E+02  0.56944759621E+02  0.12700000000E+01 0.  1.
          4   -1    0    0  501    0  0.00000000000E+00 -0.00000000000E+00 -0.68610489737E+02  0.68622242764E+02  0.12700000000E+01 0.  1.
         25    2    1    2    0    0  0.00000000000E+00  0.00000000000E+00 -0.11679893848E+02  0.12556700239E+03  0.12502260663E+03 0.  0.
    9000005    1    3    3    0    0 -0.45132167954E+02  0.72681973883E+01 -0.48650942734E+02  0.66765661132E+02  0.10000000000E+01 0.  0.
    9000005    1    3    3    0    0  0.45132167954E+02 -0.72681973883E+01  0.36971048887E+02  0.58801341254E+02  0.10000000000E+01 0.  0.
<mgrwt>
<rscale>  0 0.12502261E+03</rscale>
<asrwt>0</asrwt>
<pdfrwt beam="2">  1        4 0.10557454E-01 0.12502261E+03</pdfrwt>
<pdfrwt beam="1">  1       -4 0.87605468E-02 0.12502261E+03</pdfrwt>
<totfact> 0.10435153E+04</totfact>
</mgrwt>
</event>
<event>
 5    1  0.3269032E-002  0.1250123E+03  0.7818608E-02  0.1235050E+00
         -4   -1    0    0    0  501 -0.00000000000E+00  0.00000000000E+00  0.11526053090E+03  0.11526752744E+03  0.12700000000E+01 0.  1.
          4   -1    0    0  501    0  0.00000000000E+00 -0.00000000000E+00 -0.33877351795E+02  0.33901148427E+02  0.12700000000E+01 0.  1.
         25    2    1    2    0    0  0.00000000000E+00  0.00000000000E+00  0.81383179101E+02  0.14916867587E+03  0.12501228747E+03 0.  0.
    9000005    1    3    3    0    0  0.24448059857E+02 -0.51248628161E+02  0.95327258685E+01  0.57584740875E+02  0.10000000000E+01 0.  0.
    9000005    1    3    3    0    0 -0.24448059857E+02  0.51248628161E+02  0.71850453232E+02  0.91583934993E+02  0.10000000000E+01 0.  0.
<mgrwt>
<rscale>  0 0.12501229E+03</rscale>
<asrwt>0</asrwt>
<pdfrwt beam="2">  1        4 0.52142690E-02 0.12501229E+03</pdfrwt>
<pdfrwt beam="1">  1       -4 0.17734758E-01 0.12501229E+03</pdfrwt>
<totfact> 0.99442164E+03</totfact>
</mgrwt>
</event>
<event>
 5    1  0.3269032E-002  0.1250011E+03  0.7818608E-02  0.1235068E+00
          4   -1    0    0  501    0  0.00000000000E+00  0.00000000000E+00  0.14738248194E+03  0.14738795366E+03  0.12700000000E+01 0. -1.
         -4   -1    0    0    0  501 -0.00000000000E+00 -0.00000000000E+00 -0.26483459877E+02  0.26513893473E+02  0.12700000000E+01 0. -1.
         25    2    1    2    0    0  0.00000000000E+00  0.00000000000E+00  0.12089902207E+03  0.17390184713E+03  0.12500111559E+03 0.  0.
    9000005    1    3    3    0    0 -0.40855690360E+02 -0.46151068091E+02  0.74787078426E+02  0.96918603065E+02  0.10000000000E+01 0.  0.
    9000005    1    3    3    0    0  0.40855690360E+02  0.46151068091E+02  0.46111943640E+02  0.76983244066E+02  0.10000000000E+01 0.  0.
<mgrwt>
<rscale>  0 0.12500112E+03</rscale>
<asrwt>0</asrwt>
<pdfrwt beam="1">  1        4 0.22676990E-01 0.12500112E+03</pdfrwt>
<pdfrwt beam="2">  1       -4 0.40771403E-02 0.12500112E+03</pdfrwt>
<totfact> 0.94723979E+03</totfact>
</mgrwt>
</event>
<event>
 5    1  0.3269032E-002  0.1250034E+03  0.7818608E-02  0.1235064E+00
          4   -1    0    0  501    0  0.00000000000E+00  0.00000000000E+00  0.99670426656E+03  0.99670507568E+03  0.12700000000E+01 0. -1.
         -4   -1    0    0    0  501 -0.00000000000E+00 -0.00000000000E+00 -0.38156705661E+01  0.40214725995E+01  0.12700000000E+01 0. -1.
         25    2    1    2    0    0  0.00000000000E+00  0.00000000000E+00  0.99288859600E+03  0.10007265483E+04  0.12500344143E+03 0.  0.
    9000005    1    3    3    0    0  0.38332058021E+02  0.26701624901E+02  0.16412623989E+03  0.17064801805E+03  0.10000000000E+01 0.  0.
    9000005    1    3    3    0    0 -0.38332058021E+02 -0.26701624901E+02  0.82876235611E+03  0.83007853023E+03  0.10000000000E+01 0.  0.
<mgrwt>
<rscale>  0 0.12500344E+03</rscale>
<asrwt>0</asrwt>
<pdfrwt beam="1">  1        4 0.15335509E+00 0.12500344E+03</pdfrwt>
<pdfrwt beam="2">  1       -4 0.60291909E-03 0.12500344E+03</pdfrwt>
<totfact> 0.30578191E+03</totfact>
</mgrwt>
</event>
<event>
 5    1  0.3269032E-002  0.1250047E+03  0.7818608E-02  0.1235062E+00
          4   -1    0    0  501    0  0.00000000000E+00  0.00000000000E+00  0.18122022699E+02  0.18166469296E+02  0.12700000000E+01 0. -1.
         -4   -1    0    0    0  501 -0.00000000000E+00 -0.00000000000E+00 -0.21525847383E+03  0.21526222022E+03  0.12700000000E+01 0. -1.
         25    2    1    2    0    0  0.00000000000E+00  0.00000000000E+00 -0.19713645113E+03  0.23342868952E+03  0.12500469082E+03 0.  0.
    9000005    1    3    3    0    0  0.59731104180E+02  0.12809929203E+02 -0.73961267817E+02  0.95933144584E+02  0.10000000000E+01 0.  0.
    9000005    1    3    3    0    0 -0.59731104180E+02 -0.12809929203E+02 -0.12317518331E+03  0.13749554493E+03  0.10000000000E+01 0.  0.
<mgrwt>
<rscale>  0 0.12500469E+03</rscale>
<asrwt>0</asrwt>
<pdfrwt beam="1">  1        4 0.27917108E-02 0.12500469E+03</pdfrwt>
<pdfrwt beam="2">  1       -4 0.33120394E-01 0.12500469E+03</pdfrwt>
<totfact> 0.84777015E+03</totfact>
</mgrwt>
</event>
<event>
 4    1  0.3269032E-002  0.1250855E+03  0.7818608E-02  0.1234936E+00
         -4   -1    0    0    0  501 -0.00000000000E+00  0.00000000000E+00  0.25231228117E+02  0.25263170274E+02  0.12700000000E+01 0.  1.
          4   -1    0    0  501    0  0.00000000000E+00 -0.00000000000E+00 -0.15489733360E+03  0.15490253987E+03  0.12700000000E+01 0.  1.
    9000005    1    1    2    0    0  0.23018400351E+02  0.18694695352E+02 -0.14413367031E+03  0.14715588098E+03  0.10000000000E+01 0.  0.
    9000005    1    1    2    0    0 -0.23018400351E+02 -0.18694695352E+02  0.14467564829E+02  0.33009829159E+02  0.10000000000E+01 0.  0.
<mgrwt>
<rscale>  0 0.12508551E+03</rscale>
<asrwt>0</asrwt>
<pdfrwt beam="2">  1        4 0.23833216E-01 0.12508551E+03</pdfrwt>
<pdfrwt beam="1">  1       -4 0.38845851E-02 0.12508551E+03</pdfrwt>
<totfact> 0.93407983E+03</totfact>
</mgrwt>
</event>
<event>
 4    1  0.3269032E-002  0.1249346E+03  0.7818608E-02  0.1235171E+00
         -4   -1    0    0    0  501 -0.00000000000E+00  0.00000000000E+00  0.25608473073E+02  0.25639945264E+02  0.12700000000E+01 0. -1.
          4   -1    0    0  501    0  0.00000000000E+00 -0.00000000000E+00 -0.15225017799E+03  0.15225547477E+03  0.12700000000E+01 0. -1.
    9000005    1    1    2    0    0  0.16792541121E+02 -0.59851767262E+02 -0.71975271874E+02  0.95108691732E+02  0.10000000000E+01 0.  0.
    9000005    1    1    2    0    0 -0.16792541121E+02  0.59851767262E+02 -0.54666433044E+02  0.82786728305E+02  0.10000000000E+01 0.  0.
<mgrwt>
<rscale>  0 0.12493462E+03</rscale>
<asrwt>0</asrwt>
<pdfrwt beam="2">  1        4 0.23425932E-01 0.12493462E+03</pdfrwt>
<pdfrwt beam="1">  1       -4 0.39425935E-02 0.12493462E+03</pdfrwt>
<totfact> 0.94135171E+03</totfact>
</mgrwt>
</event>
<event>
 5    1  0.3269032E-002  0.1249998E+03  0.7818608E-02  0.1235070E+00
          4   -1    0    0  501    0  0.00000000000E+00  0.00000000000E+00  0.97852158497E+03  0.97852240912E+03  0.12700000000E+01 0.  1.
         -4   -1    0    0    0  501 -0.00000000000E+00 -0.00000000000E+00 -0.38901201608E+01  0.40921797206E+01  0.12700000000E+01 0.  1.
         25    2    1    2    0    0  0.00000000000E+00  0.00000000000E+00  0.97463146481E+03  0.98261458884E+03  0.12499975203E+03 0.  0.
    9000005    1    3    3    0    0  0.11848247354E+02 -0.51829313047E+02  0.74548194375E+03  0.74737606807E+03  0.10000000000E+01 0.  0.
    9000005    1    3    3    0    0 -0.11848247354E+02  0.51829313047E+02  0.22914952105E+03  0.23523852077E+03  0.10000000000E+01 0.  0.
<mgrwt>
<rscale>  0 0.12499975E+03</rscale>
<asrwt>0</asrwt>
<pdfrwt beam="1">  1        4 0.15055734E+00 0.12499975E+03</pdfrwt>
<pdfrwt beam="2">  1       -4 0.61408665E-03 0.12499975E+03</pdfrwt>
<totfact> 0.31185756E+03</totfact>
</mgrwt>
</event>
<event>
 5    1  0.3269032E-002  0.1250009E+03  0.7818608E-02  0.1235068E+00
         -4   -1    0    0    0  501 -0.00000000000E+00  0.00000000000E+00  0.83930096805E+02  0.83939704847E+02  0.12700000000E+01 0. -1.
          4   -1    0    0  501    0  0.00000000000E+00 -0.00000000000E+00 -0.46521466147E+02  0.46538797927E+02  0.12700000000E+01 0. -1.
         25    2    1    2    0    0  0.00000000000E+00  0.00000000000E+00  0.37408630658E+02  0.13047850277E+03  0.12500093615E+03 0.  0.
    9000005    1    3    3    0    0 -0.58251494464E+02  0.21381631071E+02  0.10970336278E+02  0.63021893280E+02  0.10000000000E+01 0.  0.
    9000005    1    3    3    0    0  0.58251494464E+02 -0.21381631071E+02  0.26438294380E+02  0.67456609493E+02  0.10000000000E+01 0.  0.
<mgrwt>
<rscale>  0 0.12500094E+03</rscale>
<asrwt>0</asrwt>
<pdfrwt beam="2">  1        4 0.71592210E-02 0.12500094E+03</pdfrwt>
<pdfrwt beam="1">  1       -4 0.12914395E-01 0.12500094E+03</pdfrwt>
<totfact> 0.10334064E+04</totfact>
</mgrwt>
</event>
<event>
 5    1  0.3269032E-002  0.1250002E+03  0.7818608E-02  0.1235069E+00
         -4   -1    0    0    0  501 -0.00000000000E+00  0.00000000000E+00  0.82929838037E+01  0.83896650928E+01  0.12700000000E+01 0. -1.
          4   -1    0    0  501    0  0.00000000000E+00 -0.00000000000E+00 -0.46820508406E+03  0.46820680648E+03  0.12700000000E+01 0. -1.
         25    2    1    2    0    0  0.00000000000E+00  0.00000000000E+00 -0.45991210025E+03  0.47659647157E+03  0.12500022704E+03 0.  0.
    9000005    1    3    3    0    0 -0.22023888060E+02  0.41278570864E+02 -0.38791186805E+03  0.39072444181E+03  0.10000000000E+01 0.  0.
    9000005    1    3    3    0    0  0.22023888060E+02 -0.41278570864E+02 -0.72000232204E+02  0.85872029761E+02  0.10000000000E+01 0.  0.
<mgrwt>
<rscale>  0 0.12500023E+03</rscale>
<asrwt>0</asrwt>
<pdfrwt beam="2">  1        4 0.72039100E-01 0.12500023E+03</pdfrwt>
<pdfrwt beam="1">  1       -4 0.12834135E-02 0.12500023E+03</pdfrwt>
<totfact> 0.57726763E+03</totfact>
</mgrwt>
</event>
<event>
 5    1  0.3269032E-002  0.1249988E+03  0.7818608E-02  0.1235071E+00
         -4   -1    0    0    0  501 -0.00000000000E+00  0.00000000000E+00  0.29832621438E+03  0.29832891762E+03  0.12700000000E+01 0.  1.
          4   -1    0    0  501    0  0.00000000000E+00 -0.00000000000E+00 -0.13060081639E+02  0.13121685578E+02  0.12700000000E+01 0.  1.
         25    2    1    2    0    0  0.00000000000E+00  0.00000000000E+00  0.28526613275E+03  0.31145060320E+03  0.12499884696E+03 0.  0.
    9000005    1    3    3    0    0  0.17555220442E+02  0.54339535387E+02  0.20587365607E+03  0.21364908878E+03  0.10000000000E+01 0.  0.
    9000005    1    3    3    0    0 -0.17555220442E+02 -0.54339535387E+02  0.79392476675E+02  0.97801514423E+02  0.10000000000E+01 0.  0.
<mgrwt>
<rscale>  0 0.12499885E+03</rscale>
<asrwt>0</asrwt>
<pdfrwt beam="2">  1        4 0.20141900E-02 0.12499885E+03</pdfrwt>
<pdfrwt beam="1">  1       -4 0.45901287E-01 0.12499885E+03</pdfrwt>
<totfact> 0.74186480E+03</totfact>
</mgrwt>
</event>
<event>
 5    1  0.3269032E-002  0.1250001E+03  0.7818608E-02  0.1235069E+00
         -4   -1    0    0    0  501 -0.00000000000E+00  0.00000000000E+00  0.42131339026E+02  0.42150476013E+02  0.12700000000E+01 0.  1.
          4   -1    0    0  501    0  0.00000000000E+00 -0.00000000000E+00 -0.92671679758E+02  0.92680381577E+02  0.12700000000E+01 0.  1.
         25    2    1    2    0    0  0.00000000000E+00  0.00000000000E+00 -0.50540340732E+02  0.13483085759E+03  0.12500013647E+03 0.  0.
    9000005    1    3    3    0    0  0.34895396117E+02  0.21456035488E+02  0.25634688497E+02  0.48334122350E+02  0.10000000000E+01 0.  0.
    9000005    1    3    3    0    0 -0.34895396117E+02 -0.21456035488E+02 -0.76175029229E+02  0.86496735239E+02  0.10000000000E+01 0.  0.
<mgrwt>
<rscale>  0 0.12500014E+03</rscale>
<asrwt>0</asrwt>
<pdfrwt beam="2">  1        4 0.14259323E-01 0.12500014E+03</pdfrwt>
<pdfrwt beam="1">  1       -4 0.64838860E-02 0.12500014E+03</pdfrwt>
<totfact> 0.10241606E+04</totfact>
</mgrwt>
</event>
<event>
 5    1  0.3269032E-002  0.1250199E+03  0.7818608E-02  0.1235038E+00
         -4   -1    0    0    0  501 -0.00000000000E+00  0.00000000000E+00  0.18092461454E+03  0.18092907187E+03  0.12700000000E+01 0. -1.
          4   -1    0    0  501    0  0.00000000000E+00 -0.00000000000E+00 -0.21573946416E+02  0.21611294823E+02  0.12700000000E+01 0. -1.
         25    2    1    2    0    0  0.00000000000E+00  0.00000000000E+00  0.15935066812E+03  0.20254036669E+03  0.12501985725E+03 0.  0.
    9000005    1    3    3    0    0  0.13344459713E+02 -0.55983595119E+02  0.40182479861E+02  0.70198783574E+02  0.10000000000E+01 0.  0.
    9000005    1    3    3    0    0 -0.13344459713E+02  0.55983595119E+02  0.11916818826E+03  0.13234158312E+03  0.10000000000E+01 0.  0.
<mgrwt>
<rscale>  0 0.12501986E+03</rscale>
<asrwt>0</asrwt>
<pdfrwt beam="2">  1        4 0.33222846E-02 0.12501986E+03</pdfrwt>
<pdfrwt beam="1">  1       -4 0.27837772E-01 0.12501986E+03</pdfrwt>
<totfact> 0.89668974E+03</totfact>
</mgrwt>
</event>
<event>
 5    1  0.3269032E-002  0.1249991E+03  0.7818608E-02  0.1235071E+00
         -4   -1    0    0    0  501 -0.00000000000E+00  0.00000000000E+00  0.76426972083E+01  0.77474977004E+01  0.12700000000E+01 0.  1.
          4   -1    0    0  501    0  0.00000000000E+00 -0.00000000000E+00 -0.50751579486E+03  0.50751738387E+03  0.12700000000E+01 0.  1.
         25    2    1    2    0    0  0.00000000000E+00  0.00000000000E+00 -0.49987309765E+03  0.51526488157E+03  0.12499913770E+03 0.  0.
    9000005    1    3    3    0    0  0.30933427034E+02 -0.24594831729E+02 -0.44948482746E+03  0.45121989403E+03  0.10000000000E+01 0.  0.
    9000005    1    3    3    0    0 -0.30933427034E+02  0.24594831729E+02 -0.50388270194E+02  0.64044987540E+02  0.10000000000E+01 0.  0.
<mgrwt>
<rscale>  0 0.12499914E+03</rscale>
<asrwt>0</asrwt>
<pdfrwt beam="2">  1        4 0.78087510E-01 0.12499914E+03</pdfrwt>
<pdfrwt beam="1">  1       -4 0.11839838E-02 0.12499914E+03</pdfrwt>
<totfact> 0.54700198E+03</totfact>
</mgrwt>
</event>
<event>
 5    1  0.3269032E-002  0.1250002E+03  0.7818608E-02  0.1235069E+00
          4   -1    0    0  501    0  0.00000000000E+00  0.00000000000E+00  0.86753319684E+01  0.87677981706E+01  0.12700000000E+01 0. -1.
         -4   -1    0    0    0  501 -0.00000000000E+00 -0.00000000000E+00 -0.44779204985E+03  0.44779385080E+03  0.12700000000E+01 0. -1.
         25    2    1    2    0    0  0.00000000000E+00  0.00000000000E+00 -0.43911671788E+03  0.45656164897E+03  0.12500018953E+03 0.  0.
    9000005    1    3    3    0    0 -0.57651725729E+01 -0.69533281565E+01  0.62964234951E+01  0.11055810060E+02  0.10000000000E+01 0.  0.
    9000005    1    3    3    0    0  0.57651725729E+01  0.69533281565E+01 -0.44541314138E+03  0.44550583891E+03  0.10000000000E+01 0.  0.
<mgrwt>
<rscale>  0 0.12500019E+03</rscale>
<asrwt>0</asrwt>
<pdfrwt beam="1">  1        4 0.13419181E-02 0.12500019E+03</pdfrwt>
<pdfrwt beam="2">  1       -4 0.68898318E-01 0.12500019E+03</pdfrwt>
<totfact> 0.59399305E+03</totfact>
</mgrwt>
</event>
<event>
 5    1  0.3269032E-002  0.1249993E+03  0.7818608E-02  0.1235070E+00
          4   -1    0    0  501    0  0.00000000000E+00  0.00000000000E+00  0.68696348115E+03  0.68696465508E+03  0.12700000000E+01 0. -1.
         -4   -1    0    0    0  501 -0.00000000000E+00 -0.00000000000E+00 -0.56140869740E+01  0.57559423687E+01  0.12700000000E+01 0. -1.
         25    2    1    2    0    0  0.00000000000E+00  0.00000000000E+00  0.68134939418E+03  0.69272059745E+03  0.12499931676E+03 0.  0.
    9000005    1    3    3    0    0 -0.35936863545E+02  0.51049307207E+02  0.32527950486E+03  0.33121782291E+03  0.10000000000E+01 0.  0.
    9000005    1    3    3    0    0  0.35936863545E+02 -0.51049307207E+02  0.35606988931E+03  0.36150277454E+03  0.10000000000E+01 0.  0.
<mgrwt>
<rscale>  0 0.12499932E+03</rscale>
<asrwt>0</asrwt>
<pdfrwt beam="1">  1        4 0.10569775E+00 0.12499932E+03</pdfrwt>
<pdfrwt beam="2">  1       -4 0.87470748E-03 0.12499932E+03</pdfrwt>
<totfact> 0.43474384E+03</totfact>
</mgrwt>
</event>
<event>
 5    1  0.3269032E-002  0.1249995E+03  0.7818608E-02  0.1235070E+00
         -4   -1    0    0    0  501 -0.00000000000E+00  0.00000000000E+00  0.75661170316E+02  0.75671828269E+02  0.12700000000E+01 0.  1.
          4   -1    0    0  501    0  0.00000000000E+00 -0.00000000000E+00 -0.51605698151E+02  0.51621322936E+02  0.12700000000E+01 0.  1.
         25    2    1    2    0    0  0.00000000000E+00  0.00000000000E+00  0.24055472165E+02  0.12729315120E+03  0.12499952241E+03 0.  0.
    9000005    1    3    3    0    0  0.37683536619E+02  0.17586685884E+02  0.59529979865E+02  0.72623405009E+02  0.10000000000E+01 0.  0.
    9000005    1    3    3    0    0 -0.37683536619E+02 -0.17586685884E+02 -0.35474507700E+02  0.54669746195E+02  0.10000000000E+01 0.  0.
<mgrwt>
<rscale>  0 0.12499952E+03</rscale>
<asrwt>0</asrwt>
<pdfrwt beam="2">  1        4 0.79413600E-02 0.12499952E+03</pdfrwt>
<pdfrwt beam="1">  1       -4 0.11642202E-01 0.12499952E+03</pdfrwt>
<totfact> 0.10402895E+04</totfact>
</mgrwt>
</event>
<event>
 5    1  0.3269032E-002  0.1249761E+03  0.7818608E-02  0.1235107E+00
          4   -1    0    0  501    0  0.00000000000E+00  0.00000000000E+00  0.30989952705E+02  0.31015964738E+02  0.12700000000E+01 0. -1.
         -4   -1    0    0    0  501 -0.00000000000E+00 -0.00000000000E+00 -0.12591861920E+03  0.12592502357E+03  0.12700000000E+01 0. -1.
         25    2    1    2    0    0  0.00000000000E+00  0.00000000000E+00 -0.94928666495E+02  0.15694098831E+03  0.12497608607E+03 0.  0.
    9000005    1    3    3    0    0 -0.88683270256E+01  0.31263258246E+01 -0.12503111392E+03  0.12538819955E+03  0.10000000000E+01 0.  0.
    9000005    1    3    3    0    0  0.88683270256E+01 -0.31263258246E+01  0.30102447427E+02  0.31552788760E+02  0.10000000000E+01 0.  0.
<mgrwt>
<rscale>  0 0.12497609E+03</rscale>
<asrwt>0</asrwt>
<pdfrwt beam="1">  1        4 0.47701787E-02 0.12497609E+03</pdfrwt>
<pdfrwt beam="2">  1       -4 0.19374588E-01 0.12497609E+03</pdfrwt>
<totfact> 0.97988480E+03</totfact>
</mgrwt>
</event>
<event>
 5    1  0.3269032E-002  0.1249997E+03  0.7818608E-02  0.1235070E+00
          4   -1    0    0  501    0  0.00000000000E+00  0.00000000000E+00  0.94078597621E+01  0.94931936303E+01  0.12700000000E+01 0.  1.
         -4   -1    0    0    0  501 -0.00000000000E+00 -0.00000000000E+00 -0.41324866079E+03  0.41325061227E+03  0.12700000000E+01 0.  1.
         25    2    1    2    0    0  0.00000000000E+00  0.00000000000E+00 -0.40384080103E+03  0.42274380590E+03  0.12499973142E+03 0.  0.
    9000005    1    3    3    0    0  0.58176138940E+02 -0.13121159322E+02 -0.13877595780E+03  0.15105096632E+03  0.10000000000E+01 0.  0.
    9000005    1    3    3    0    0 -0.58176138940E+02  0.13121159322E+02 -0.26506484323E+03  0.27169283958E+03  0.10000000000E+01 0.  0.
<mgrwt>
<rscale>  0 0.12499973E+03</rscale>
<asrwt>0</asrwt>
<pdfrwt beam="1">  1        4 0.14540776E-02 0.12499973E+03</pdfrwt>
<pdfrwt beam="2">  1       -4 0.63583417E-01 0.12499973E+03</pdfrwt>
<totfact> 0.62399649E+03</totfact>
</mgrwt>
</event>
<event>
 5    1  0.3269032E-002  0.1250083E+03  0.7818608E-02  0.1235056E+00
          4   -1    0    0  501    0  0.00000000000E+00  0.00000000000E+00  0.73124571417E+01  0.74219222206E+01  0.12700000000E+01 0.  1.
         -4   -1    0    0    0  501 -0.00000000000E+00 -0.00000000000E+00 -0.53018235578E+03  0.53018387686E+03  0.12700000000E+01 0.  1.
         25    2    1    2    0    0  0.00000000000E+00  0.00000000000E+00 -0.52286989864E+03  0.53760579908E+03  0.12500825693E+03 0.  0.
    9000005    1    3    3    0    0 -0.46190871879E+02  0.37983436925E+02 -0.33949080102E+03  0.34471922212E+03  0.10000000000E+01 0.  0.
    9000005    1    3    3    0    0  0.46190871879E+02 -0.37983436925E+02 -0.18337909762E+03  0.19288657696E+03  0.10000000000E+01 0.  0.
<mgrwt>
<rscale>  0 0.12500826E+03</rscale>
<asrwt>0</asrwt>
<pdfrwt beam="1">  1        4 0.11335312E-02 0.12500826E+03</pdfrwt>
<pdfrwt beam="2">  1       -4 0.81575024E-01 0.12500826E+03</pdfrwt>
<totfact> 0.53050671E+03</totfact>
</mgrwt>
</event>
<event>
 5    1  0.3269032E-002  0.1249984E+03  0.7818608E-02  0.1235072E+00
         -4   -1    0    0    0  501 -0.00000000000E+00  0.00000000000E+00  0.19748149094E+03  0.19748557458E+03  0.12700000000E+01 0.  1.
          4   -1    0    0  501    0  0.00000000000E+00 -0.00000000000E+00 -0.19755138709E+02  0.19795918908E+02  0.12700000000E+01 0.  1.
         25    2    1    2    0    0  0.00000000000E+00  0.00000000000E+00  0.17772635224E+03  0.21728149348E+03  0.12499836452E+03 0.  0.
    9000005    1    3    3    0    0  0.77362133902E+00  0.49559786213E+02  0.22708705362E+02  0.54529406734E+02  0.10000000000E+01 0.  0.
    9000005    1    3    3    0    0 -0.77362133902E+00 -0.49559786213E+02  0.15501764687E+03  0.16275208675E+03  0.10000000000E+01 0.  0.
<mgrwt>
<rscale>  0 0.12499836E+03</rscale>
<asrwt>0</asrwt>
<pdfrwt beam="2">  1        4 0.30427032E-02 0.12499836E+03</pdfrwt>
<pdfrwt beam="1">  1       -4 0.30385219E-01 0.12499836E+03</pdfrwt>
<totfact> 0.87303543E+03</totfact>
</mgrwt>
</event>
<event>
 5    1  0.3269032E-002  0.1250005E+03  0.7818608E-02  0.1235068E+00
          4   -1    0    0  501    0  0.00000000000E+00  0.00000000000E+00  0.17643967518E+02  0.17689615308E+02  0.12700000000E+01 0. -1.
         -4   -1    0    0    0  501 -0.00000000000E+00 -0.00000000000E+00 -0.22106134303E+03  0.22106499108E+03  0.12700000000E+01 0. -1.
         25    2    1    2    0    0  0.00000000000E+00  0.00000000000E+00 -0.20341737551E+03  0.23875460639E+03  0.12500053365E+03 0.  0.
    9000005    1    3    3    0    0 -0.33511739565E+02  0.29631515251E+02 -0.18360060818E+02  0.48364813842E+02  0.10000000000E+01 0.  0.
    9000005    1    3    3    0    0  0.33511739565E+02 -0.29631515251E+02 -0.18505731469E+03  0.19038979254E+03  0.10000000000E+01 0.  0.
<mgrwt>
<rscale>  0 0.12500053E+03</rscale>
<asrwt>0</asrwt>
<pdfrwt beam="1">  1        4 0.27182487E-02 0.12500053E+03</pdfrwt>
<pdfrwt beam="2">  1       -4 0.34013228E-01 0.12500053E+03</pdfrwt>
<totfact> 0.83982198E+03</totfact>
</mgrwt>
</event>
<event>
 5    1  0.3269032E-002  0.1249965E+03  0.7818608E-02  0.1235075E+00
          4   -1    0    0  501    0  0.00000000000E+00  0.00000000000E+00  0.16998976399E+03  0.16999450803E+03  0.12700000000E+01 0.  1.
         -4   -1    0    0    0  501 -0.00000000000E+00 -0.00000000000E+00 -0.22955422388E+02  0.22990526680E+02  0.12700000000E+01 0.  1.
         25    2    1    2    0    0  0.00000000000E+00  0.00000000000E+00  0.14703434160E+03  0.19298503471E+03  0.12499650400E+03 0.  0.
    9000005    1    3    3    0    0  0.11634164693E+02 -0.42544758797E+02  0.51713707010E+01  0.44420190951E+02  0.10000000000E+01 0.  0.
    9000005    1    3    3    0    0 -0.11634164693E+02  0.42544758797E+02  0.14186297090E+03  0.14856484376E+03  0.10000000000E+01 0.  0.
<mgrwt>
<rscale>  0 0.12499650E+03</rscale>
<asrwt>0</asrwt>
<pdfrwt beam="1">  1        4 0.26155336E-01 0.12499650E+03</pdfrwt>
<pdfrwt beam="2">  1       -4 0.35346688E-02 0.12499650E+03</pdfrwt>
<totfact> 0.91337658E+03</totfact>
</mgrwt>
</event>
<event>
 5    1  0.3269032E-002  0.1250021E+03  0.7818608E-02  0.1235066E+00
         -4   -1    0    0    0  501 -0.00000000000E+00  0.00000000000E+00  0.44010565321E+03  0.44010748561E+03  0.12700000000E+01 0.  1.
          4   -1    0    0  501    0  0.00000000000E+00 -0.00000000000E+00 -0.88287189656E+01  0.89195952023E+01  0.12700000000E+01 0.  1.
         25    2    1    2    0    0  0.00000000000E+00  0.00000000000E+00  0.43127693424E+03  0.44902708081E+03  0.12500210114E+03 0.  0.
    9000005    1    3    3    0    0  0.30159738957E+02 -0.54598353018E+02  0.20182322094E+03  0.21124441417E+03  0.10000000000E+01 0.  0.
    9000005    1    3    3    0    0 -0.30159738957E+02  0.54598353018E+02  0.22945371330E+03  0.23778266664E+03  0.10000000000E+01 0.  0.
<mgrwt>
<rscale>  0 0.12500210E+03</rscale>
<asrwt>0</asrwt>
<pdfrwt beam="2">  1        4 0.13653955E-02 0.12500210E+03</pdfrwt>
<pdfrwt beam="1">  1       -4 0.67715714E-01 0.12500210E+03</pdfrwt>
<totfact> 0.60045379E+03</totfact>
</mgrwt>
</event>
<event>
 5    1  0.3269032E-002  0.1249981E+03  0.7818608E-02  0.1235072E+00
          4   -1    0    0  501    0  0.00000000000E+00  0.00000000000E+00  0.71810558239E+02  0.71821787604E+02  0.12700000000E+01 0. -1.
         -4   -1    0    0    0  501 -0.00000000000E+00 -0.00000000000E+00 -0.54372065390E+02  0.54386895433E+02  0.12700000000E+01 0. -1.
         25    2    1    2    0    0  0.00000000000E+00  0.00000000000E+00  0.17438492849E+02  0.12620868304E+03  0.12499812255E+03 0.  0.
    9000005    1    3    3    0    0  0.16536297679E+02  0.99332195955E+01  0.68734060525E+02  0.71396702086E+02  0.10000000000E+01 0.  0.
    9000005    1    3    3    0    0 -0.16536297679E+02 -0.99332195955E+01 -0.51295567676E+02  0.54811980950E+02  0.10000000000E+01 0.  0.
<mgrwt>
<rscale>  0 0.12499812E+03</rscale>
<asrwt>0</asrwt>
<pdfrwt beam="1">  1        4 0.11049783E-01 0.12499812E+03</pdfrwt>
<pdfrwt beam="2">  1       -4 0.83669377E-02 0.12499812E+03</pdfrwt>
<totfact> 0.10426831E+04</totfact>
</mgrwt>
</event>
<event>
 5    1  0.3269032E-002  0.1250025E+03  0.7818608E-02  0.1235065E+00
         -4   -1    0    0    0  501 -0.00000000000E+00  0.00000000000E+00  0.21509281607E+03  0.21509656535E+03  0.12700000000E+01 0. -1.
          4   -1    0    0  501    0  0.00000000000E+00 -0.00000000000E+00 -0.18135370331E+02  0.18179784296E+02  0.12700000000E+01 0. -1.
         25    2    1    2    0    0  0.00000000000E+00  0.00000000000E+00  0.19695744574E+03  0.23327634964E+03  0.12500247946E+03 0.  0.
    9000005    1    3    3    0    0  0.36893731371E+02  0.49246957021E+02  0.78121617057E+02  0.99450476328E+02  0.10000000000E+01 0.  0.
    9000005    1    3    3    0    0 -0.36893731371E+02 -0.49246957021E+02  0.11883582868E+03  0.13382587332E+03  0.10000000000E+01 0.  0.
<mgrwt>
<rscale>  0 0.12500248E+03</rscale>
<asrwt>0</asrwt>
<pdfrwt beam="2">  1        4 0.27937621E-02 0.12500248E+03</pdfrwt>
<pdfrwt beam="1">  1       -4 0.33094904E-01 0.12500248E+03</pdfrwt>
<totfact> 0.84804348E+03</totfact>
</mgrwt>
</event>
<event>
 5    1  0.3269032E-002  0.1250009E+03  0.7818608E-02  0.1235068E+00
         -4   -1    0    0    0  501 -0.00000000000E+00  0.00000000000E+00  0.13841080348E+03  0.13841662986E+03  0.12700000000E+01 0. -1.
          4   -1    0    0  501    0  0.00000000000E+00 -0.00000000000E+00 -0.28201835666E+02  0.28230416840E+02  0.12700000000E+01 0. -1.
         25    2    1    2    0    0  0.00000000000E+00  0.00000000000E+00  0.11020896782E+03  0.16664704670E+03  0.12500088634E+03 0.  0.
    9000005    1    3    3    0    0 -0.49592495123E+02 -0.33405171779E+02  0.79322088412E+02  0.99339391905E+02  0.10000000000E+01 0.  0.
    9000005    1    3    3    0    0  0.49592495123E+02  0.33405171779E+02  0.30886879406E+02  0.67307654791E+02  0.10000000000E+01 0.  0.
<mgrwt>
<rscale>  0 0.12500089E+03</rscale>
<asrwt>0</asrwt>
<pdfrwt beam="2">  1        4 0.43413906E-02 0.12500089E+03</pdfrwt>
<pdfrwt beam="1">  1       -4 0.21296617E-01 0.12500089E+03</pdfrwt>
<totfact> 0.96074461E+03</totfact>
</mgrwt>
</event>
<event>
 5    1  0.3269032E-002  0.1249972E+03  0.7818608E-02  0.1235074E+00
          4   -1    0    0  501    0  0.00000000000E+00  0.00000000000E+00  0.95722664809E+02  0.95731089297E+02  0.12700000000E+01 0. -1.
         -4   -1    0    0    0  501 -0.00000000000E+00 -0.00000000000E+00 -0.40786047372E+02  0.40805815274E+02  0.12700000000E+01 0. -1.
         25    2    1    2    0    0  0.00000000000E+00  0.00000000000E+00  0.54936617437E+02  0.13653690457E+03  0.12499717747E+03 0.  0.
    9000005    1    3    3    0    0  0.19016163531E+01 -0.62069177258E+02  0.19831853224E+02  0.65195868830E+02  0.10000000000E+01 0.  0.
    9000005    1    3    3    0    0 -0.19016163531E+01  0.62069177258E+02  0.35104764213E+02  0.71341035742E+02  0.10000000000E+01 0.  0.
<mgrwt>
<rscale>  0 0.12499718E+03</rscale>
<asrwt>0</asrwt>
<pdfrwt beam="1">  1        4 0.14728732E-01 0.12499718E+03</pdfrwt>
<pdfrwt beam="2">  1       -4 0.62769453E-02 0.12499718E+03</pdfrwt>
<totfact> 0.10206427E+04</totfact>
</mgrwt>
</event>
<event>
 5    1  0.3269032E-002  0.1249962E+03  0.7818608E-02  0.1235075E+00
          4   -1    0    0  501    0  0.00000000000E+00  0.00000000000E+00  0.26022471728E+03  0.26022781632E+03  0.12700000000E+01 0. -1.
         -4   -1    0    0    0  501 -0.00000000000E+00 -0.00000000000E+00 -0.14980096488E+02  0.15033834866E+02  0.12700000000E+01 0. -1.
         25    2    1    2    0    0  0.00000000000E+00  0.00000000000E+00  0.24524462080E+03  0.27526165118E+03  0.12499621027E+03 0.  0.
    9000005    1    3    3    0    0  0.50271104655E+02 -0.29719739911E+02  0.17159580548E+03  0.18126380599E+03  0.10000000000E+01 0.  0.
    9000005    1    3    3    0    0 -0.50271104655E+02  0.29719739911E+02  0.73648815315E+02  0.93997845193E+02  0.10000000000E+01 0.  0.
<mgrwt>
<rscale>  0 0.12499621E+03</rscale>
<asrwt>0</asrwt>
<pdfrwt beam="1">  1        4 0.40038944E-01 0.12499621E+03</pdfrwt>
<pdfrwt beam="2">  1       -4 0.23090023E-02 0.12499621E+03</pdfrwt>
<totfact> 0.78817240E+03</totfact>
</mgrwt>
</event>
<event>
 5    1  0.3269032E-002  0.1250006E+03  0.7818608E-02  0.1235068E+00
         -4   -1    0    0    0  501 -0.00000000000E+00  0.00000000000E+00  0.56391629524E+02  0.56405928593E+02  0.12700000000E+01 0. -1.
          4   -1    0    0  501    0  0.00000000000E+00 -0.00000000000E+00 -0.69241801968E+02  0.69253447855E+02  0.12700000000E+01 0. -1.
         25    2    1    2    0    0  0.00000000000E+00  0.00000000000E+00 -0.12850172443E+02  0.12565937645E+03  0.12500060783E+03 0.  0.
    9000005    1    3    3    0    0  0.49176104317E+02 -0.20203364127E+02 -0.39443624253E+02  0.66206228197E+02  0.10000000000E+01 0.  0.
    9000005    1    3    3    0    0 -0.49176104317E+02  0.20203364127E+02  0.26593451809E+02  0.59453148251E+02  0.10000000000E+01 0.  0.
<mgrwt>
<rscale>  0 0.12500061E+03</rscale>
<asrwt>0</asrwt>
<pdfrwt beam="2">  1        4 0.10654581E-01 0.12500061E+03</pdfrwt>
<pdfrwt beam="1">  1       -4 0.86776311E-02 0.12500061E+03</pdfrwt>
<totfact> 0.10438295E+04</totfact>
</mgrwt>
</event>
<event>
 5    1  0.3269032E-002  0.1249879E+03  0.7818608E-02  0.1235088E+00
          4   -1    0    0  501    0  0.00000000000E+00  0.00000000000E+00  0.40444594054E+03  0.40444793450E+03  0.12700000000E+01 0.  1.
         -4   -1    0    0    0  501 -0.00000000000E+00 -0.00000000000E+00 -0.96126165697E+01  0.96961485816E+01  0.12700000000E+01 0.  1.
         25    2    1    2    0    0  0.00000000000E+00  0.00000000000E+00  0.39483332397E+03  0.41414408308E+03  0.12498787074E+03 0.  0.
    9000005    1    3    3    0    0 -0.42938110722E+02 -0.24281728458E+01  0.34762030924E+03  0.35027197543E+03  0.10000000000E+01 0.  0.
    9000005    1    3    3    0    0  0.42938110722E+02  0.24281728458E+01  0.47213014737E+02  0.63872107655E+02  0.10000000000E+01 0.  0.
<mgrwt>
<rscale>  0 0.12498787E+03</rscale>
<asrwt>0</asrwt>
<pdfrwt beam="1">  1        4 0.62229041E-01 0.12498787E+03</pdfrwt>
<pdfrwt beam="2">  1       -4 0.14854428E-02 0.12498787E+03</pdfrwt>
<totfact> 0.63216922E+03</totfact>
</mgrwt>
</event>
<event>
 5    1  0.3269032E-002  0.1250014E+03  0.7818608E-02  0.1235067E+00
         -4   -1    0    0    0  501 -0.00000000000E+00  0.00000000000E+00  0.10896417912E+03  0.10897157992E+03  0.12700000000E+01 0.  1.
          4   -1    0    0  501    0  0.00000000000E+00 -0.00000000000E+00 -0.35829861855E+02  0.35852362552E+02  0.12700000000E+01 0.  1.
         25    2    1    2    0    0  0.00000000000E+00  0.00000000000E+00  0.73134317260E+02  0.14482394247E+03  0.12500138380E+03 0.  0.
    9000005    1    3    3    0    0 -0.94175003717E+00  0.60707130903E+02  0.53716231313E+02  0.81072042913E+02  0.10000000000E+01 0.  0.
    9000005    1    3    3    0    0  0.94175003717E+00 -0.60707130903E+02  0.19418085946E+02  0.63751899559E+02  0.10000000000E+01 0.  0.
<mgrwt>
<rscale>  0 0.12500138E+03</rscale>
<asrwt>0</asrwt>
<pdfrwt beam="2">  1        4 0.55145867E-02 0.12500138E+03</pdfrwt>
<pdfrwt beam="1">  1       -4 0.16766020E-01 0.12500138E+03</pdfrwt>
<totfact> 0.10034254E+04</totfact>
</mgrwt>
</event>
<event>
 5    1  0.3269032E-002  0.1249992E+03  0.7818608E-02  0.1235071E+00
          4   -1    0    0  501    0  0.00000000000E+00  0.00000000000E+00  0.10067543136E+03  0.10068344143E+03  0.12700000000E+01 0.  1.
         -4   -1    0    0    0  501 -0.00000000000E+00 -0.00000000000E+00 -0.38779953799E+02  0.38800743764E+02  0.12700000000E+01 0.  1.
         25    2    1    2    0    0  0.00000000000E+00  0.00000000000E+00  0.61895477558E+02  0.13948418520E+03  0.12499915111E+03 0.  0.
    9000005    1    3    3    0    0 -0.23987553864E+02  0.55601074080E+02  0.48174093330E+02  0.77386209672E+02  0.10000000000E+01 0.  0.
    9000005    1    3    3    0    0  0.23987553864E+02 -0.55601074080E+02  0.13721384228E+02  0.62097975525E+02  0.10000000000E+01 0.  0.
<mgrwt>
<rscale>  0 0.12499915E+03</rscale>
<asrwt>0</asrwt>
<pdfrwt beam="1">  1        4 0.15490743E-01 0.12499915E+03</pdfrwt>
<pdfrwt beam="2">  1       -4 0.59683622E-02 0.12499915E+03</pdfrwt>
<totfact> 0.10144481E+04</totfact>
</mgrwt>
</event>
<event>
 5    1  0.3269032E-002  0.1250013E+03  0.7818608E-02  0.1235067E+00
          4   -1    0    0  501    0  0.00000000000E+00  0.00000000000E+00  0.24387631697E+03  0.24387962374E+03  0.12700000000E+01 0.  1.
         -4   -1    0    0    0  501 -0.00000000000E+00 -0.00000000000E+00 -0.15989079282E+02  0.16039437530E+02  0.12700000000E+01 0.  1.
         25    2    1    2    0    0  0.00000000000E+00  0.00000000000E+00  0.22788723768E+03  0.25991906127E+03  0.12500130125E+03 0.  0.
    9000005    1    3    3    0    0  0.46439212014E+01  0.51160808370E+02  0.39949322263E+02  0.65084119925E+02  0.10000000000E+01 0.  0.
    9000005    1    3    3    0    0 -0.46439212014E+01 -0.51160808370E+02  0.18793791542E+03  0.19483494135E+03  0.10000000000E+01 0.  0.
<mgrwt>
<rscale>  0 0.12500130E+03</rscale>
<asrwt>0</asrwt>
<pdfrwt beam="1">  1        4 0.37523562E-01 0.12500130E+03</pdfrwt>
<pdfrwt beam="2">  1       -4 0.24639864E-02 0.12500130E+03</pdfrwt>
<totfact> 0.80915075E+03</totfact>
</mgrwt>
</event>
<event>
 5    1  0.3269032E-002  0.1250136E+03  0.7818608E-02  0.1235048E+00
         -4   -1    0    0    0  501 -0.00000000000E+00  0.00000000000E+00  0.12137946846E+02  0.12204206391E+02  0.12700000000E+01 0. -1.
          4   -1    0    0  501    0  0.00000000000E+00 -0.00000000000E+00 -0.32094739231E+03  0.32094990502E+03  0.12700000000E+01 0. -1.
         25    2    1    2    0    0  0.00000000000E+00  0.00000000000E+00 -0.30880944546E+03  0.33315411141E+03  0.12501355263E+03 0.  0.
    9000005    1    3    3    0    0 -0.23722635744E+02  0.54101198833E+02 -0.10002458896E+03  0.11617065704E+03  0.10000000000E+01 0.  0.
    9000005    1    3    3    0    0  0.23722635744E+02 -0.54101198833E+02 -0.20878485651E+03  0.21698345436E+03  0.10000000000E+01 0.  0.
<mgrwt>
<rscale>  0 0.12501355E+03</rscale>
<asrwt>0</asrwt>
<pdfrwt beam="2">  1        4 0.49381806E-01 0.12501355E+03</pdfrwt>
<pdfrwt beam="1">  1       -4 0.18726669E-02 0.12501355E+03</pdfrwt>
<totfact> 0.71596963E+03</totfact>
</mgrwt>
</event>
<event>
 5    1  0.3269032E-002  0.1249996E+03  0.7818608E-02  0.1235070E+00
         -4   -1    0    0    0  501 -0.00000000000E+00  0.00000000000E+00  0.71861392372E+03  0.71861504595E+03  0.12700000000E+01 0.  1.
          4   -1    0    0  501    0  0.00000000000E+00 -0.00000000000E+00 -0.53604558250E+01  0.55088462178E+01  0.12700000000E+01 0.  1.
         25    2    1    2    0    0  0.00000000000E+00  0.00000000000E+00  0.71325346789E+03  0.72412389217E+03  0.12499960697E+03 0.  0.
    9000005    1    3    3    0    0  0.14708312463E+02  0.54750764109E+02  0.20431962615E+03  0.21204124659E+03  0.10000000000E+01 0.  0.
    9000005    1    3    3    0    0 -0.14708312463E+02 -0.54750764109E+02  0.50893384175E+03  0.51208264558E+03  0.10000000000E+01 0.  0.
<mgrwt>
<rscale>  0 0.12499961E+03</rscale>
<asrwt>0</asrwt>
<pdfrwt beam="2">  1        4 0.83618626E-03 0.12499961E+03</pdfrwt>
<pdfrwt beam="1">  1       -4 0.11056752E+00 0.12499961E+03</pdfrwt>
<totfact> 0.41843749E+03</totfact>
</mgrwt>
</event>
<event>
 5    1  0.3269032E-002  0.1250118E+03  0.7818608E-02  0.1235051E+00
          4   -1    0    0  501    0  0.00000000000E+00  0.00000000000E+00  0.17282245194E+02  0.17328845863E+02  0.12700000000E+01 0.  1.
         -4   -1    0    0    0  501 -0.00000000000E+00 -0.00000000000E+00 -0.22571660750E+03  0.22572018032E+03  0.12700000000E+01 0.  1.
         25    2    1    2    0    0  0.00000000000E+00  0.00000000000E+00 -0.20843436231E+03  0.24304902618E+03  0.12501178239E+03 0.  0.
    9000005    1    3    3    0    0 -0.14966501719E+02 -0.58838856257E+02 -0.13305310043E+03  0.14625366564E+03  0.10000000000E+01 0.  0.
    9000005    1    3    3    0    0  0.14966501719E+02  0.58838856257E+02 -0.75381261880E+02  0.96795360539E+02  0.10000000000E+01 0.  0.
<mgrwt>
<rscale>  0 0.12501178E+03</rscale>
<asrwt>0</asrwt>
<pdfrwt beam="1">  1        4 0.26626666E-02 0.12501178E+03</pdfrwt>
<pdfrwt beam="2">  1       -4 0.34729489E-01 0.12501178E+03</pdfrwt>
<totfact> 0.83323472E+03</totfact>
</mgrwt>
</event>
<event>
 5    1  0.3269032E-002  0.1250108E+03  0.7818608E-02  0.1235052E+00
         -4   -1    0    0    0  501 -0.00000000000E+00  0.00000000000E+00  0.11420525324E+04  0.11420532385E+04  0.12700000000E+01 0. -1.
          4   -1    0    0  501    0  0.00000000000E+00 -0.00000000000E+00 -0.33023649283E+01  0.35381512291E+01  0.12700000000E+01 0. -1.
         25    2    1    2    0    0  0.00000000000E+00  0.00000000000E+00  0.11387501675E+04  0.11455913898E+04  0.12501075313E+03 0.  0.
    9000005    1    3    3    0    0  0.45691272914E+02  0.41705027627E+02  0.48796524972E+03  0.49187202267E+03  0.10000000000E+01 0.  0.
    9000005    1    3    3    0    0 -0.45691272914E+02 -0.41705027627E+02  0.65078491775E+03  0.65371936710E+03  0.10000000000E+01 0.  0.
<mgrwt>
<rscale>  0 0.12501075E+03</rscale>
<asrwt>0</asrwt>
<pdfrwt beam="2">  1        4 0.52624720E-03 0.12501075E+03</pdfrwt>
<pdfrwt beam="1">  1       -4 0.17571880E+00 0.12501075E+03</pdfrwt>
<totfact> 0.26176691E+03</totfact>
</mgrwt>
</event>
<event>
 5    1  0.3269032E-002  0.1250113E+03  0.7818608E-02  0.1235052E+00
         -4   -1    0    0    0  501 -0.00000000000E+00  0.00000000000E+00  0.47750140023E+03  0.47750308912E+03  0.12700000000E+01 0. -1.
          4   -1    0    0  501    0  0.00000000000E+00 -0.00000000000E+00 -0.81310938431E+01  0.82296772164E+01  0.12700000000E+01 0. -1.
         25    2    1    2    0    0  0.00000000000E+00  0.00000000000E+00  0.46937030639E+03  0.48573276634E+03  0.12501134260E+03 0.  0.
    9000005    1    3    3    0    0  0.32838682703E+02  0.29867065824E+02  0.40562718422E+03  0.40805003771E+03  0.10000000000E+01 0.  0.
    9000005    1    3    3    0    0 -0.32838682703E+02 -0.29867065824E+02  0.63743122168E+02  0.77682728623E+02  0.10000000000E+01 0.  0.
<mgrwt>
<rscale>  0 0.12501134E+03</rscale>
<asrwt>0</asrwt>
<pdfrwt beam="2">  1        4 0.12586504E-02 0.12501134E+03</pdfrwt>
<pdfrwt beam="1">  1       -4 0.73469489E-01 0.12501134E+03</pdfrwt>
<totfact> 0.56974342E+03</totfact>
</mgrwt>
</event>
<event>
 5    1  0.3269032E-002  0.1249966E+03  0.7818608E-02  0.1235075E+00
         -4   -1    0    0    0  501 -0.00000000000E+00  0.00000000000E+00  0.26448523752E+03  0.26448828663E+03  0.12700000000E+01 0. -1.
          4   -1    0    0  501    0  0.00000000000E+00 -0.00000000000E+00 -0.14737998812E+02  0.14792616705E+02  0.12700000000E+01 0. -1.
         25    2    1    2    0    0  0.00000000000E+00  0.00000000000E+00  0.24974723871E+03  0.27928090334E+03  0.12499655886E+03 0.  0.
    9000005    1    3    3    0    0 -0.11055634567E+02 -0.95889978142E+01 -0.10866088596E+02  0.18255076448E+02  0.10000000000E+01 0.  0.
    9000005    1    3    3    0    0  0.11055634567E+02  0.95889978142E+01  0.26061332730E+03  0.26102582689E+03  0.10000000000E+01 0.  0.
<mgrwt>
<rscale>  0 0.12499656E+03</rscale>
<asrwt>0</asrwt>
<pdfrwt beam="2">  1        4 0.22718204E-02 0.12499656E+03</pdfrwt>
<pdfrwt beam="1">  1       -4 0.40694472E-01 0.12499656E+03</pdfrwt>
<totfact> 0.78279536E+03</totfact>
</mgrwt>
</event>
<event>
 5    1  0.3269032E-002  0.1249990E+03  0.7818608E-02  0.1235071E+00
          4   -1    0    0  501    0  0.00000000000E+00  0.00000000000E+00  0.90781451900E+02  0.90790334888E+02  0.12700000000E+01 0. -1.
         -4   -1    0    0    0  501 -0.00000000000E+00 -0.00000000000E+00 -0.43008105529E+02  0.43026852559E+02  0.12700000000E+01 0. -1.
         25    2    1    2    0    0  0.00000000000E+00  0.00000000000E+00  0.47773346372E+02  0.13381718745E+03  0.12499898813E+03 0.  0.
    9000005    1    3    3    0    0 -0.38441771072E+02 -0.11194661209E+02  0.75251658446E+02  0.85246127781E+02  0.10000000000E+01 0.  0.
    9000005    1    3    3    0    0  0.38441771072E+02  0.11194661209E+02 -0.27478312074E+02  0.48571059667E+02  0.10000000000E+01 0.  0.
<mgrwt>
<rscale>  0 0.12499899E+03</rscale>
<asrwt>0</asrwt>
<pdfrwt beam="1">  1        4 0.13968502E-01 0.12499899E+03</pdfrwt>
<pdfrwt beam="2">  1       -4 0.66187571E-02 0.12499899E+03</pdfrwt>
<totfact> 0.10263296E+04</totfact>
</mgrwt>
</event>
<event>
 5    1  0.3269032E-002  0.1250521E+03  0.7818608E-02  0.1234988E+00
          4   -1    0    0  501    0  0.00000000000E+00  0.00000000000E+00  0.27767276507E+03  0.27767566937E+03  0.12700000000E+01 0.  1.
         -4   -1    0    0    0  501 -0.00000000000E+00 -0.00000000000E+00 -0.14047923214E+02  0.14105213456E+02  0.12700000000E+01 0.  1.
         25    2    1    2    0    0  0.00000000000E+00  0.00000000000E+00  0.26362484185E+03  0.29178088283E+03  0.12505209451E+03 0.  0.
    9000005    1    3    3    0    0  0.61478437982E+02  0.11111066504E+02  0.13726072947E+03  0.15081300338E+03  0.10000000000E+01 0.  0.
    9000005    1    3    3    0    0 -0.61478437982E+02 -0.11111066504E+02  0.12636411239E+03  0.14096787944E+03  0.10000000000E+01 0.  0.
<mgrwt>
<rscale>  0 0.12505209E+03</rscale>
<asrwt>0</asrwt>
<pdfrwt beam="1">  1        4 0.42723511E-01 0.12505209E+03</pdfrwt>
<pdfrwt beam="2">  1       -4 0.21658496E-02 0.12505209E+03</pdfrwt>
<totfact> 0.76552924E+03</totfact>
</mgrwt>
</event>
<event>
 5    1  0.3269032E-002  0.1249951E+03  0.7818608E-02  0.1235077E+00
         -4   -1    0    0    0  501 -0.00000000000E+00  0.00000000000E+00  0.11019674934E+03  0.11020406737E+03  0.12700000000E+01 0.  1.
          4   -1    0    0  501    0  0.00000000000E+00 -0.00000000000E+00 -0.35425326651E+02  0.35448084127E+02  0.12700000000E+01 0.  1.
         25    2    1    2    0    0  0.00000000000E+00  0.00000000000E+00  0.74771422689E+02  0.14565215150E+03  0.12499513425E+03 0.  0.
    9000005    1    3    3    0    0  0.37459537957E+02  0.49534705049E+02  0.29309011921E+02  0.68679852708E+02  0.10000000000E+01 0.  0.
    9000005    1    3    3    0    0 -0.37459537957E+02 -0.49534705049E+02  0.45462410768E+02  0.76972298790E+02  0.10000000000E+01 0.  0.
<mgrwt>
<rscale>  0 0.12499513E+03</rscale>
<asrwt>0</asrwt>
<pdfrwt beam="2">  1        4 0.54523638E-02 0.12499513E+03</pdfrwt>
<pdfrwt beam="1">  1       -4 0.16955659E-01 0.12499513E+03</pdfrwt>
<totfact> 0.10018853E+04</totfact>
</mgrwt>
</event>
<event>
 5    1  0.3269032E-002  0.1250041E+03  0.7818608E-02  0.1235063E+00
          4   -1    0    0  501    0  0.00000000000E+00  0.00000000000E+00  0.59735446025E+02  0.59748944859E+02  0.12700000000E+01 0. -1.
         -4   -1    0    0    0  501 -0.00000000000E+00 -0.00000000000E+00 -0.65369682302E+02  0.65382017897E+02  0.12700000000E+01 0. -1.
         25    2    1    2    0    0  0.00000000000E+00  0.00000000000E+00 -0.56342362771E+01  0.12513096276E+03  0.12500405282E+03 0.  0.
    9000005    1    3    3    0    0  0.10395212057E+02 -0.49296839116E+02  0.34196962364E+02  0.60898858901E+02  0.10000000000E+01 0.  0.
    9000005    1    3    3    0    0 -0.10395212057E+02  0.49296839116E+02 -0.39831198641E+02  0.64232103855E+02  0.10000000000E+01 0.  0.
<mgrwt>
<rscale>  0 0.12500405E+03</rscale>
<asrwt>0</asrwt>
<pdfrwt beam="1">  1        4 0.91920559E-02 0.12500405E+03</pdfrwt>
<pdfrwt beam="2">  1       -4 0.10058861E-01 0.12500405E+03</pdfrwt>
<totfact> 0.10449062E+04</totfact>
</mgrwt>
</event>
<event>
 5    1  0.3269032E-002  0.1249953E+03  0.7818608E-02  0.1235077E+00
          4   -1    0    0  501    0  0.00000000000E+00  0.00000000000E+00  0.40832979241E+02  0.40852724434E+02  0.12700000000E+01 0.  1.
         -4   -1    0    0    0  501 -0.00000000000E+00 -0.00000000000E+00 -0.95609761992E+02  0.95618196428E+02  0.12700000000E+01 0.  1.
         25    2    1    2    0    0  0.00000000000E+00  0.00000000000E+00 -0.54776782751E+02  0.13647092086E+03  0.12499526516E+03 0.  0.
    9000005    1    3    3    0    0  0.21833423341E+02 -0.64726381446E+01 -0.90923410486E+02  0.93737185758E+02  0.10000000000E+01 0.  0.
    9000005    1    3    3    0    0 -0.21833423341E+02  0.64726381446E+01  0.36146627735E+02  0.42733735104E+02  0.10000000000E+01 0.  0.
<mgrwt>
<rscale>  0 0.12499527E+03</rscale>
<asrwt>0</asrwt>
<pdfrwt beam="1">  1        4 0.62841645E-02 0.12499527E+03</pdfrwt>
<pdfrwt beam="2">  1       -4 0.14711362E-01 0.12499527E+03</pdfrwt>
<totfact> 0.10208250E+04</totfact>
</mgrwt>
</event>
<event>
 5    1  0.3269032E-002  0.1249947E+03  0.7818608E-02  0.1235078E+00
          4   -1    0    0  501    0  0.00000000000E+00  0.00000000000E+00  0.14063531102E+02  0.14120758020E+02  0.12700000000E+01 0. -1.
         -4   -1    0    0    0  501 -0.00000000000E+00 -0.00000000000E+00 -0.27711133099E+03  0.27711424118E+03  0.12700000000E+01 0. -1.
         25    2    1    2    0    0  0.00000000000E+00  0.00000000000E+00 -0.26304779989E+03  0.29123499920E+03  0.12499471881E+03 0.  0.
    9000005    1    3    3    0    0 -0.58296441047E+02 -0.20348255376E+01 -0.18374372150E+03  0.19278322216E+03  0.10000000000E+01 0.  0.
    9000005    1    3    3    0    0  0.58296441047E+02  0.20348255376E+01 -0.79304078382E+02  0.98451777037E+02  0.10000000000E+01 0.  0.
<mgrwt>
<rscale>  0 0.12499472E+03</rscale>
<asrwt>0</asrwt>
<pdfrwt beam="1">  1        4 0.21682463E-02 0.12499472E+03</pdfrwt>
<pdfrwt beam="2">  1       -4 0.42637134E-01 0.12499472E+03</pdfrwt>
<totfact> 0.76720626E+03</totfact>
</mgrwt>
</event>
<event>
 5    1  0.3269032E-002  0.1250012E+03  0.7818608E-02  0.1235067E+00
          4   -1    0    0  501    0  0.00000000000E+00  0.00000000000E+00  0.51567086393E+01  0.53107950432E+01  0.12700000000E+01 0. -1.
         -4   -1    0    0    0  501 -0.00000000000E+00 -0.00000000000E+00 -0.74621688893E+03  0.74621796965E+03  0.12700000000E+01 0. -1.
         25    2    1    2    0    0  0.00000000000E+00  0.00000000000E+00 -0.74106018030E+03  0.75152876469E+03  0.12500117337E+03 0.  0.
    9000005    1    3    3    0    0 -0.38374400901E+02  0.44172154645E+02 -0.50246264171E+03  0.50585915056E+03  0.10000000000E+01 0.  0.
    9000005    1    3    3    0    0  0.38374400901E+02 -0.44172154645E+02 -0.23859753858E+03  0.24566961413E+03  0.10000000000E+01 0.  0.
<mgrwt>
<rscale>  0 0.12500117E+03</rscale>
<asrwt>0</asrwt>
<pdfrwt beam="1">  1        4 0.80527631E-03 0.12500117E+03</pdfrwt>
<pdfrwt beam="2">  1       -4 0.11481445E+00 0.12500117E+03</pdfrwt>
<totfact> 0.40500107E+03</totfact>
</mgrwt>
</event>
<event>
 5    1  0.3269032E-002  0.1250002E+03  0.7818608E-02  0.1235069E+00
          4   -1    0    0  501    0  0.00000000000E+00  0.00000000000E+00  0.17631099999E+03  0.17631557395E+03  0.12700000000E+01 0. -1.
         -4   -1    0    0    0  501 -0.00000000000E+00 -0.00000000000E+00 -0.22132455982E+02  0.22168863476E+02  0.12700000000E+01 0. -1.
         25    2    1    2    0    0  0.00000000000E+00  0.00000000000E+00  0.15417854401E+03  0.19848443743E+03  0.12500019387E+03 0.  0.
    9000005    1    3    3    0    0  0.86553922324E+01  0.61405789051E+02  0.64822978666E+02  0.89714019567E+02  0.10000000000E+01 0.  0.
    9000005    1    3    3    0    0 -0.86553922324E+01 -0.61405789051E+02  0.89355565341E+02  0.10877041786E+03  0.10000000000E+01 0.  0.
<mgrwt>
<rscale>  0 0.12500019E+03</rscale>
<asrwt>0</asrwt>
<pdfrwt beam="1">  1        4 0.27127921E-01 0.12500019E+03</pdfrwt>
<pdfrwt beam="2">  1       -4 0.34081458E-02 0.12500019E+03</pdfrwt>
<totfact> 0.90391256E+03</totfact>
</mgrwt>
</event>
<event>
 5    1  0.3269032E-002  0.1250038E+03  0.7818608E-02  0.1235063E+00
         -4   -1    0    0    0  501 -0.00000000000E+00  0.00000000000E+00  0.13583354023E+02  0.13642595300E+02  0.12700000000E+01 0.  1.
          4   -1    0    0  501    0  0.00000000000E+00 -0.00000000000E+00 -0.28690711882E+03  0.28690992965E+03  0.12700000000E+01 0.  1.
         25    2    1    2    0    0  0.00000000000E+00  0.00000000000E+00 -0.27332376480E+03  0.30055252495E+03  0.12500375934E+03 0.  0.
    9000005    1    3    3    0    0 -0.48703776375E+01 -0.10637612270E+02 -0.28426232191E+03  0.28450473990E+03  0.10000000000E+01 0.  0.
    9000005    1    3    3    0    0  0.48703776375E+01  0.10637612270E+02  0.10938557108E+02  0.16047785042E+02  0.10000000000E+01 0.  0.
<mgrwt>
<rscale>  0 0.12500376E+03</rscale>
<asrwt>0</asrwt>
<pdfrwt beam="2">  1        4 0.44144325E-01 0.12500376E+03</pdfrwt>
<pdfrwt beam="1">  1       -4 0.20945202E-02 0.12500376E+03</pdfrwt>
<totfact> 0.75523283E+03</totfact>
</mgrwt>
</event>
<event>
 5    1  0.3269032E-002  0.1249978E+03  0.7818608E-02  0.1235073E+00
          4   -1    0    0  501    0  0.00000000000E+00  0.00000000000E+00  0.15826282256E+02  0.15877156863E+02  0.12700000000E+01 0.  1.
         -4   -1    0    0    0  501 -0.00000000000E+00 -0.00000000000E+00 -0.24636321953E+03  0.24636649293E+03  0.12700000000E+01 0.  1.
         25    2    1    2    0    0  0.00000000000E+00  0.00000000000E+00 -0.23053693727E+03  0.26224364979E+03  0.12499780961E+03 0.  0.
    9000005    1    3    3    0    0  0.41774483652E+02  0.11260492554E+02 -0.20986895472E+03  0.21428458725E+03  0.10000000000E+01 0.  0.
    9000005    1    3    3    0    0 -0.41774483652E+02 -0.11260492554E+02 -0.20667982553E+02  0.47959062541E+02  0.10000000000E+01 0.  0.
<mgrwt>
<rscale>  0 0.12499781E+03</rscale>
<asrwt>0</asrwt>
<pdfrwt beam="1">  1        4 0.24389781E-02 0.12499781E+03</pdfrwt>
<pdfrwt beam="2">  1       -4 0.37906196E-01 0.12499781E+03</pdfrwt>
<totfact> 0.80596154E+03</totfact>
</mgrwt>
</event>
<event>
 5    1  0.3269032E-002  0.1250010E+03  0.7818608E-02  0.1235068E+00
          4   -1    0    0  501    0  0.00000000000E+00  0.00000000000E+00  0.18174329532E+03  0.18174773256E+03  0.12700000000E+01 0.  1.
         -4   -1    0    0    0  501 -0.00000000000E+00 -0.00000000000E+00 -0.21470111370E+02  0.21507640090E+02  0.12700000000E+01 0.  1.
         25    2    1    2    0    0  0.00000000000E+00  0.00000000000E+00  0.16027318394E+03  0.20325537265E+03  0.12500101208E+03 0.  0.
    9000005    1    3    3    0    0  0.59372461285E+02  0.18507758384E+02  0.90118743300E+02  0.10949892316E+03  0.10000000000E+01 0.  0.
    9000005    1    3    3    0    0 -0.59372461285E+02 -0.18507758384E+02  0.70154440645E+02  0.93756449493E+02  0.10000000000E+01 0.  0.
<mgrwt>
<rscale>  0 0.12500101E+03</rscale>
<asrwt>0</asrwt>
<pdfrwt beam="1">  1        4 0.27963736E-01 0.12500101E+03</pdfrwt>
<pdfrwt beam="2">  1       -4 0.33063221E-02 0.12500101E+03</pdfrwt>
<totfact> 0.89587321E+03</totfact>
</mgrwt>
</event>
<event>
 5    1  0.3269032E-002  0.1249986E+03  0.7818608E-02  0.1235071E+00
          4   -1    0    0  501    0  0.00000000000E+00  0.00000000000E+00  0.22623889204E+01  0.25944755977E+01  0.12700000000E+01 0.  1.
         -4   -1    0    0    0  501 -0.00000000000E+00 -0.00000000000E+00 -0.16081801776E+04  0.16081806791E+04  0.12700000000E+01 0.  1.
         25    2    1    2    0    0  0.00000000000E+00  0.00000000000E+00 -0.16059177887E+04  0.16107751547E+04  0.12499861955E+03 0.  0.
    9000005    1    3    3    0    0 -0.51863278129E+02 -0.26172473634E+02 -0.50619064720E+03  0.50951424839E+03  0.10000000000E+01 0.  0.
    9000005    1    3    3    0    0  0.51863278129E+02  0.26172473634E+02 -0.10997271415E+04  0.11012609063E+04  0.10000000000E+01 0.  0.
<mgrwt>
<rscale>  0 0.12499862E+03</rscale>
<asrwt>0</asrwt>
<pdfrwt beam="1">  1        4 0.37364482E-03 0.12499862E+03</pdfrwt>
<pdfrwt beam="2">  1       -4 0.24743707E+00 0.12499862E+03</pdfrwt>
<totfact> 0.15852813E+03</totfact>
</mgrwt>
</event>
<event>
 5    1  0.3269032E-002  0.1250002E+03  0.7818608E-02  0.1235069E+00
          4   -1    0    0  501    0  0.00000000000E+00  0.00000000000E+00  0.45970657631E+03  0.45970833058E+03  0.12700000000E+01 0.  1.
         -4   -1    0    0    0  501 -0.00000000000E+00 -0.00000000000E+00 -0.84480628200E+01  0.85429892550E+01  0.12700000000E+01 0.  1.
         25    2    1    2    0    0  0.00000000000E+00  0.00000000000E+00  0.45125851349E+03  0.46825131984E+03  0.12500021011E+03 0.  0.
    9000005    1    3    3    0    0 -0.30046517915E+02 -0.47509964899E+02  0.32789401558E+03  0.33267923809E+03  0.10000000000E+01 0.  0.
    9000005    1    3    3    0    0  0.30046517915E+02  0.47509964899E+02  0.12336449792E+03  0.13557208175E+03  0.10000000000E+01 0.  0.
<mgrwt>
<rscale>  0 0.12500021E+03</rscale>
<asrwt>0</asrwt>
<pdfrwt beam="1">  1        4 0.70731511E-01 0.12500021E+03</pdfrwt>
<pdfrwt beam="2">  1       -4 0.13071392E-02 0.12500021E+03</pdfrwt>
<totfact> 0.58414396E+03</totfact>
</mgrwt>
</event>
<event>
 5    1  0.3269032E-002  0.1249912E+03  0.7818608E-02  0.1235083E+00
          4   -1    0    0  501    0  0.00000000000E+00  0.00000000000E+00  0.10566009409E+02  0.10642060648E+02  0.12700000000E+01 0. -1.
         -4   -1    0    0    0  501 -0.00000000000E+00 -0.00000000000E+00 -0.36824513251E+03  0.36824732248E+03  0.12700000000E+01 0. -1.
         25    2    1    2    0    0  0.00000000000E+00  0.00000000000E+00 -0.35767912310E+03  0.37888938313E+03  0.12499123789E+03 0.  0.
    9000005    1    3    3    0    0  0.21980440180E+02  0.47141373314E+02 -0.28381516376E+03  0.28854375060E+03  0.10000000000E+01 0.  0.
    9000005    1    3    3    0    0 -0.21980440180E+02 -0.47141373314E+02 -0.73863959331E+02  0.90345632526E+02  0.10000000000E+01 0.  0.
<mgrwt>
<rscale>  0 0.12499124E+03</rscale>
<asrwt>0</asrwt>
<pdfrwt beam="1">  1        4 0.16315587E-02 0.12499124E+03</pdfrwt>
<pdfrwt beam="2">  1       -4 0.56659106E-01 0.12499124E+03</pdfrwt>
<totfact> 0.66671996E+03</totfact>
</mgrwt>
</event>
<event>
 5    1  0.3269032E-002  0.1250234E+03  0.7818608E-02  0.1235033E+00
         -4   -1    0    0    0  501 -0.00000000000E+00  0.00000000000E+00  0.26313306199E+02  0.26343936364E+02  0.12700000000E+01 0.  1.
          4   -1    0    0  501    0  0.00000000000E+00 -0.00000000000E+00 -0.14838724552E+03  0.14839268018E+03  0.12700000000E+01 0.  1.
         25    2    1    2    0    0  0.00000000000E+00  0.00000000000E+00 -0.12207393932E+03  0.17473661655E+03  0.12502335183E+03 0.  0.
    9000005    1    3    3    0    0  0.95464165329E+00  0.35186029665E+02  0.11150973020E+02  0.36936597347E+02  0.10000000000E+01 0.  0.
    9000005    1    3    3    0    0 -0.95464165329E+00 -0.35186029665E+02 -0.13322491234E+03  0.13780001920E+03  0.10000000000E+01 0.  0.
<mgrwt>
<rscale>  0 0.12502335E+03</rscale>
<asrwt>0</asrwt>
<pdfrwt beam="2">  1        4 0.22831581E-01 0.12502335E+03</pdfrwt>
<pdfrwt beam="1">  1       -4 0.40509753E-02 0.12502335E+03</pdfrwt>
<totfact> 0.94523574E+03</totfact>
</mgrwt>
</event>
<event>
 5    1  0.3269032E-002  0.1250000E+03  0.7818608E-02  0.1235069E+00
          4   -1    0    0  501    0  0.00000000000E+00  0.00000000000E+00  0.19529947782E+02  0.19571197213E+02  0.12700000000E+01 0.  1.
         -4   -1    0    0    0  501 -0.00000000000E+00 -0.00000000000E+00 -0.19975906211E+03  0.19976309918E+03  0.12700000000E+01 0.  1.
         25    2    1    2    0    0  0.00000000000E+00  0.00000000000E+00 -0.18022911433E+03  0.21933429640E+03  0.12499999970E+03 0.  0.
    9000005    1    3    3    0    0 -0.59287088500E+01 -0.42660632557E+02 -0.10664985880E+02  0.44382666465E+02  0.10000000000E+01 0.  0.
    9000005    1    3    3    0    0  0.59287088500E+01  0.42660632557E+02 -0.16956412845E+03  0.17495162993E+03  0.10000000000E+01 0.  0.
<mgrwt>
<rscale>  0 0.12500000E+03</rscale>
<asrwt>0</asrwt>
<pdfrwt beam="1">  1        4 0.30080911E-02 0.12500000E+03</pdfrwt>
<pdfrwt beam="2">  1       -4 0.30735646E-01 0.12500000E+03</pdfrwt>
<totfact> 0.86973799E+03</totfact>
</mgrwt>
</event>
<event>
 5    1  0.3269032E-002  0.1250021E+03  0.7818608E-02  0.1235066E+00
         -4   -1    0    0    0  501 -0.00000000000E+00  0.00000000000E+00  0.12599102162E+03  0.12599742231E+03  0.12700000000E+01 0.  1.
          4   -1    0    0  501    0  0.00000000000E+00 -0.00000000000E+00 -0.30985058262E+02  0.31011074400E+02  0.12700000000E+01 0.  1.
         25    2    1    2    0    0  0.00000000000E+00  0.00000000000E+00  0.95005963360E+02  0.15700849671E+03  0.12500213985E+03 0.  0.
    9000005    1    3    3    0    0 -0.57803972989E+02  0.13870557272E+02  0.71718700594E+02  0.93157198687E+02  0.10000000000E+01 0.  0.
    9000005    1    3    3    0    0  0.57803972989E+02 -0.13870557272E+02  0.23287262766E+02  0.63851298025E+02  0.10000000000E+01 0.  0.
<mgrwt>
<rscale>  0 0.12500214E+03</rscale>
<asrwt>0</asrwt>
<pdfrwt beam="2">  1        4 0.47694256E-02 0.12500214E+03</pdfrwt>
<pdfrwt beam="1">  1       -4 0.19385728E-01 0.12500214E+03</pdfrwt>
<totfact> 0.97917931E+03</totfact>
</mgrwt>
</event>
<event>
 5    1  0.3269032E-002  0.1250014E+03  0.7818608E-02  0.1235067E+00
          4   -1    0    0  501    0  0.00000000000E+00  0.00000000000E+00  0.22649512603E+02  0.22685090283E+02  0.12700000000E+01 0.  1.
         -4   -1    0    0    0  501 -0.00000000000E+00 -0.00000000000E+00 -0.17229575760E+03  0.17230043815E+03  0.12700000000E+01 0.  1.
         25    2    1    2    0    0  0.00000000000E+00  0.00000000000E+00 -0.14964624500E+03  0.19498552844E+03  0.12500143062E+03 0.  0.
    9000005    1    3    3    0    0 -0.58405583251E+02 -0.10426472308E+02 -0.44199805542E+02  0.73990176981E+02  0.10000000000E+01 0.  0.
    9000005    1    3    3    0    0  0.58405583251E+02  0.10426472308E+02 -0.10544643946E+03  0.12099535145E+03  0.10000000000E+01 0.  0.
<mgrwt>
<rscale>  0 0.12500143E+03</rscale>
<asrwt>0</asrwt>
<pdfrwt beam="1">  1        4 0.34876373E-02 0.12500143E+03</pdfrwt>
<pdfrwt beam="2">  1       -4 0.26510136E-01 0.12500143E+03</pdfrwt>
<totfact> 0.90984099E+03</totfact>
</mgrwt>
</event>
<event>
 4    1  0.3269032E-002  0.1251215E+03  0.7818608E-02  0.1234880E+00
          4   -1    0    0  501    0  0.00000000000E+00  0.00000000000E+00  0.19079407871E+02  0.19121629238E+02  0.12700000000E+01 0. -1.
         -4   -1    0    0    0  501 -0.00000000000E+00 -0.00000000000E+00 -0.20486370001E+03  0.20486763649E+03  0.12700000000E+01 0. -1.
    9000005    1    1    2    0    0 -0.10469566489E+02  0.55613731712E+02 -0.45179788827E+02  0.72420385914E+02  0.10000000000E+01 0.  0.
    9000005    1    1    2    0    0  0.10469566489E+02 -0.55613731712E+02 -0.14060450331E+03  0.15156887982E+03  0.10000000000E+01 0.  0.
<mgrwt>
<rscale>  0 0.12512149E+03</rscale>
<asrwt>0</asrwt>
<pdfrwt beam="1">  1        4 0.29388443E-02 0.12512149E+03</pdfrwt>
<pdfrwt beam="2">  1       -4 0.31521041E-01 0.12512149E+03</pdfrwt>
<totfact> 0.86007475E+03</totfact>
</mgrwt>
</event>
<event>
 5    1  0.3269032E-002  0.1249984E+03  0.7818608E-02  0.1235072E+00
         -4   -1    0    0    0  501 -0.00000000000E+00  0.00000000000E+00  0.42388043014E+02  0.42407064159E+02  0.12700000000E+01 0.  1.
          4   -1    0    0  501    0  0.00000000000E+00 -0.00000000000E+00 -0.92108041830E+02  0.92116796893E+02  0.12700000000E+01 0.  1.
         25    2    1    2    0    0  0.00000000000E+00  0.00000000000E+00 -0.49719998816E+02  0.13452386105E+03  0.12499836363E+03 0.  0.
    9000005    1    3    3    0    0  0.28795030244E+02 -0.54987693202E+02 -0.32646515861E+02  0.70139825836E+02  0.10000000000E+01 0.  0.
    9000005    1    3    3    0    0 -0.28795030244E+02  0.54987693202E+02 -0.17073482955E+02  0.64384035216E+02  0.10000000000E+01 0.  0.
<mgrwt>
<rscale>  0 0.12499836E+03</rscale>
<asrwt>0</asrwt>
<pdfrwt beam="2">  1        4 0.14172605E-01 0.12499836E+03</pdfrwt>
<pdfrwt beam="1">  1       -4 0.65233740E-02 0.12499836E+03</pdfrwt>
<totfact> 0.10248495E+04</totfact>
</mgrwt>
</event>
<event>
 5    1  0.3269032E-002  0.1249997E+03  0.7818608E-02  0.1235070E+00
          4   -1    0    0  501    0  0.00000000000E+00  0.00000000000E+00  0.18755843827E+02  0.18798791920E+02  0.12700000000E+01 0. -1.
         -4   -1    0    0    0  501 -0.00000000000E+00 -0.00000000000E+00 -0.20798451919E+03  0.20798839661E+03  0.12700000000E+01 0. -1.
         25    2    1    2    0    0  0.00000000000E+00  0.00000000000E+00 -0.18922867536E+03  0.22678718853E+03  0.12499974920E+03 0.  0.
    9000005    1    3    3    0    0  0.58599334918E+02  0.33035032506E+01 -0.55683343739E+02  0.80910011473E+02  0.10000000000E+01 0.  0.
    9000005    1    3    3    0    0 -0.58599334918E+02 -0.33035032506E+01 -0.13354533162E+03  0.14587717705E+03  0.10000000000E+01 0.  0.
<mgrwt>
<rscale>  0 0.12499975E+03</rscale>
<asrwt>0</asrwt>
<pdfrwt beam="1">  1        4 0.28891165E-02 0.12499975E+03</pdfrwt>
<pdfrwt beam="2">  1       -4 0.32001219E-01 0.12499975E+03</pdfrwt>
<totfact> 0.85805862E+03</totfact>
</mgrwt>
</event>
<event>
 5    1  0.3269032E-002  0.1250008E+03  0.7818608E-02  0.1235068E+00
         -4   -1    0    0    0  501 -0.00000000000E+00  0.00000000000E+00  0.88071476345E+02  0.88080632636E+02  0.12700000000E+01 0. -1.
          4   -1    0    0  501    0  0.00000000000E+00 -0.00000000000E+00 -0.44333208440E+02  0.44351395363E+02  0.12700000000E+01 0. -1.
         25    2    1    2    0    0  0.00000000000E+00  0.00000000000E+00  0.43738267905E+02  0.13243202800E+03  0.12500082384E+03 0.  0.
    9000005    1    3    3    0    0 -0.42287180071E+02 -0.38611468125E+01  0.70444476575E+02  0.82258971140E+02  0.10000000000E+01 0.  0.
    9000005    1    3    3    0    0  0.42287180071E+02  0.38611468125E+01 -0.26706208670E+02  0.50173056859E+02  0.10000000000E+01 0.  0.
<mgrwt>
<rscale>  0 0.12500082E+03</rscale>
<asrwt>0</asrwt>
<pdfrwt beam="2">  1        4 0.68225970E-02 0.12500082E+03</pdfrwt>
<pdfrwt beam="1">  1       -4 0.13551561E-01 0.12500082E+03</pdfrwt>
<totfact> 0.10292294E+04</totfact>
</mgrwt>
</event>
<event>
 5    1  0.3269032E-002  0.1249990E+03  0.7818608E-02  0.1235071E+00
          4   -1    0    0  501    0  0.00000000000E+00  0.00000000000E+00  0.44505329760E+02  0.44523446374E+02  0.12700000000E+01 0.  1.
         -4   -1    0    0    0  501 -0.00000000000E+00 -0.00000000000E+00 -0.87728424404E+02  0.87737616496E+02  0.12700000000E+01 0.  1.
         25    2    1    2    0    0  0.00000000000E+00  0.00000000000E+00 -0.43223094644E+02  0.13226106287E+03  0.12499901136E+03 0.  0.
    9000005    1    3    3    0    0  0.13442319034E+02  0.30581459759E+02  0.34270259878E+02  0.47868281086E+02  0.10000000000E+01 0.  0.
    9000005    1    3    3    0    0 -0.13442319034E+02 -0.30581459759E+02 -0.77493354522E+02  0.84392781783E+02  0.10000000000E+01 0.  0.
<mgrwt>
<rscale>  0 0.12499901E+03</rscale>
<asrwt>0</asrwt>
<pdfrwt beam="1">  1        4 0.68490745E-02 0.12499901E+03</pdfrwt>
<pdfrwt beam="2">  1       -4 0.13498781E-01 0.12499901E+03</pdfrwt>
<totfact> 0.10296359E+04</totfact>
</mgrwt>
</event>
<event>
 5    1  0.3269032E-002  0.1250022E+03  0.7818608E-02  0.1235066E+00
         -4   -1    0    0    0  501 -0.00000000000E+00  0.00000000000E+00  0.46180393150E+02  0.46197852888E+02  0.12700000000E+01 0.  1.
          4   -1    0    0  501    0  0.00000000000E+00 -0.00000000000E+00 -0.84551542056E+02  0.84561079487E+02  0.12700000000E+01 0.  1.
         25    2    1    2    0    0  0.00000000000E+00  0.00000000000E+00 -0.38371148906E+02  0.13075893238E+03  0.12500221329E+03 0.  0.
    9000005    1    3    3    0    0  0.60851399703E+02  0.11185789801E+02 -0.99842563631E+01  0.62679343602E+02  0.10000000000E+01 0.  0.
    9000005    1    3    3    0    0 -0.60851399703E+02 -0.11185789801E+02 -0.28386892543E+02  0.68079588773E+02  0.10000000000E+01 0.  0.
<mgrwt>
<rscale>  0 0.12500221E+03</rscale>
<asrwt>0</asrwt>
<pdfrwt beam="2">  1        4 0.13010006E-01 0.12500221E+03</pdfrwt>
<pdfrwt beam="1">  1       -4 0.71067526E-02 0.12500221E+03</pdfrwt>
<totfact> 0.10327744E+04</totfact>
</mgrwt>
</event>
<event>
 5    1  0.3269032E-002  0.1250020E+03  0.7818608E-02  0.1235066E+00
          4   -1    0    0  501    0  0.00000000000E+00  0.00000000000E+00  0.14000406005E+02  0.14057889895E+02  0.12700000000E+01 0. -1.
         -4   -1    0    0    0  501 -0.00000000000E+00 -0.00000000000E+00 -0.27838834563E+03  0.27839124247E+03  0.12700000000E+01 0. -1.
         25    2    1    2    0    0  0.00000000000E+00  0.00000000000E+00 -0.26438793962E+03  0.29244913236E+03  0.12500204959E+03 0.  0.
    9000005    1    3    3    0    0  0.59268304797E+02 -0.17935273429E+02 -0.11248440329E+03  0.12840617964E+03  0.10000000000E+01 0.  0.
    9000005    1    3    3    0    0 -0.59268304797E+02  0.17935273429E+02 -0.15190353634E+03  0.16404295272E+03  0.10000000000E+01 0.  0.
<mgrwt>
<rscale>  0 0.12500205E+03</rscale>
<asrwt>0</asrwt>
<pdfrwt beam="1">  1        4 0.21585535E-02 0.12500205E+03</pdfrwt>
<pdfrwt beam="2">  1       -4 0.42833617E-01 0.12500205E+03</pdfrwt>
<totfact> 0.76552391E+03</totfact>
</mgrwt>
</event>
<event>
 5    1  0.3269032E-002  0.1249942E+03  0.7818608E-02  0.1235078E+00
          4   -1    0    0  501    0  0.00000000000E+00  0.00000000000E+00  0.21590919037E+02  0.21628238136E+02  0.12700000000E+01 0. -1.
         -4   -1    0    0    0  501 -0.00000000000E+00 -0.00000000000E+00 -0.18070832621E+03  0.18071278887E+03  0.12700000000E+01 0. -1.
         25    2    1    2    0    0  0.00000000000E+00  0.00000000000E+00 -0.15911740718E+03  0.20234102701E+03  0.12499416765E+03 0.  0.
    9000005    1    3    3    0    0 -0.59592332761E+02  0.18739770763E+02 -0.82097880809E+02  0.10316727759E+03  0.10000000000E+01 0.  0.
    9000005    1    3    3    0    0  0.59592332761E+02 -0.18739770763E+02 -0.77019526367E+02  0.99173749420E+02  0.10000000000E+01 0.  0.
<mgrwt>
<rscale>  0 0.12499417E+03</rscale>
<asrwt>0</asrwt>
<pdfrwt beam="1">  1        4 0.33248939E-02 0.12499417E+03</pdfrwt>
<pdfrwt beam="2">  1       -4 0.27804494E-01 0.12499417E+03</pdfrwt>
<totfact> 0.89753881E+03</totfact>
</mgrwt>
</event>
<event>
 5    1  0.3269032E-002  0.1250172E+03  0.7818608E-02  0.1235042E+00
          4   -1    0    0  501    0  0.00000000000E+00  0.00000000000E+00  0.57369352073E+03  0.57369492644E+03  0.12700000000E+01 0.  1.
         -4   -1    0    0    0  501 -0.00000000000E+00 -0.00000000000E+00 -0.67501975585E+01  0.68686291994E+01  0.12700000000E+01 0.  1.
         25    2    1    2    0    0  0.00000000000E+00  0.00000000000E+00  0.56694332317E+03  0.58056355564E+03  0.12501724062E+03 0.  0.
    9000005    1    3    3    0    0  0.41073667633E+02 -0.45172405946E+02  0.22138691918E+03  0.22965356608E+03  0.10000000000E+01 0.  0.
    9000005    1    3    3    0    0 -0.41073667633E+02  0.45172405946E+02  0.34555640399E+03  0.35090998956E+03  0.10000000000E+01 0.  0.
<mgrwt>
<rscale>  0 0.12501724E+03</rscale>
<asrwt>0</asrwt>
<pdfrwt beam="1">  1        4 0.88269788E-01 0.12501724E+03</pdfrwt>
<pdfrwt beam="2">  1       -4 0.10477099E-02 0.12501724E+03</pdfrwt>
<totfact> 0.50098974E+03</totfact>
</mgrwt>
</event>
<event>
 5    1  0.3269032E-002  0.1250369E+03  0.7818608E-02  0.1235012E+00
         -4   -1    0    0    0  501 -0.00000000000E+00  0.00000000000E+00  0.25655867734E+04  0.25655870877E+04  0.12700000000E+01 0. -1.
          4   -1    0    0  501    0  0.00000000000E+00 -0.00000000000E+00 -0.12584081397E+01  0.17878733305E+01  0.12700000000E+01 0. -1.
         25    2    1    2    0    0  0.00000000000E+00  0.00000000000E+00  0.25643283653E+04  0.25673749611E+04  0.12503689783E+03 0.  0.
    9000005    1    3    3    0    0 -0.14298532519E+02 -0.34955635821E+02  0.25938226128E+03  0.26211925143E+03  0.10000000000E+01 0.  0.
    9000005    1    3    3    0    0  0.14298532519E+02  0.34955635821E+02  0.23049461040E+04  0.23052557096E+04  0.10000000000E+01 0.  0.
<mgrwt>
<rscale>  0 0.12503690E+03</rscale>
<asrwt>0</asrwt>
<pdfrwt beam="2">  1        4 0.23435375E-03 0.12503690E+03</pdfrwt>
<pdfrwt beam="1">  1       -4 0.39474602E+00 0.12503690E+03</pdfrwt>
<totfact> 0.41579916E+02</totfact>
</mgrwt>
</event>
<event>
 5    1  0.3269032E-002  0.1250204E+03  0.7818608E-02  0.1235037E+00
         -4   -1    0    0    0  501 -0.00000000000E+00  0.00000000000E+00  0.15787121290E+03  0.15787632109E+03  0.12700000000E+01 0.  1.
          4   -1    0    0  501    0  0.00000000000E+00 -0.00000000000E+00 -0.24729531724E+02  0.24762121058E+02  0.12700000000E+01 0.  1.
         25    2    1    2    0    0  0.00000000000E+00  0.00000000000E+00  0.13314168117E+03  0.18263844215E+03  0.12502037148E+03 0.  0.
    9000005    1    3    3    0    0  0.33413995315E+02  0.27553023063E+02  0.73667855950E+00  0.43326745298E+02  0.10000000000E+01 0.  0.
    9000005    1    3    3    0    0 -0.33413995315E+02 -0.27553023063E+02  0.13240500261E+03  0.13931169685E+03  0.10000000000E+01 0.  0.
<mgrwt>
<rscale>  0 0.12502037E+03</rscale>
<asrwt>0</asrwt>
<pdfrwt beam="2">  1        4 0.38074431E-02 0.12502037E+03</pdfrwt>
<pdfrwt beam="1">  1       -4 0.24290779E-01 0.12502037E+03</pdfrwt>
<totfact> 0.93101698E+03</totfact>
</mgrwt>
</event>
<event>
 5    1  0.3269032E-002  0.1250032E+03  0.7818608E-02  0.1235064E+00
         -4   -1    0    0    0  501 -0.00000000000E+00  0.00000000000E+00  0.35220499790E+02  0.35243389529E+02  0.12700000000E+01 0.  1.
          4   -1    0    0  501    0  0.00000000000E+00 -0.00000000000E+00 -0.11085160042E+03  0.11085887522E+03  0.12700000000E+01 0.  1.
         25    2    1    2    0    0  0.00000000000E+00  0.00000000000E+00 -0.75631100626E+02  0.14610226475E+03  0.12500323349E+03 0.  0.
    9000005    1    3    3    0    0  0.36694387879E+02 -0.50569738667E+02 -0.36302647071E+02  0.72267964929E+02  0.10000000000E+01 0.  0.
    9000005    1    3    3    0    0 -0.36694387879E+02  0.50569738667E+02 -0.39328453555E+02  0.73834299818E+02  0.10000000000E+01 0.  0.
<mgrwt>
<rscale>  0 0.12500323E+03</rscale>
<asrwt>0</asrwt>
<pdfrwt beam="2">  1        4 0.17056413E-01 0.12500323E+03</pdfrwt>
<pdfrwt beam="1">  1       -4 0.54208588E-02 0.12500323E+03</pdfrwt>
<totfact> 0.10007912E+04</totfact>
</mgrwt>
</event>
<event>
 5    1  0.3269032E-002  0.1250076E+03  0.7818608E-02  0.1235057E+00
         -4   -1    0    0    0  501 -0.00000000000E+00  0.00000000000E+00  0.10173506596E+02  0.10252469774E+02  0.12700000000E+01 0. -1.
          4   -1    0    0  501    0  0.00000000000E+00 -0.00000000000E+00 -0.38244516541E+03  0.38244727407E+03  0.12700000000E+01 0. -1.
         25    2    1    2    0    0  0.00000000000E+00  0.00000000000E+00 -0.37227165881E+03  0.39269974385E+03  0.12500760321E+03 0.  0.
    9000005    1    3    3    0    0 -0.47653415689E+01  0.61653984228E+02 -0.21454828101E+03  0.22328431906E+03  0.10000000000E+01 0.  0.
    9000005    1    3    3    0    0  0.47653415689E+01 -0.61653984228E+02 -0.15772337780E+03  0.16941542479E+03  0.10000000000E+01 0.  0.
<mgrwt>
<rscale>  0 0.12500760E+03</rscale>
<asrwt>0</asrwt>
<pdfrwt beam="2">  1        4 0.58843943E-01 0.12500760E+03</pdfrwt>
<pdfrwt beam="1">  1       -4 0.15713915E-02 0.12500760E+03</pdfrwt>
<totfact> 0.65258097E+03</totfact>
</mgrwt>
</event>
<event>
 5    1  0.3269032E-002  0.1249987E+03  0.7818608E-02  0.1235071E+00
         -4   -1    0    0    0  501 -0.00000000000E+00  0.00000000000E+00  0.43181785813E+02  0.43200457475E+02  0.12700000000E+01 0.  1.
          4   -1    0    0  501    0  0.00000000000E+00 -0.00000000000E+00 -0.90416059648E+02  0.90424978531E+02  0.12700000000E+01 0.  1.
         25    2    1    2    0    0  0.00000000000E+00  0.00000000000E+00 -0.47234273835E+02  0.13362543601E+03  0.12499872209E+03 0.  0.
    9000005    1    3    3    0    0  0.57645546167E+02  0.12264712756E+02 -0.14048293070E+01  0.58961052545E+02  0.10000000000E+01 0.  0.
    9000005    1    3    3    0    0 -0.57645546167E+02 -0.12264712756E+02 -0.45829444528E+02  0.74664383461E+02  0.10000000000E+01 0.  0.
<mgrwt>
<rscale>  0 0.12499872E+03</rscale>
<asrwt>0</asrwt>
<pdfrwt beam="2">  1        4 0.13912285E-01 0.12499872E+03</pdfrwt>
<pdfrwt beam="1">  1       -4 0.66454740E-02 0.12499872E+03</pdfrwt>
<totfact> 0.10267421E+04</totfact>
</mgrwt>
</event>
<event>
 5    1  0.3269032E-002  0.1249988E+03  0.7818608E-02  0.1235071E+00
          4   -1    0    0  501    0  0.00000000000E+00  0.00000000000E+00  0.10394929377E+03  0.10395705159E+03  0.12700000000E+01 0.  1.
         -4   -1    0    0    0  501 -0.00000000000E+00 -0.00000000000E+00 -0.37557827793E+02  0.37579293880E+02  0.12700000000E+01 0.  1.
         25    2    1    2    0    0  0.00000000000E+00  0.00000000000E+00  0.66391465972E+02  0.14153634547E+03  0.12499884133E+03 0.  0.
    9000005    1    3    3    0    0  0.50771168383E+02 -0.18533968771E+02 -0.23224124384E+01  0.54107422198E+02  0.10000000000E+01 0.  0.
    9000005    1    3    3    0    0 -0.50771168383E+02  0.18533968771E+02  0.68713878411E+02  0.87428923267E+02  0.10000000000E+01 0.  0.
<mgrwt>
<rscale>  0 0.12499884E+03</rscale>
<asrwt>0</asrwt>
<pdfrwt beam="1">  1        4 0.15994447E-01 0.12499884E+03</pdfrwt>
<pdfrwt beam="2">  1       -4 0.57803753E-02 0.12499884E+03</pdfrwt>
<totfact> 0.10102107E+04</totfact>
</mgrwt>
</event>
<event>
 5    1  0.3269032E-002  0.1249877E+03  0.7818608E-02  0.1235088E+00
          4   -1    0    0  501    0  0.00000000000E+00  0.00000000000E+00  0.16400566485E+03  0.16401058198E+03  0.12700000000E+01 0.  1.
         -4   -1    0    0    0  501 -0.00000000000E+00 -0.00000000000E+00 -0.23790893464E+02  0.23824766774E+02  0.12700000000E+01 0.  1.
         25    2    1    2    0    0  0.00000000000E+00  0.00000000000E+00  0.14021477138E+03  0.18783534875E+03  0.12498774391E+03 0.  0.
    9000005    1    3    3    0    0  0.24974544620E+02 -0.36201091995E+02  0.13681403739E+03  0.14371265695E+03  0.10000000000E+01 0.  0.
    9000005    1    3    3    0    0 -0.24974544620E+02  0.36201091995E+02  0.34007339951E+01  0.44122691808E+02  0.10000000000E+01 0.  0.
<mgrwt>
<rscale>  0 0.12498774E+03</rscale>
<asrwt>0</asrwt>
<pdfrwt beam="1">  1        4 0.25234624E-01 0.12498774E+03</pdfrwt>
<pdfrwt beam="2">  1       -4 0.36631214E-02 0.12498774E+03</pdfrwt>
<totfact> 0.92250655E+03</totfact>
</mgrwt>
</event>
<event>
 5    1  0.3269032E-002  0.1249988E+03  0.7818608E-02  0.1235071E+00
         -4   -1    0    0    0  501 -0.00000000000E+00  0.00000000000E+00  0.34314169056E+02  0.34337662966E+02  0.12700000000E+01 0. -1.
          4   -1    0    0  501    0  0.00000000000E+00 -0.00000000000E+00 -0.11376960975E+03  0.11377669798E+03  0.12700000000E+01 0. -1.
         25    2    1    2    0    0  0.00000000000E+00  0.00000000000E+00 -0.79455440695E+02  0.14811436095E+03  0.12499878744E+03 0.  0.
    9000005    1    3    3    0    0 -0.28377959794E+02 -0.23377092212E+02  0.20147738520E+02  0.41937196017E+02  0.10000000000E+01 0.  0.
    9000005    1    3    3    0    0  0.28377959794E+02  0.23377092212E+02 -0.99603179215E+02  0.10617716493E+03  0.10000000000E+01 0.  0.
<mgrwt>
<rscale>  0 0.12499879E+03</rscale>
<asrwt>0</asrwt>
<pdfrwt beam="2">  1        4 0.17505369E-01 0.12499879E+03</pdfrwt>
<pdfrwt beam="1">  1       -4 0.52814555E-02 0.12499879E+03</pdfrwt>
<totfact> 0.99683629E+03</totfact>
</mgrwt>
</event>
<event>
 5    1  0.3269032E-002  0.1249966E+03  0.7818608E-02  0.1235075E+00
          4   -1    0    0  501    0  0.00000000000E+00  0.00000000000E+00  0.13367840152E+03  0.13368443415E+03  0.12700000000E+01 0.  1.
         -4   -1    0    0    0  501 -0.00000000000E+00 -0.00000000000E+00 -0.29199176895E+02  0.29226782775E+02  0.12700000000E+01 0.  1.
         25    2    1    2    0    0  0.00000000000E+00  0.00000000000E+00  0.10447922462E+03  0.16291121692E+03  0.12499662484E+03 0.  0.
    9000005    1    3    3    0    0 -0.85099298078E+01 -0.34105401820E+02  0.11957803246E+03  0.12464149865E+03  0.10000000000E+01 0.  0.
    9000005    1    3    3    0    0  0.85099298078E+01  0.34105401820E+02 -0.15098807835E+02  0.38269718272E+02  0.10000000000E+01 0.  0.
<mgrwt>
<rscale>  0 0.12499662E+03</rscale>
<asrwt>0</asrwt>
<pdfrwt beam="1">  1        4 0.20568495E-01 0.12499662E+03</pdfrwt>
<pdfrwt beam="2">  1       -4 0.44947687E-02 0.12499662E+03</pdfrwt>
<totfact> 0.96791784E+03</totfact>
</mgrwt>
</event>
<event>
 5    1  0.3269032E-002  0.1249937E+03  0.7818608E-02  0.1235079E+00
         -4   -1    0    0    0  501 -0.00000000000E+00  0.00000000000E+00  0.16430162711E+03  0.16430653539E+03  0.12700000000E+01 0. -1.
          4   -1    0    0  501    0  0.00000000000E+00 -0.00000000000E+00 -0.23750229814E+02  0.23784161037E+02  0.12700000000E+01 0. -1.
         25    2    1    2    0    0  0.00000000000E+00  0.00000000000E+00  0.14055139729E+03  0.18809069642E+03  0.12499365904E+03 0.  0.
    9000005    1    3    3    0    0  0.20001998358E+02  0.20059220483E+02 -0.13540571196E+02  0.31413362332E+02  0.10000000000E+01 0.  0.
    9000005    1    3    3    0    0 -0.20001998358E+02 -0.20059220483E+02  0.15409196849E+03  0.15667733409E+03  0.10000000000E+01 0.  0.
<mgrwt>
<rscale>  0 0.12499366E+03</rscale>
<asrwt>0</asrwt>
<pdfrwt beam="2">  1        4 0.36568691E-02 0.12499366E+03</pdfrwt>
<pdfrwt beam="1">  1       -4 0.25280161E-01 0.12499366E+03</pdfrwt>
<totfact> 0.92193688E+03</totfact>
</mgrwt>
</event>
<event>
 5    1  0.3269032E-002  0.1250008E+03  0.7818608E-02  0.1235068E+00
          4   -1    0    0  501    0  0.00000000000E+00  0.00000000000E+00  0.43213394515E+02  0.43232052525E+02  0.12700000000E+01 0. -1.
         -4   -1    0    0    0  501 -0.00000000000E+00 -0.00000000000E+00 -0.90352984895E+02  0.90361910003E+02  0.12700000000E+01 0. -1.
         25    2    1    2    0    0  0.00000000000E+00  0.00000000000E+00 -0.47139590380E+02  0.13359396253E+03  0.12500082337E+03 0.  0.
    9000005    1    3    3    0    0 -0.19993767062E+02 -0.33080274115E+02 -0.76049905162E+02  0.85314965463E+02  0.10000000000E+01 0.  0.
    9000005    1    3    3    0    0  0.19993767062E+02  0.33080274115E+02  0.28910314782E+02  0.48278997065E+02  0.10000000000E+01 0.  0.
<mgrwt>
<rscale>  0 0.12500082E+03</rscale>
<asrwt>0</asrwt>
<pdfrwt beam="1">  1        4 0.66503363E-02 0.12500082E+03</pdfrwt>
<pdfrwt beam="2">  1       -4 0.13902581E-01 0.12500082E+03</pdfrwt>
<totfact> 0.10267602E+04</totfact>
</mgrwt>
</event>
<event>
 5    1  0.3269032E-002  0.1249946E+03  0.7818608E-02  0.1235078E+00
          4   -1    0    0  501    0  0.00000000000E+00  0.00000000000E+00  0.18737979544E+02  0.18780968490E+02  0.12700000000E+01 0.  1.
         -4   -1    0    0    0  501 -0.00000000000E+00 -0.00000000000E+00 -0.20816508208E+03  0.20816895614E+03  0.12700000000E+01 0.  1.
         25    2    1    2    0    0  0.00000000000E+00  0.00000000000E+00 -0.18942710254E+03  0.22694992463E+03  0.12499456433E+03 0.  0.
    9000005    1    3    3    0    0 -0.61792060620E+02  0.89329714733E+01 -0.99466864991E+02  0.11744238573E+03  0.10000000000E+01 0.  0.
    9000005    1    3    3    0    0  0.61792060620E+02 -0.89329714733E+01 -0.89960237549E+02  0.10950753890E+03  0.10000000000E+01 0.  0.
<mgrwt>
<rscale>  0 0.12499456E+03</rscale>
<asrwt>0</asrwt>
<pdfrwt beam="1">  1        4 0.28863711E-02 0.12499456E+03</pdfrwt>
<pdfrwt beam="2">  1       -4 0.32029000E-01 0.12499456E+03</pdfrwt>
<totfact> 0.85790557E+03</totfact>
</mgrwt>
</event>
<event>
 5    1  0.3269032E-002  0.1249983E+03  0.7818608E-02  0.1235072E+00
          4   -1    0    0  501    0  0.00000000000E+00  0.00000000000E+00  0.45352965962E+03  0.45353143778E+03  0.12700000000E+01 0.  1.
         -4   -1    0    0    0  501 -0.00000000000E+00 -0.00000000000E+00 -0.85641354613E+01  0.86577893368E+01  0.12700000000E+01 0.  1.
         25    2    1    2    0    0  0.00000000000E+00  0.00000000000E+00  0.44496552416E+03  0.46218922712E+03  0.12499825588E+03 0.  0.
    9000005    1    3    3    0    0  0.50827442474E+02 -0.58330979316E+01  0.89798006151E+02  0.10335441862E+03  0.10000000000E+01 0.  0.
    9000005    1    3    3    0    0 -0.50827442474E+02  0.58330979316E+01  0.35516751801E+03  0.35883480850E+03  0.10000000000E+01 0.  0.
<mgrwt>
<rscale>  0 0.12499826E+03</rscale>
<asrwt>0</asrwt>
<pdfrwt beam="1">  1        4 0.69781138E-01 0.12499826E+03</pdfrwt>
<pdfrwt beam="2">  1       -4 0.13249002E-02 0.12499826E+03</pdfrwt>
<totfact> 0.58924458E+03</totfact>
</mgrwt>
</event>
<event>
 5    1  0.3269032E-002  0.1250049E+03  0.7818608E-02  0.1235062E+00
          4   -1    0    0  501    0  0.00000000000E+00  0.00000000000E+00  0.16340291075E+02  0.16389570233E+02  0.12700000000E+01 0.  1.
         -4   -1    0    0    0  501 -0.00000000000E+00 -0.00000000000E+00 -0.23866428779E+03  0.23866766678E+03  0.12700000000E+01 0.  1.
         25    2    1    2    0    0  0.00000000000E+00  0.00000000000E+00 -0.22232399672E+03  0.25505723702E+03  0.12500493845E+03 0.  0.
    9000005    1    3    3    0    0 -0.60697592378E+02  0.12495102521E+02 -0.12764154758E+03  0.14189323442E+03  0.10000000000E+01 0.  0.
    9000005    1    3    3    0    0  0.60697592378E+02 -0.12495102521E+02 -0.94682449141E+02  0.11316400259E+03  0.10000000000E+01 0.  0.
<mgrwt>
<rscale>  0 0.12500494E+03</rscale>
<asrwt>0</asrwt>
<pdfrwt beam="1">  1        4 0.25179417E-02 0.12500494E+03</pdfrwt>
<pdfrwt beam="2">  1       -4 0.36721631E-01 0.12500494E+03</pdfrwt>
<totfact> 0.81595778E+03</totfact>
</mgrwt>
</event>
<event>
 5    1  0.3269032E-002  0.1249971E+03  0.7818608E-02  0.1235074E+00
         -4   -1    0    0    0  501 -0.00000000000E+00  0.00000000000E+00  0.44832139923E+03  0.44832319805E+03  0.12700000000E+01 0.  1.
          4   -1    0    0  501    0  0.00000000000E+00 -0.00000000000E+00 -0.86645401171E+01  0.87571202710E+01  0.12700000000E+01 0.  1.
         25    2    1    2    0    0  0.00000000000E+00  0.00000000000E+00  0.43965685911E+03  0.45708031832E+03  0.12499705448E+03 0.  0.
    9000005    1    3    3    0    0  0.53002721240E+02  0.19305931365E+02  0.12149992170E+03  0.13395983883E+03  0.10000000000E+01 0.  0.
    9000005    1    3    3    0    0 -0.53002721240E+02 -0.19305931365E+02  0.31815693741E+03  0.32312047949E+03  0.10000000000E+01 0.  0.
<mgrwt>
<rscale>  0 0.12499705E+03</rscale>
<asrwt>0</asrwt>
<pdfrwt beam="2">  1        4 0.13402663E-02 0.12499705E+03</pdfrwt>
<pdfrwt beam="1">  1       -4 0.68979771E-01 0.12499705E+03</pdfrwt>
<totfact> 0.59359153E+03</totfact>
</mgrwt>
</event>
<event>
 5    1  0.3269032E-002  0.1250021E+03  0.7818608E-02  0.1235066E+00
         -4   -1    0    0    0  501 -0.00000000000E+00  0.00000000000E+00  0.41031321987E+01  0.42951826318E+01  0.12700000000E+01 0. -1.
          4   -1    0    0  501    0  0.00000000000E+00 -0.00000000000E+00 -0.93008480093E+03  0.93008566800E+03  0.12700000000E+01 0. -1.
         25    2    1    2    0    0  0.00000000000E+00  0.00000000000E+00 -0.92598166873E+03  0.93438085063E+03  0.12500209279E+03 0.  0.
    9000005    1    3    3    0    0  0.42818497136E+02  0.44646054363E+02 -0.52929761707E+03  0.53290117405E+03  0.10000000000E+01 0.  0.
    9000005    1    3    3    0    0 -0.42818497136E+02 -0.44646054363E+02 -0.39668405166E+03  0.40147967658E+03  0.10000000000E+01 0.  0.
<mgrwt>
<rscale>  0 0.12500209E+03</rscale>
<asrwt>0</asrwt>
<pdfrwt beam="2">  1        4 0.14310465E+00 0.12500209E+03</pdfrwt>
<pdfrwt beam="1">  1       -4 0.64609166E-03 0.12500209E+03</pdfrwt>
<totfact> 0.32875623E+03</totfact>
</mgrwt>
</event>
<event>
 5    1  0.3269032E-002  0.1250004E+03  0.7818608E-02  0.1235069E+00
          4   -1    0    0  501    0  0.00000000000E+00  0.00000000000E+00  0.80301741130E+02  0.80311783248E+02  0.12700000000E+01 0.  1.
         -4   -1    0    0    0  501 -0.00000000000E+00 -0.00000000000E+00 -0.48623620816E+02  0.48640203549E+02  0.12700000000E+01 0.  1.
         25    2    1    2    0    0  0.00000000000E+00  0.00000000000E+00  0.31678120314E+02  0.12895198680E+03  0.12500044637E+03 0.  0.
    9000005    1    3    3    0    0  0.15342520411E+02 -0.13931382442E+02  0.76658716262E+02  0.79416844109E+02  0.10000000000E+01 0.  0.
    9000005    1    3    3    0    0 -0.15342520411E+02  0.13931382442E+02 -0.44980595948E+02  0.49535142688E+02  0.10000000000E+01 0.  0.
<mgrwt>
<rscale>  0 0.12500045E+03</rscale>
<asrwt>0</asrwt>
<pdfrwt beam="1">  1        4 0.12356162E-01 0.12500045E+03</pdfrwt>
<pdfrwt beam="2">  1       -4 0.74826051E-02 0.12500045E+03</pdfrwt>
<totfact> 0.10366874E+04</totfact>
</mgrwt>
</event>
<event>
 5    1  0.3269032E-002  0.1249973E+03  0.7818608E-02  0.1235073E+00
         -4   -1    0    0    0  501 -0.00000000000E+00  0.00000000000E+00  0.32314085750E+03  0.32314335315E+03  0.12700000000E+01 0. -1.
          4   -1    0    0  501    0  0.00000000000E+00 -0.00000000000E+00 -0.12051952228E+02  0.12118681962E+02  0.12700000000E+01 0. -1.
         25    2    1    2    0    0  0.00000000000E+00  0.00000000000E+00  0.31108890527E+03  0.33526203511E+03  0.12499730079E+03 0.  0.
    9000005    1    3    3    0    0 -0.27288252884E+02  0.56209849096E+02  0.15302063183E+03  0.16528916978E+03  0.10000000000E+01 0.  0.
    9000005    1    3    3    0    0  0.27288252884E+02 -0.56209849096E+02  0.15806827344E+03  0.16997286533E+03  0.10000000000E+01 0.  0.
<mgrwt>
<rscale>  0 0.12499730E+03</rscale>
<asrwt>0</asrwt>
<pdfrwt beam="2">  1        4 0.18594719E-02 0.12499730E+03</pdfrwt>
<pdfrwt beam="1">  1       -4 0.49719293E-01 0.12499730E+03</pdfrwt>
<totfact> 0.71381209E+03</totfact>
</mgrwt>
</event>
<event>
 5    1  0.3269032E-002  0.1249954E+03  0.7818608E-02  0.1235076E+00
          4   -1    0    0  501    0  0.00000000000E+00  0.00000000000E+00  0.54130664309E+03  0.54130813291E+03  0.12700000000E+01 0. -1.
         -4   -1    0    0    0  501 -0.00000000000E+00 -0.00000000000E+00 -0.71584164069E+01  0.72702011976E+01  0.12700000000E+01 0. -1.
         25    2    1    2    0    0  0.00000000000E+00  0.00000000000E+00  0.53414822669E+03  0.54857833411E+03  0.12499544225E+03 0.  0.
    9000005    1    3    3    0    0 -0.46169248151E+02  0.21531775534E+02  0.10824196954E+03  0.11963503167E+03  0.10000000000E+01 0.  0.
    9000005    1    3    3    0    0  0.46169248151E+02 -0.21531775534E+02  0.42590625715E+03  0.42894330245E+03  0.10000000000E+01 0.  0.
<mgrwt>
<rscale>  0 0.12499544E+03</rscale>
<asrwt>0</asrwt>
<pdfrwt beam="1">  1        4 0.83286703E-01 0.12499544E+03</pdfrwt>
<pdfrwt beam="2">  1       -4 0.11100077E-02 0.12499544E+03</pdfrwt>
<totfact> 0.52288376E+03</totfact>
</mgrwt>
</event>
<event>
 5    1  0.3269032E-002  0.1249917E+03  0.7818608E-02  0.1235082E+00
         -4   -1    0    0    0  501 -0.00000000000E+00  0.00000000000E+00  0.42484828575E+02  0.42503806407E+02  0.12700000000E+01 0.  1.
          4   -1    0    0  501    0  0.00000000000E+00 -0.00000000000E+00 -0.91888460895E+02  0.91897236877E+02  0.12700000000E+01 0.  1.
         25    2    1    2    0    0  0.00000000000E+00  0.00000000000E+00 -0.49403632320E+02  0.13440104328E+03  0.12499168592E+03 0.  0.
    9000005    1    3    3    0    0 -0.47713784707E+02  0.29118260856E+01 -0.67976272416E+02  0.83107506242E+02  0.10000000000E+01 0.  0.
    9000005    1    3    3    0    0  0.47713784707E+02 -0.29118260856E+01  0.18572640095E+02  0.51293537042E+02  0.10000000000E+01 0.  0.
<mgrwt>
<rscale>  0 0.12499169E+03</rscale>
<asrwt>0</asrwt>
<pdfrwt beam="2">  1        4 0.14138821E-01 0.12499169E+03</pdfrwt>
<pdfrwt beam="1">  1       -4 0.65382624E-02 0.12499169E+03</pdfrwt>
<totfact> 0.10252633E+04</totfact>
</mgrwt>
</event>
<event>
 5    1  0.3269032E-002  0.1250025E+03  0.7818608E-02  0.1235065E+00
         -4   -1    0    0    0  501 -0.00000000000E+00  0.00000000000E+00  0.12003134037E+03  0.12003805884E+03  0.12700000000E+01 0. -1.
          4   -1    0    0  501    0  0.00000000000E+00 -0.00000000000E+00 -0.32524889294E+02  0.32549674708E+02  0.12700000000E+01 0. -1.
         25    2    1    2    0    0  0.00000000000E+00  0.00000000000E+00  0.87506451073E+02  0.15258773355E+03  0.12500254977E+03 0.  0.
    9000005    1    3    3    0    0 -0.35293671829E+02 -0.23301839448E+01  0.10664281020E+03  0.11235996616E+03  0.10000000000E+01 0.  0.
    9000005    1    3    3    0    0  0.35293671829E+02  0.23301839448E+01 -0.19136359126E+02  0.40227767388E+02  0.10000000000E+01 0.  0.
<mgrwt>
<rscale>  0 0.12500255E+03</rscale>
<asrwt>0</asrwt>
<pdfrwt beam="2">  1        4 0.50062525E-02 0.12500255E+03</pdfrwt>
<pdfrwt beam="1">  1       -4 0.18468783E-01 0.12500255E+03</pdfrwt>
<totfact> 0.98784684E+03</totfact>
</mgrwt>
</event>
<event>
 5    1  0.3269032E-002  0.1250009E+03  0.7818608E-02  0.1235068E+00
         -4   -1    0    0    0  501 -0.00000000000E+00  0.00000000000E+00  0.38516415366E+02  0.38537347504E+02  0.12700000000E+01 0.  1.
          4   -1    0    0  501    0  0.00000000000E+00 -0.00000000000E+00 -0.10136685747E+03  0.10137481291E+03  0.12700000000E+01 0.  1.
         25    2    1    2    0    0  0.00000000000E+00  0.00000000000E+00 -0.62850442103E+02  0.13991216042E+03  0.12500093824E+03 0.  0.
    9000005    1    3    3    0    0 -0.38598639074E+02 -0.44798135014E+02 -0.88006076138E+01  0.59792796668E+02  0.10000000000E+01 0.  0.
    9000005    1    3    3    0    0  0.38598639074E+02  0.44798135014E+02 -0.54049834489E+02  0.80119363748E+02  0.10000000000E+01 0.  0.
<mgrwt>
<rscale>  0 0.12500094E+03</rscale>
<asrwt>0</asrwt>
<pdfrwt beam="2">  1        4 0.15597123E-01 0.12500094E+03</pdfrwt>
<pdfrwt beam="1">  1       -4 0.59278245E-02 0.12500094E+03</pdfrwt>
<totfact> 0.10135192E+04</totfact>
</mgrwt>
</event>
<event>
 5    1  0.3269032E-002  0.1249995E+03  0.7818608E-02  0.1235070E+00
         -4   -1    0    0    0  501 -0.00000000000E+00  0.00000000000E+00  0.35760247718E+02  0.35782792189E+02  0.12700000000E+01 0. -1.
          4   -1    0    0  501    0  0.00000000000E+00 -0.00000000000E+00 -0.10917294515E+03  0.10918033180E+03  0.12700000000E+01 0. -1.
         25    2    1    2    0    0  0.00000000000E+00  0.00000000000E+00 -0.73412697431E+02  0.14496312399E+03  0.12499953269E+03 0.  0.
    9000005    1    3    3    0    0  0.42995071323E+02 -0.43822671900E+02 -0.23171091911E+02  0.65626993157E+02  0.10000000000E+01 0.  0.
    9000005    1    3    3    0    0 -0.42995071323E+02  0.43822671900E+02 -0.50241605520E+02  0.79336130834E+02  0.10000000000E+01 0.  0.
<mgrwt>
<rscale>  0 0.12499953E+03</rscale>
<asrwt>0</asrwt>
<pdfrwt beam="2">  1        4 0.16798140E-01 0.12499953E+03</pdfrwt>
<pdfrwt beam="1">  1       -4 0.55038790E-02 0.12499953E+03</pdfrwt>
<totfact> 0.10031843E+04</totfact>
</mgrwt>
</event>
<event>
 5    1  0.3269032E-002  0.1250014E+03  0.7818608E-02  0.1235067E+00
          4   -1    0    0  501    0  0.00000000000E+00  0.00000000000E+00  0.17418845685E+02  0.17465081878E+02  0.12700000000E+01 0.  1.
         -4   -1    0    0    0  501 -0.00000000000E+00 -0.00000000000E+00 -0.22391392764E+03  0.22391752922E+03  0.12700000000E+01 0.  1.
         25    2    1    2    0    0  0.00000000000E+00  0.00000000000E+00 -0.20649508196E+03  0.24138261110E+03  0.12500138426E+03 0.  0.
    9000005    1    3    3    0    0  0.93181200042E+01  0.34597362052E+02 -0.43765891986E+01  0.36110377378E+02  0.10000000000E+01 0.  0.
    9000005    1    3    3    0    0 -0.93181200042E+01 -0.34597362052E+02 -0.20211849276E+03  0.20527223372E+03  0.10000000000E+01 0.  0.
<mgrwt>
<rscale>  0 0.12500138E+03</rscale>
<asrwt>0</asrwt>
<pdfrwt beam="1">  1        4 0.26836563E-02 0.12500138E+03</pdfrwt>
<pdfrwt beam="2">  1       -4 0.34452128E-01 0.12500138E+03</pdfrwt>
<totfact> 0.83589304E+03</totfact>
</mgrwt>
</event>
<event>
 5    1  0.3269032E-002  0.1250010E+03  0.7818608E-02  0.1235068E+00
         -4   -1    0    0    0  501 -0.00000000000E+00  0.00000000000E+00  0.75349995223E+03  0.75350102250E+03  0.12700000000E+01 0.  1.
          4   -1    0    0  501    0  0.00000000000E+00 -0.00000000000E+00 -0.51053578438E+01  0.52609484614E+01  0.12700000000E+01 0.  1.
         25    2    1    2    0    0  0.00000000000E+00  0.00000000000E+00  0.74839459438E+03  0.75876197096E+03  0.12500103869E+03 0.  0.
    9000005    1    3    3    0    0 -0.19993066988E+02 -0.33491717843E+02  0.67056827990E+03  0.67170249062E+03  0.10000000000E+01 0.  0.
    9000005    1    3    3    0    0  0.19993066988E+02  0.33491717843E+02  0.77826314481E+02  0.87059480341E+02  0.10000000000E+01 0.  0.
<mgrwt>
<rscale>  0 0.12500104E+03</rscale>
<asrwt>0</asrwt>
<pdfrwt beam="2">  1        4 0.79749064E-03 0.12500104E+03</pdfrwt>
<pdfrwt beam="1">  1       -4 0.11593510E+00 0.12500104E+03</pdfrwt>
<totfact> 0.40157612E+03</totfact>
</mgrwt>
</event>
<event>
 5    1  0.3269032E-002  0.1250010E+03  0.7818608E-02  0.1235068E+00
         -4   -1    0    0    0  501 -0.00000000000E+00  0.00000000000E+00  0.14440534233E+04  0.14440539817E+04  0.12700000000E+01 0. -1.
          4   -1    0    0  501    0  0.00000000000E+00 -0.00000000000E+00 -0.25554529893E+01  0.28536362733E+01  0.12700000000E+01 0. -1.
         25    2    1    2    0    0  0.00000000000E+00  0.00000000000E+00  0.14414979703E+04  0.14469076180E+04  0.12500102688E+03 0.  0.
    9000005    1    3    3    0    0  0.56488829906E+02  0.22338232872E+02  0.89060429099E+03  0.89267406576E+03  0.10000000000E+01 0.  0.
    9000005    1    3    3    0    0 -0.56488829906E+02 -0.22338232872E+02  0.55089367930E+03  0.55423355225E+03  0.10000000000E+01 0.  0.
<mgrwt>
<rscale>  0 0.12500103E+03</rscale>
<asrwt>0</asrwt>
<pdfrwt beam="2">  1        4 0.41612782E-03 0.12500103E+03</pdfrwt>
<pdfrwt beam="1">  1       -4 0.22218447E+00 0.12500103E+03</pdfrwt>
<totfact> 0.18995808E+03</totfact>
</mgrwt>
</event>
<event>
 5    1  0.3269032E-002  0.1249975E+03  0.7818608E-02  0.1235073E+00
         -4   -1    0    0    0  501 -0.00000000000E+00  0.00000000000E+00  0.20213758447E+01  0.23872285826E+01  0.12700000000E+01 0. -1.
          4   -1    0    0  501    0  0.00000000000E+00 -0.00000000000E+00 -0.17716656746E+04  0.17716661298E+04  0.12700000000E+01 0. -1.
         25    2    1    2    0    0  0.00000000000E+00  0.00000000000E+00 -0.17696442988E+04  0.17740533584E+04  0.12499749696E+03 0.  0.
    9000005    1    3    3    0    0 -0.31030702681E+02 -0.10170145324E+02 -0.16410096348E+04  0.16413348098E+04  0.10000000000E+01 0.  0.
    9000005    1    3    3    0    0  0.31030702681E+02  0.10170145324E+02 -0.12863466402E+03  0.13271854863E+03  0.10000000000E+01 0.  0.
<mgrwt>
<rscale>  0 0.12499750E+03</rscale>
<asrwt>0</asrwt>
<pdfrwt beam="2">  1        4 0.27259099E+00 0.12499750E+03</pdfrwt>
<pdfrwt beam="1">  1       -4 0.33915985E-03 0.12499750E+03</pdfrwt>
<totfact> 0.13108342E+03</totfact>
</mgrwt>
</event>
<event>
 5    1  0.3269032E-002  0.1249998E+03  0.7818608E-02  0.1235070E+00
         -4   -1    0    0    0  501 -0.00000000000E+00  0.00000000000E+00  0.38572661639E+02  0.38593563271E+02  0.12700000000E+01 0.  1.
          4   -1    0    0  501    0  0.00000000000E+00 -0.00000000000E+00 -0.10121727727E+03  0.10122524447E+03  0.12700000000E+01 0.  1.
         25    2    1    2    0    0  0.00000000000E+00  0.00000000000E+00 -0.62644615630E+02  0.13981880774E+03  0.12499980452E+03 0.  0.
    9000005    1    3    3    0    0  0.86156320288E+01  0.34290740856E+02 -0.88959272101E+02  0.95733150561E+02  0.10000000000E+01 0.  0.
    9000005    1    3    3    0    0 -0.86156320288E+01 -0.34290740856E+02  0.26314656471E+02  0.44085657178E+02  0.10000000000E+01 0.  0.
<mgrwt>
<rscale>  0 0.12499980E+03</rscale>
<asrwt>0</asrwt>
<pdfrwt beam="2">  1        4 0.15574109E-01 0.12499980E+03</pdfrwt>
<pdfrwt beam="1">  1       -4 0.59364763E-02 0.12499980E+03</pdfrwt>
<totfact> 0.10137387E+04</totfact>
</mgrwt>
</event>
<event>
 5    1  0.3269032E-002  0.1250018E+03  0.7818608E-02  0.1235066E+00
          4   -1    0    0  501    0  0.00000000000E+00  0.00000000000E+00  0.52015527930E+02  0.52031029644E+02  0.12700000000E+01 0. -1.
         -4   -1    0    0    0  501 -0.00000000000E+00 -0.00000000000E+00 -0.75067904053E+02  0.75078646224E+02  0.12700000000E+01 0. -1.
         25    2    1    2    0    0  0.00000000000E+00  0.00000000000E+00 -0.23052376123E+02  0.12710967587E+03  0.12500183060E+03 0.  0.
    9000005    1    3    3    0    0 -0.19970162695E+02  0.55325962805E+02  0.99388825808E+01  0.59661972355E+02  0.10000000000E+01 0.  0.
    9000005    1    3    3    0    0  0.19970162695E+02 -0.55325962805E+02 -0.32991258704E+02  0.67447703513E+02  0.10000000000E+01 0.  0.
<mgrwt>
<rscale>  0 0.12500183E+03</rscale>
<asrwt>0</asrwt>
<pdfrwt beam="1">  1        4 0.80044076E-02 0.12500183E+03</pdfrwt>
<pdfrwt beam="2">  1       -4 0.11550927E-01 0.12500183E+03</pdfrwt>
<totfact> 0.10406334E+04</totfact>
</mgrwt>
</event>
<event>
 5    1  0.3269032E-002  0.1249982E+03  0.7818608E-02  0.1235072E+00
          4   -1    0    0  501    0  0.00000000000E+00  0.00000000000E+00  0.36771987261E+02  0.36793911821E+02  0.12700000000E+01 0.  1.
         -4   -1    0    0    0  501 -0.00000000000E+00 -0.00000000000E+00 -0.10616857193E+03  0.10617616760E+03  0.12700000000E+01 0.  1.
         25    2    1    2    0    0  0.00000000000E+00  0.00000000000E+00 -0.69396584667E+02  0.14297007942E+03  0.12499823057E+03 0.  0.
    9000005    1    3    3    0    0 -0.46481663934E+02  0.26763175380E+02 -0.71376395231E+02  0.89288310740E+02  0.10000000000E+01 0.  0.
    9000005    1    3    3    0    0  0.46481663934E+02 -0.26763175380E+02  0.19798105641E+01  0.53681768678E+02  0.10000000000E+01 0.  0.
<mgrwt>
<rscale>  0 0.12499823E+03</rscale>
<asrwt>0</asrwt>
<pdfrwt beam="1">  1        4 0.56594996E-02 0.12499823E+03</pdfrwt>
<pdfrwt beam="2">  1       -4 0.16335897E-01 0.12499823E+03</pdfrwt>
<totfact> 0.10072797E+04</totfact>
</mgrwt>
</event>
<event>
 5    1  0.3269032E-002  0.1249962E+03  0.7818608E-02  0.1235075E+00
         -4   -1    0    0    0  501 -0.00000000000E+00  0.00000000000E+00  0.71332492458E+02  0.71343797070E+02  0.12700000000E+01 0.  1.
          4   -1    0    0  501    0  0.00000000000E+00 -0.00000000000E+00 -0.54734787765E+02  0.54749519556E+02  0.12700000000E+01 0.  1.
         25    2    1    2    0    0  0.00000000000E+00  0.00000000000E+00  0.16597704694E+02  0.12609331663E+03  0.12499616273E+03 0.  0.
    9000005    1    3    3    0    0 -0.61785335400E+02 -0.12146734376E+01  0.17659691833E+02  0.64278828690E+02  0.10000000000E+01 0.  0.
    9000005    1    3    3    0    0  0.61785335400E+02  0.12146734376E+01 -0.10619871391E+01  0.61814487936E+02  0.10000000000E+01 0.  0.
<mgrwt>
<rscale>  0 0.12499616E+03</rscale>
<asrwt>0</asrwt>
<pdfrwt beam="2">  1        4 0.84227394E-02 0.12499616E+03</pdfrwt>
<pdfrwt beam="1">  1       -4 0.10976232E-01 0.12499616E+03</pdfrwt>
<totfact> 0.10429816E+04</totfact>
</mgrwt>
</event>
<event>
 5    1  0.3269032E-002  0.1249769E+03  0.7818608E-02  0.1235105E+00
         -4   -1    0    0    0  501 -0.00000000000E+00  0.00000000000E+00  0.27064711438E+03  0.27065009408E+03  0.12700000000E+01 0.  1.
          4   -1    0    0  501    0  0.00000000000E+00 -0.00000000000E+00 -0.14396659603E+02  0.14452567513E+02  0.12700000000E+01 0.  1.
         25    2    1    2    0    0  0.00000000000E+00  0.00000000000E+00  0.25625045478E+03  0.28510266159E+03  0.12497692615E+03 0.  0.
    9000005    1    3    3    0    0  0.58337028326E+02  0.90484844580E+01  0.81444738307E+02  0.10059487732E+03  0.10000000000E+01 0.  0.
    9000005    1    3    3    0    0 -0.58337028326E+02 -0.90484844580E+01  0.17480571647E+03  0.18450778427E+03  0.10000000000E+01 0.  0.
<mgrwt>
<rscale>  0 0.12497693E+03</rscale>
<asrwt>0</asrwt>
<pdfrwt beam="2">  1        4 0.22194007E-02 0.12497693E+03</pdfrwt>
<pdfrwt beam="1">  1       -4 0.41642543E-01 0.12497693E+03</pdfrwt>
<totfact> 0.77546112E+03</totfact>
</mgrwt>
</event>
<event>
 4    1  0.3269032E-002  0.1250730E+03  0.7818608E-02  0.1234955E+00
         -4   -1    0    0    0  501 -0.00000000000E+00  0.00000000000E+00  0.96302177558E+02  0.96310551356E+02  0.12700000000E+01 0. -1.
          4   -1    0    0  501    0  0.00000000000E+00 -0.00000000000E+00 -0.40589726550E+02  0.40609590018E+02  0.12700000000E+01 0. -1.
    9000005    1    1    2    0    0 -0.14346997840E+02  0.41593376010E+02  0.76494010243E+02  0.88250659363E+02  0.10000000000E+01 0.  0.
    9000005    1    1    2    0    0  0.14346997840E+02 -0.41593376010E+02 -0.20781559235E+02  0.48669482011E+02  0.10000000000E+01 0.  0.
<mgrwt>
<rscale>  0 0.12507297E+03</rscale>
<asrwt>0</asrwt>
<pdfrwt beam="2">  1        4 0.62467455E-02 0.12507297E+03</pdfrwt>
<pdfrwt beam="1">  1       -4 0.14817891E-01 0.12507297E+03</pdfrwt>
<totfact> 0.10180996E+04</totfact>
</mgrwt>
</event>
<event>
 5    1  0.3269032E-002  0.1249979E+03  0.7818608E-02  0.1235073E+00
         -4   -1    0    0    0  501 -0.00000000000E+00  0.00000000000E+00  0.70549172821E+02  0.70560602929E+02  0.12700000000E+01 0. -1.
          4   -1    0    0  501    0  0.00000000000E+00 -0.00000000000E+00 -0.55344085189E+02  0.55358654837E+02  0.12700000000E+01 0. -1.
         25    2    1    2    0    0  0.00000000000E+00  0.00000000000E+00  0.15205087632E+02  0.12591925777E+03  0.12499785913E+03 0.  0.
    9000005    1    3    3    0    0  0.45908812150E+01 -0.42820451088E+02 -0.38013126745E+02  0.57451414488E+02  0.10000000000E+01 0.  0.
    9000005    1    3    3    0    0 -0.45908812150E+01  0.42820451088E+02  0.53218214377E+02  0.68467843279E+02  0.10000000000E+01 0.  0.
<mgrwt>
<rscale>  0 0.12499786E+03</rscale>
<asrwt>0</asrwt>
<pdfrwt beam="2">  1        4 0.85164747E-02 0.12499786E+03</pdfrwt>
<pdfrwt beam="1">  1       -4 0.10855719E-01 0.12499786E+03</pdfrwt>
<totfact> 0.10433231E+04</totfact>
</mgrwt>
</event>
<event>
 5    1  0.3269032E-002  0.1250046E+03  0.7818608E-02  0.1235062E+00
          4   -1    0    0  501    0  0.00000000000E+00  0.00000000000E+00  0.58871644053E+03  0.58871781037E+03  0.12700000000E+01 0.  1.
         -4   -1    0    0    0  501 -0.00000000000E+00 -0.00000000000E+00 -0.65735332014E+01  0.66950906454E+01  0.12700000000E+01 0.  1.
         25    2    1    2    0    0  0.00000000000E+00  0.00000000000E+00  0.58214290733E+03  0.59541290102E+03  0.12500463250E+03 0.  0.
    9000005    1    3    3    0    0 -0.32839414703E+02  0.39175524658E+01  0.38501516879E+02  0.50765551088E+02  0.10000000000E+01 0.  0.
    9000005    1    3    3    0    0  0.32839414703E+02 -0.39175524658E+01  0.54364139045E+03  0.54464734993E+03  0.10000000000E+01 0.  0.
<mgrwt>
<rscale>  0 0.12500463E+03</rscale>
<asrwt>0</asrwt>
<pdfrwt beam="1">  1        4 0.90581199E-01 0.12500463E+03</pdfrwt>
<pdfrwt beam="2">  1       -4 0.10207689E-02 0.12500463E+03</pdfrwt>
<totfact> 0.49153460E+03</totfact>
</mgrwt>
</event>
<event>
 5    1  0.3269032E-002  0.1250032E+03  0.7818608E-02  0.1235064E+00
         -4   -1    0    0    0  501 -0.00000000000E+00  0.00000000000E+00  0.29655522349E+03  0.29655794287E+03  0.12700000000E+01 0. -1.
          4   -1    0    0  501    0  0.00000000000E+00 -0.00000000000E+00 -0.13139356829E+02  0.13200590816E+02  0.12700000000E+01 0. -1.
         25    2    1    2    0    0  0.00000000000E+00  0.00000000000E+00  0.28341586666E+03  0.30975853369E+03  0.12500318282E+03 0.  0.
    9000005    1    3    3    0    0  0.27668714976E+02  0.10406850346E+02  0.52693058982E+01  0.30043733243E+02  0.10000000000E+01 0.  0.
    9000005    1    3    3    0    0 -0.27668714976E+02 -0.10406850346E+02  0.27814656076E+03  0.27971480044E+03  0.10000000000E+01 0.  0.
<mgrwt>
<rscale>  0 0.12500318E+03</rscale>
<asrwt>0</asrwt>
<pdfrwt beam="2">  1        4 0.20263589E-02 0.12500318E+03</pdfrwt>
<pdfrwt beam="1">  1       -4 0.45628802E-01 0.12500318E+03</pdfrwt>
<totfact> 0.74385571E+03</totfact>
</mgrwt>
</event>
<event>
 5    1  0.3269032E-002  0.1249975E+03  0.7818608E-02  0.1235073E+00
          4   -1    0    0  501    0  0.00000000000E+00  0.00000000000E+00  0.32757650806E+01  0.35133369982E+01  0.12700000000E+01 0.  1.
         -4   -1    0    0    0  501 -0.00000000000E+00 -0.00000000000E+00 -0.11504574128E+04  0.11504581137E+04  0.12700000000E+01 0.  1.
         25    2    1    2    0    0  0.00000000000E+00  0.00000000000E+00 -0.11471816477E+04  0.11539714507E+04  0.12499750538E+03 0.  0.
    9000005    1    3    3    0    0  0.21428143106E+02  0.58259652069E+02 -0.63999786250E+03  0.64300203451E+03  0.10000000000E+01 0.  0.
    9000005    1    3    3    0    0 -0.21428143106E+02 -0.58259652069E+02 -0.50718378517E+03  0.51096941623E+03  0.10000000000E+01 0.  0.
<mgrwt>
<rscale>  0 0.12499751E+03</rscale>
<asrwt>0</asrwt>
<pdfrwt beam="1">  1        4 0.52229346E-03 0.12499751E+03</pdfrwt>
<pdfrwt beam="2">  1       -4 0.17701147E+00 0.12499751E+03</pdfrwt>
<totfact> 0.25951763E+03</totfact>
</mgrwt>
</event>
<event>
 5    1  0.3269032E-002  0.1250020E+03  0.7818608E-02  0.1235066E+00
         -4   -1    0    0    0  501 -0.00000000000E+00  0.00000000000E+00  0.49171901236E+01  0.50785488786E+01  0.12700000000E+01 0.  1.
          4   -1    0    0  501    0  0.00000000000E+00 -0.00000000000E+00 -0.78144563881E+03  0.78144667080E+03  0.12700000000E+01 0.  1.
         25    2    1    2    0    0  0.00000000000E+00  0.00000000000E+00 -0.77652844868E+03  0.78652521968E+03  0.12500195831E+03 0.  0.
    9000005    1    3    3    0    0 -0.50771202652E+02  0.33429014466E+02 -0.47947983712E+03  0.48331886807E+03  0.10000000000E+01 0.  0.
    9000005    1    3    3    0    0  0.50771202652E+02 -0.33429014466E+02 -0.29704861156E+03  0.30320635161E+03  0.10000000000E+01 0.  0.
<mgrwt>
<rscale>  0 0.12500196E+03</rscale>
<asrwt>0</asrwt>
<pdfrwt beam="2">  1        4 0.12023480E+00 0.12500196E+03</pdfrwt>
<pdfrwt beam="1">  1       -4 0.76898300E-03 0.12500196E+03</pdfrwt>
<totfact> 0.38871767E+03</totfact>
</mgrwt>
</event>
<event>
 5    1  0.3269032E-002  0.1250007E+03  0.7818608E-02  0.1235068E+00
          4   -1    0    0  501    0  0.00000000000E+00  0.00000000000E+00  0.27298394716E+02  0.27327920779E+02  0.12700000000E+01 0.  1.
         -4   -1    0    0    0  501 -0.00000000000E+00 -0.00000000000E+00 -0.14298641066E+03  0.14299205059E+03  0.12700000000E+01 0.  1.
         25    2    1    2    0    0  0.00000000000E+00  0.00000000000E+00 -0.11568801594E+03  0.17031997137E+03  0.12500070246E+03 0.  0.
    9000005    1    3    3    0    0 -0.40736284476E+02 -0.31023060302E+00  0.67264840324E+01  0.41301170727E+02  0.10000000000E+01 0.  0.
    9000005    1    3    3    0    0  0.40736284476E+02  0.31023060302E+00 -0.12241449997E+03  0.12901880064E+03  0.10000000000E+01 0.  0.
<mgrwt>
<rscale>  0 0.12500070E+03</rscale>
<asrwt>0</asrwt>
<pdfrwt beam="1">  1        4 0.42024582E-02 0.12500070E+03</pdfrwt>
<pdfrwt beam="2">  1       -4 0.22000614E-01 0.12500070E+03</pdfrwt>
<totfact> 0.95387528E+03</totfact>
</mgrwt>
</event>
<event>
 5    1  0.3269032E-002  0.1249915E+03  0.7818608E-02  0.1235083E+00
          4   -1    0    0  501    0  0.00000000000E+00  0.00000000000E+00  0.12642204223E+04  0.12642210602E+04  0.12700000000E+01 0. -1.
         -4   -1    0    0    0  501 -0.00000000000E+00 -0.00000000000E+00 -0.29582461873E+01  0.32193354135E+01  0.12700000000E+01 0. -1.
         25    2    1    2    0    0  0.00000000000E+00  0.00000000000E+00  0.12612621761E+04  0.12674403956E+04  0.12499151790E+03 0.  0.
    9000005    1    3    3    0    0 -0.44503886833E+02  0.43812677009E+02  0.65231615381E+03  0.65529955831E+03  0.10000000000E+01 0.  0.
    9000005    1    3    3    0    0  0.44503886833E+02 -0.43812677009E+02  0.60894602226E+03  0.61214083725E+03  0.10000000000E+01 0.  0.
<mgrwt>
<rscale>  0 0.12499152E+03</rscale>
<asrwt>0</asrwt>
<pdfrwt beam="1">  1        4 0.19451517E+00 0.12499152E+03</pdfrwt>
<pdfrwt beam="2">  1       -4 0.47524867E-03 0.12499152E+03</pdfrwt>
<totfact> 0.23014587E+03</totfact>
</mgrwt>
</event>
<event>
 5    1  0.3269032E-002  0.1250143E+03  0.7818608E-02  0.1235047E+00
          4   -1    0    0  501    0  0.00000000000E+00  0.00000000000E+00  0.41961129152E+02  0.41980343730E+02  0.12700000000E+01 0.  1.
         -4   -1    0    0    0  501 -0.00000000000E+00 -0.00000000000E+00 -0.93068521572E+02  0.93077186289E+02  0.12700000000E+01 0.  1.
         25    2    1    2    0    0  0.00000000000E+00  0.00000000000E+00 -0.51107392420E+02  0.13505753002E+03  0.12501428260E+03 0.  0.
    9000005    1    3    3    0    0 -0.21966687226E+02 -0.41091967776E+02 -0.70554069064E+02  0.84557446892E+02  0.10000000000E+01 0.  0.
    9000005    1    3    3    0    0  0.21966687226E+02  0.41091967776E+02  0.19446676644E+02  0.50500083127E+02  0.10000000000E+01 0.  0.
<mgrwt>
<rscale>  0 0.12501428E+03</rscale>
<asrwt>0</asrwt>
<pdfrwt beam="1">  1        4 0.64577029E-02 0.12501428E+03</pdfrwt>
<pdfrwt beam="2">  1       -4 0.14320379E-01 0.12501428E+03</pdfrwt>
<totfact> 0.10233562E+04</totfact>
</mgrwt>
</event>
<event>
 5    1  0.3269032E-002  0.1250018E+03  0.7818608E-02  0.1235066E+00
          4   -1    0    0  501    0  0.00000000000E+00  0.00000000000E+00  0.64635657961E+02  0.64648133616E+02  0.12700000000E+01 0. -1.
         -4   -1    0    0    0  501 -0.00000000000E+00 -0.00000000000E+00 -0.60411668700E+02  0.60425016467E+02  0.12700000000E+01 0. -1.
         25    2    1    2    0    0  0.00000000000E+00  0.00000000000E+00  0.42239892611E+01  0.12507315008E+03  0.12500180313E+03 0.  0.
    9000005    1    3    3    0    0  0.46730880253E+02  0.22984887624E+02  0.36675632033E+02  0.63703863409E+02  0.10000000000E+01 0.  0.
    9000005    1    3    3    0    0 -0.46730880253E+02 -0.22984887624E+02 -0.32451642772E+02  0.61369286674E+02  0.10000000000E+01 0.  0.
<mgrwt>
<rscale>  0 0.12500180E+03</rscale>
<asrwt>0</asrwt>
<pdfrwt beam="1">  1        4 0.99459338E-02 0.12500180E+03</pdfrwt>
<pdfrwt beam="2">  1       -4 0.92960893E-02 0.12500180E+03</pdfrwt>
<totfact> 0.10450848E+04</totfact>
</mgrwt>
</event>
<event>
 5    1  0.3269032E-002  0.1249998E+03  0.7818608E-02  0.1235070E+00
         -4   -1    0    0    0  501 -0.00000000000E+00  0.00000000000E+00  0.12608458261E+03  0.12609097855E+03  0.12700000000E+01 0.  1.
          4   -1    0    0  501    0  0.00000000000E+00 -0.00000000000E+00 -0.30960904806E+02  0.30986941224E+02  0.12700000000E+01 0.  1.
         25    2    1    2    0    0  0.00000000000E+00  0.00000000000E+00  0.95123677807E+02  0.15707791978E+03  0.12499983521E+03 0.  0.
    9000005    1    3    3    0    0 -0.23508045732E+02 -0.44127616832E+02  0.94670445097E+02  0.10706711893E+03  0.10000000000E+01 0.  0.
    9000005    1    3    3    0    0  0.23508045732E+02  0.44127616832E+02  0.45323271032E+00  0.50010800847E+02  0.10000000000E+01 0.  0.
<mgrwt>
<rscale>  0 0.12499984E+03</rscale>
<asrwt>0</asrwt>
<pdfrwt beam="2">  1        4 0.47657111E-02 0.12499984E+03</pdfrwt>
<pdfrwt beam="1">  1       -4 0.19400122E-01 0.12499984E+03</pdfrwt>
<totfact> 0.97909478E+03</totfact>
</mgrwt>
</event>
<event>
 5    1  0.3269032E-002  0.1249984E+03  0.7818608E-02  0.1235072E+00
         -4   -1    0    0    0  501 -0.00000000000E+00  0.00000000000E+00  0.36809181231E+02  0.36831083651E+02  0.12700000000E+01 0.  1.
          4   -1    0    0  501    0  0.00000000000E+00 -0.00000000000E+00 -0.10606156752E+03  0.10606917085E+03  0.12700000000E+01 0.  1.
         25    2    1    2    0    0  0.00000000000E+00  0.00000000000E+00 -0.69252386293E+02  0.14290025450E+03  0.12499835891E+03 0.  0.
    9000005    1    3    3    0    0  0.14872683033E+02  0.58419098736E+02 -0.53451463037E+02  0.80573238104E+02  0.10000000000E+01 0.  0.
    9000005    1    3    3    0    0 -0.14872683033E+02 -0.58419098736E+02 -0.15800923257E+02  0.62327016401E+02  0.10000000000E+01 0.  0.
<mgrwt>
<rscale>  0 0.12499836E+03</rscale>
<asrwt>0</asrwt>
<pdfrwt beam="2">  1        4 0.16319434E-01 0.12499836E+03</pdfrwt>
<pdfrwt beam="1">  1       -4 0.56652207E-02 0.12499836E+03</pdfrwt>
<totfact> 0.10074199E+04</totfact>
</mgrwt>
</event>
<event>
 5    1  0.3269032E-002  0.1250022E+03  0.7818608E-02  0.1235066E+00
         -4   -1    0    0    0  501 -0.00000000000E+00  0.00000000000E+00  0.12016414865E+02  0.12083340854E+02  0.12700000000E+01 0.  1.
          4   -1    0    0  501    0  0.00000000000E+00 -0.00000000000E+00 -0.32411680733E+03  0.32411929547E+03  0.12700000000E+01 0.  1.
         25    2    1    2    0    0  0.00000000000E+00  0.00000000000E+00 -0.31210039247E+03  0.33620263632E+03  0.12500223075E+03 0.  0.
    9000005    1    3    3    0    0  0.20528359128E+02  0.50679093931E+02 -0.23743391075E+03  0.24365066399E+03  0.10000000000E+01 0.  0.
    9000005    1    3    3    0    0 -0.20528359128E+02 -0.50679093931E+02 -0.74666481720E+02  0.92551972333E+02  0.10000000000E+01 0.  0.
<mgrwt>
<rscale>  0 0.12500223E+03</rscale>
<asrwt>0</asrwt>
<pdfrwt beam="2">  1        4 0.49869457E-01 0.12500223E+03</pdfrwt>
<pdfrwt beam="1">  1       -4 0.18540190E-02 0.12500223E+03</pdfrwt>
<totfact> 0.71266073E+03</totfact>
</mgrwt>
</event>
<event>
 5    1  0.3269032E-002  0.1250004E+03  0.7818608E-02  0.1235069E+00
          4   -1    0    0  501    0  0.00000000000E+00  0.00000000000E+00  0.50353584238E+02  0.50369597433E+02  0.12700000000E+01 0.  1.
         -4   -1    0    0    0  501 -0.00000000000E+00 -0.00000000000E+00 -0.77543302585E+02  0.77553701883E+02  0.12700000000E+01 0.  1.
         25    2    1    2    0    0  0.00000000000E+00  0.00000000000E+00 -0.27189718347E+02  0.12792329932E+03  0.12500035890E+03 0.  0.
    9000005    1    3    3    0    0  0.83275210984E+01  0.26430605678E+02  0.43726929352E+02  0.51778073300E+02  0.10000000000E+01 0.  0.
    9000005    1    3    3    0    0 -0.83275210984E+01 -0.26430605678E+02 -0.70916647699E+02  0.76145226016E+02  0.10000000000E+01 0.  0.
<mgrwt>
<rscale>  0 0.12500036E+03</rscale>
<asrwt>0</asrwt>
<pdfrwt beam="1">  1        4 0.77487370E-02 0.12500036E+03</pdfrwt>
<pdfrwt beam="2">  1       -4 0.11931771E-01 0.12500036E+03</pdfrwt>
<totfact> 0.10389060E+04</totfact>
</mgrwt>
</event>
<event>
 5    1  0.3269032E-002  0.1249990E+03  0.7818608E-02  0.1235071E+00
          4   -1    0    0  501    0  0.00000000000E+00  0.00000000000E+00  0.16558167881E+03  0.16558654914E+03  0.12700000000E+01 0.  1.
         -4   -1    0    0    0  501 -0.00000000000E+00 -0.00000000000E+00 -0.23568390494E+02  0.23602583132E+02  0.12700000000E+01 0.  1.
         25    2    1    2    0    0  0.00000000000E+00  0.00000000000E+00  0.14201328831E+03  0.18918913227E+03  0.12499901485E+03 0.  0.
    9000005    1    3    3    0    0  0.26940175476E+02  0.34933090330E+02  0.13799777299E+03  0.14488091387E+03  0.10000000000E+01 0.  0.
    9000005    1    3    3    0    0 -0.26940175476E+02 -0.34933090330E+02  0.40155153265E+01  0.44308218403E+02  0.10000000000E+01 0.  0.
<mgrwt>
<rscale>  0 0.12499901E+03</rscale>
<asrwt>0</asrwt>
<pdfrwt beam="1">  1        4 0.25477109E-01 0.12499901E+03</pdfrwt>
<pdfrwt beam="2">  1       -4 0.36289112E-02 0.12499901E+03</pdfrwt>
<totfact> 0.91990625E+03</totfact>
</mgrwt>
</event>
<event>
 5    1  0.3269032E-002  0.1250014E+03  0.7818608E-02  0.1235067E+00
         -4   -1    0    0    0  501 -0.00000000000E+00  0.00000000000E+00  0.27932276879E+02  0.27961133590E+02  0.12700000000E+01 0.  1.
          4   -1    0    0  501    0  0.00000000000E+00 -0.00000000000E+00 -0.13974628202E+03  0.13975205272E+03  0.12700000000E+01 0.  1.
         25    2    1    2    0    0  0.00000000000E+00  0.00000000000E+00 -0.11181400514E+03  0.16771318631E+03  0.12500136445E+03 0.  0.
    9000005    1    3    3    0    0 -0.57750132722E+02 -0.31452879354E+01 -0.24146467719E+02  0.62681915805E+02  0.10000000000E+01 0.  0.
    9000005    1    3    3    0    0  0.57750132722E+02  0.31452879354E+01 -0.87667537424E+02  0.10503127050E+03  0.10000000000E+01 0.  0.
<mgrwt>
<rscale>  0 0.12500136E+03</rscale>
<asrwt>0</asrwt>
<pdfrwt beam="2">  1        4 0.21502091E-01 0.12500136E+03</pdfrwt>
<pdfrwt beam="1">  1       -4 0.42999371E-02 0.12500136E+03</pdfrwt>
<totfact> 0.95873073E+03</totfact>
</mgrwt>
</event>
<event>
 5    1  0.3269032E-002  0.1250034E+03  0.7818608E-02  0.1235064E+00
          4   -1    0    0  501    0  0.00000000000E+00  0.00000000000E+00  0.24983818815E+04  0.24983822043E+04  0.12700000000E+01 0.  1.
         -4   -1    0    0    0  501 -0.00000000000E+00 -0.00000000000E+00 -0.13053367308E+01  0.18212094830E+01  0.12700000000E+01 0.  1.
         25    2    1    2    0    0  0.00000000000E+00  0.00000000000E+00  0.24970765448E+04  0.25002034138E+04  0.12500335916E+03 0.  0.
    9000005    1    3    3    0    0  0.58201156327E+02  0.11439697282E+02  0.16421171738E+04  0.16431883805E+04  0.10000000000E+01 0.  0.
    9000005    1    3    3    0    0 -0.58201156327E+02 -0.11439697282E+02  0.85495937095E+03  0.85701503326E+03  0.10000000000E+01 0.  0.
<mgrwt>
<rscale>  0 0.12500336E+03</rscale>
<asrwt>0</asrwt>
<pdfrwt beam="1">  1        4 0.38440603E+00 0.12500336E+03</pdfrwt>
<pdfrwt beam="2">  1       -4 0.24052846E-03 0.12500336E+03</pdfrwt>
<totfact> 0.46674072E+02</totfact>
</mgrwt>
</event>
<event>
 5    1  0.3269032E-002  0.1249982E+03  0.7818608E-02  0.1235072E+00
         -4   -1    0    0    0  501 -0.00000000000E+00  0.00000000000E+00  0.22543183094E+03  0.22543540826E+03  0.12700000000E+01 0. -1.
          4   -1    0    0  501    0  0.00000000000E+00 -0.00000000000E+00 -0.17300359448E+02  0.17346911455E+02  0.12700000000E+01 0. -1.
         25    2    1    2    0    0  0.00000000000E+00  0.00000000000E+00  0.20813147149E+03  0.24278231972E+03  0.12499818136E+03 0.  0.
    9000005    1    3    3    0    0 -0.24425289791E+02  0.57494061954E+02  0.10741548780E+03  0.12426282212E+03  0.10000000000E+01 0.  0.
    9000005    1    3    3    0    0  0.24425289791E+02 -0.57494061954E+02  0.10071598369E+03  0.11851949760E+03  0.10000000000E+01 0.  0.
<mgrwt>
<rscale>  0 0.12499818E+03</rscale>
<asrwt>0</asrwt>
<pdfrwt beam="2">  1        4 0.26654500E-02 0.12499818E+03</pdfrwt>
<pdfrwt beam="1">  1       -4 0.34685674E-01 0.12499818E+03</pdfrwt>
<totfact> 0.83388108E+03</totfact>
</mgrwt>
</event>
<event>
 5    1  0.3269032E-002  0.1249971E+03  0.7818608E-02  0.1235074E+00
         -4   -1    0    0    0  501 -0.00000000000E+00  0.00000000000E+00  0.91824974174E+01  0.92699060848E+01  0.12700000000E+01 0.  1.
          4   -1    0    0  501    0  0.00000000000E+00 -0.00000000000E+00 -0.42327875932E+03  0.42328066456E+03  0.12700000000E+01 0.  1.
         25    2    1    2    0    0  0.00000000000E+00  0.00000000000E+00 -0.41409626190E+03  0.43255057065E+03  0.12499712815E+03 0.  0.
    9000005    1    3    3    0    0  0.55138134068E+02 -0.74188412506E+01 -0.30552413713E+03  0.31054991773E+03  0.10000000000E+01 0.  0.
    9000005    1    3    3    0    0 -0.55138134068E+02  0.74188412506E+01 -0.10857212477E+03  0.12200065291E+03  0.10000000000E+01 0.  0.
<mgrwt>
<rscale>  0 0.12499713E+03</rscale>
<asrwt>0</asrwt>
<pdfrwt beam="2">  1        4 0.65126664E-01 0.12499713E+03</pdfrwt>
<pdfrwt beam="1">  1       -4 0.14195625E-02 0.12499713E+03</pdfrwt>
<totfact> 0.61509378E+03</totfact>
</mgrwt>
</event>
<event>
 5    1  0.3269032E-002  0.1250033E+03  0.7818608E-02  0.1235064E+00
         -4   -1    0    0    0  501 -0.00000000000E+00  0.00000000000E+00  0.37578031366E+01  0.39666086792E+01  0.12700000000E+01 0. -1.
          4   -1    0    0  501    0  0.00000000000E+00 -0.00000000000E+00 -0.10112472829E+04  0.10112480804E+04  0.12700000000E+01 0. -1.
         25    2    1    2    0    0  0.00000000000E+00  0.00000000000E+00 -0.10074894798E+04  0.10152146891E+04  0.12500325215E+03 0.  0.
    9000005    1    3    3    0    0 -0.52192421415E+02 -0.17002379441E+02 -0.26114085741E+03  0.26684954032E+03  0.10000000000E+01 0.  0.
    9000005    1    3    3    0    0  0.52192421415E+02  0.17002379441E+02 -0.74634862235E+03  0.74836514874E+03  0.10000000000E+01 0.  0.
<mgrwt>
<rscale>  0 0.12500325E+03</rscale>
<asrwt>0</asrwt>
<pdfrwt beam="2">  1        4 0.15559242E+00 0.12500325E+03</pdfrwt>
<pdfrwt beam="1">  1       -4 0.59424768E-03 0.12500325E+03</pdfrwt>
<totfact> 0.30104116E+03</totfact>
</mgrwt>
</event>
<event>
 5    1  0.3269032E-002  0.1250029E+03  0.7818608E-02  0.1235065E+00
         -4   -1    0    0    0  501 -0.00000000000E+00  0.00000000000E+00  0.21356824669E+03  0.21357202273E+03  0.12700000000E+01 0. -1.
          4   -1    0    0  501    0  0.00000000000E+00 -0.00000000000E+00 -0.18265264051E+02  0.18309362928E+02  0.12700000000E+01 0. -1.
         25    2    1    2    0    0  0.00000000000E+00  0.00000000000E+00  0.19530298264E+03  0.23188138566E+03  0.12500288792E+03 0.  0.
    9000005    1    3    3    0    0 -0.19634804829E+02  0.43382647801E+02  0.22578622921E+02  0.52710282715E+02  0.10000000000E+01 0.  0.
    9000005    1    3    3    0    0  0.19634804829E+02 -0.43382647801E+02  0.17272435972E+03  0.17917110294E+03  0.10000000000E+01 0.  0.
<mgrwt>
<rscale>  0 0.12500289E+03</rscale>
<asrwt>0</asrwt>
<pdfrwt beam="2">  1        4 0.28137234E-02 0.12500289E+03</pdfrwt>
<pdfrwt beam="1">  1       -4 0.32860335E-01 0.12500289E+03</pdfrwt>
<totfact> 0.85016066E+03</totfact>
</mgrwt>
</event>
<event>
 5    1  0.3269032E-002  0.1249974E+03  0.7818608E-02  0.1235073E+00
         -4   -1    0    0    0  501 -0.00000000000E+00  0.00000000000E+00  0.35241110541E+03  0.35241339378E+03  0.12700000000E+01 0. -1.
          4   -1    0    0  501    0  0.00000000000E+00 -0.00000000000E+00 -0.11045182183E+02  0.11117956173E+02  0.12700000000E+01 0. -1.
         25    2    1    2    0    0  0.00000000000E+00  0.00000000000E+00  0.34136592322E+03  0.36353134995E+03  0.12499739541E+03 0.  0.
    9000005    1    3    3    0    0  0.36554372195E+02  0.17003259384E+02  0.30954544357E+03  0.31216135987E+03  0.10000000000E+01 0.  0.
    9000005    1    3    3    0    0 -0.36554372195E+02 -0.17003259384E+02  0.31820479651E+02  0.51369990086E+02  0.10000000000E+01 0.  0.
<mgrwt>
<rscale>  0 0.12499740E+03</rscale>
<asrwt>0</asrwt>
<pdfrwt beam="2">  1        4 0.17050328E-02 0.12499740E+03</pdfrwt>
<pdfrwt beam="1">  1       -4 0.54222867E-01 0.12499740E+03</pdfrwt>
<totfact> 0.68265083E+03</totfact>
</mgrwt>
</event>
<event>
 5    1  0.3269032E-002  0.1249980E+03  0.7818608E-02  0.1235072E+00
          4   -1    0    0  501    0  0.00000000000E+00  0.00000000000E+00  0.72120865305E+01  0.73230521044E+01  0.12700000000E+01 0.  1.
         -4   -1    0    0    0  501 -0.00000000000E+00 -0.00000000000E+00 -0.53736180753E+03  0.53736330828E+03  0.12700000000E+01 0.  1.
         25    2    1    2    0    0  0.00000000000E+00  0.00000000000E+00 -0.53014972100E+03  0.54468636039E+03  0.12499801806E+03 0.  0.
    9000005    1    3    3    0    0 -0.62025966841E+02 -0.49968107341E+00 -0.29816245529E+03  0.30454773023E+03  0.10000000000E+01 0.  0.
    9000005    1    3    3    0    0  0.62025966841E+02  0.49968107341E+00 -0.23198726571E+03  0.24013863016E+03  0.10000000000E+01 0.  0.
<mgrwt>
<rscale>  0 0.12499802E+03</rscale>
<asrwt>0</asrwt>
<pdfrwt beam="1">  1        4 0.11182034E-02 0.12499802E+03</pdfrwt>
<pdfrwt beam="2">  1       -4 0.82679668E-01 0.12499802E+03</pdfrwt>
<totfact> 0.52558933E+03</totfact>
</mgrwt>
</event>
<event>
 5    1  0.3269032E-002  0.1249949E+03  0.7818608E-02  0.1235077E+00
         -4   -1    0    0    0  501 -0.00000000000E+00  0.00000000000E+00  0.22001199504E+01  0.25403597769E+01  0.12700000000E+01 0. -1.
          4   -1    0    0  501    0  0.00000000000E+00 -0.00000000000E+00 -0.16475646364E+04  0.16475651259E+04  0.12700000000E+01 0. -1.
         25    2    1    2    0    0  0.00000000000E+00  0.00000000000E+00 -0.16453645164E+04  0.16501054856E+04  0.12499488711E+03 0.  0.
    9000005    1    3    3    0    0 -0.25119151547E+02 -0.40818268704E+02 -0.13520277289E+04  0.13528773346E+04  0.10000000000E+01 0.  0.
    9000005    1    3    3    0    0  0.25119151547E+02  0.40818268704E+02 -0.29333678755E+03  0.29722815103E+03  0.10000000000E+01 0.  0.
<mgrwt>
<rscale>  0 0.12499489E+03</rscale>
<asrwt>0</asrwt>
<pdfrwt beam="2">  1        4 0.25349678E+00 0.12499489E+03</pdfrwt>
<pdfrwt beam="1">  1       -4 0.36469126E-03 0.12499489E+03</pdfrwt>
<totfact> 0.15159374E+03</totfact>
</mgrwt>
</event>
<event>
 4    1  0.3269032E-002  0.1245928E+03  0.7818608E-02  0.1235707E+00
          4   -1    0    0  501    0  0.00000000000E+00  0.00000000000E+00  0.19170368545E+03  0.19170789216E+03  0.12700000000E+01 0. -1.
         -4   -1    0    0    0  501 -0.00000000000E+00 -0.00000000000E+00 -0.20219604803E+02  0.20259450101E+02  0.12700000000E+01 0. -1.
    9000005    1    1    2    0    0  0.46490738390E+02 -0.28410251087E+02  0.13710015643E+03  0.14753299298E+03  0.10000000000E+01 0.  0.
    9000005    1    1    2    0    0 -0.46490738390E+02  0.28410251087E+02  0.34383924215E+02  0.64434349281E+02  0.10000000000E+01 0.  0.
<mgrwt>
<rscale>  0 0.12459279E+03</rscale>
<asrwt>0</asrwt>
<pdfrwt beam="1">  1        4 0.29496264E-01 0.12459279E+03</pdfrwt>
<pdfrwt beam="2">  1       -4 0.31140970E-02 0.12459279E+03</pdfrwt>
<totfact> 0.88962824E+03</totfact>
</mgrwt>
</event>
<event>
 5    1  0.3269032E-002  0.1250007E+03  0.7818608E-02  0.1235068E+00
          4   -1    0    0  501    0  0.00000000000E+00  0.00000000000E+00  0.79913715186E+03  0.79913816101E+03  0.12700000000E+01 0.  1.
         -4   -1    0    0    0  501 -0.00000000000E+00 -0.00000000000E+00 -0.48046176174E+01  0.49696328285E+01  0.12700000000E+01 0.  1.
         25    2    1    2    0    0  0.00000000000E+00  0.00000000000E+00  0.79433253424E+03  0.80410779384E+03  0.12500067662E+03 0.  0.
    9000005    1    3    3    0    0  0.59181310843E+01 -0.31112540805E+02  0.74372065260E+03  0.74439534091E+03  0.10000000000E+01 0.  0.
    9000005    1    3    3    0    0 -0.59181310843E+01  0.31112540805E+02  0.50611881642E+02  0.59712452924E+02  0.10000000000E+01 0.  0.
<mgrwt>
<rscale>  0 0.12500068E+03</rscale>
<asrwt>0</asrwt>
<pdfrwt beam="1">  1        4 0.12295688E+00 0.12500068E+03</pdfrwt>
<pdfrwt beam="2">  1       -4 0.75194347E-03 0.12500068E+03</pdfrwt>
<totfact> 0.38081454E+03</totfact>
</mgrwt>
</event>
<event>
 5    1  0.3269032E-002  0.1250005E+03  0.7818608E-02  0.1235069E+00
         -4   -1    0    0    0  501 -0.00000000000E+00  0.00000000000E+00  0.25040947312E+04  0.25040950533E+04  0.12700000000E+01 0.  1.
          4   -1    0    0  501    0  0.00000000000E+00 -0.00000000000E+00 -0.13010965171E+01  0.18181727494E+01  0.12700000000E+01 0.  1.
         25    2    1    2    0    0  0.00000000000E+00  0.00000000000E+00  0.25027936347E+04  0.25059132260E+04  0.12500047377E+03 0.  0.
    9000005    1    3    3    0    0 -0.18534973949E+02 -0.67176103786E+01  0.62576132519E+02  0.65615881534E+02  0.10000000000E+01 0.  0.
    9000005    1    3    3    0    0  0.18534973949E+02  0.67176103786E+01  0.24402175022E+04  0.24402973445E+04  0.10000000000E+01 0.  0.
<mgrwt>
<rscale>  0 0.12500047E+03</rscale>
<asrwt>0</asrwt>
<pdfrwt beam="2">  1        4 0.23996936E-03 0.12500047E+03</pdfrwt>
<pdfrwt beam="1">  1       -4 0.38528387E+00 0.12500047E+03</pdfrwt>
<totfact> 0.46230704E+02</totfact>
</mgrwt>
</event>
<event>
 5    1  0.3269032E-002  0.1249975E+03  0.7818608E-02  0.1235073E+00
          4   -1    0    0  501    0  0.00000000000E+00  0.00000000000E+00  0.43654547521E+03  0.43654732255E+03  0.12700000000E+01 0. -1.
         -4   -1    0    0    0  501 -0.00000000000E+00 -0.00000000000E+00 -0.89007980795E+01  0.89909458040E+01  0.12700000000E+01 0. -1.
         25    2    1    2    0    0  0.00000000000E+00  0.00000000000E+00  0.42764467713E+03  0.44553826835E+03  0.12499751474E+03 0.  0.
    9000005    1    3    3    0    0  0.19359815593E+02  0.58477002454E+02  0.17631459098E+03  0.18676776292E+03  0.10000000000E+01 0.  0.
    9000005    1    3    3    0    0 -0.19359815593E+02 -0.58477002454E+02  0.25133008615E+03  0.25877050543E+03  0.10000000000E+01 0.  0.
<mgrwt>
<rscale>  0 0.12499751E+03</rscale>
<asrwt>0</asrwt>
<pdfrwt beam="1">  1        4 0.67167916E-01 0.12499751E+03</pdfrwt>
<pdfrwt beam="2">  1       -4 0.13764302E-02 0.12499751E+03</pdfrwt>
<totfact> 0.60355577E+03</totfact>
</mgrwt>
</event>
<event>
 5    1  0.3269032E-002  0.1249987E+03  0.7818608E-02  0.1235071E+00
          4   -1    0    0  501    0  0.00000000000E+00  0.00000000000E+00  0.18044290808E+03  0.18044737731E+03  0.12700000000E+01 0. -1.
         -4   -1    0    0    0  501 -0.00000000000E+00 -0.00000000000E+00 -0.21624301510E+02  0.21661563097E+02  0.12700000000E+01 0. -1.
         25    2    1    2    0    0  0.00000000000E+00  0.00000000000E+00  0.15881860657E+03  0.20210894040E+03  0.12499869599E+03 0.  0.
    9000005    1    3    3    0    0  0.27146973893E+02  0.37987607307E+02  0.12251926228E+02  0.48281737715E+02  0.10000000000E+01 0.  0.
    9000005    1    3    3    0    0 -0.27146973893E+02 -0.37987607307E+02  0.14656668034E+03  0.15382720269E+03  0.10000000000E+01 0.  0.
<mgrwt>
<rscale>  0 0.12499870E+03</rscale>
<asrwt>0</asrwt>
<pdfrwt beam="1">  1        4 0.27763657E-01 0.12499870E+03</pdfrwt>
<pdfrwt beam="2">  1       -4 0.33300257E-02 0.12499870E+03</pdfrwt>
<totfact> 0.89783651E+03</totfact>
</mgrwt>
</event>
<event>
 5    1  0.3269032E-002  0.1250019E+03  0.7818608E-02  0.1235066E+00
          4   -1    0    0  501    0  0.00000000000E+00  0.00000000000E+00  0.12412167307E+02  0.12476970676E+02  0.12700000000E+01 0. -1.
         -4   -1    0    0    0  501 -0.00000000000E+00 -0.00000000000E+00 -0.31383518465E+03  0.31383775430E+03  0.12700000000E+01 0. -1.
         25    2    1    2    0    0  0.00000000000E+00  0.00000000000E+00 -0.30142301734E+03  0.32631472498E+03  0.12500185740E+03 0.  0.
    9000005    1    3    3    0    0 -0.54675789272E+02  0.23660416427E+02 -0.19997345754E+03  0.20866154643E+03  0.10000000000E+01 0.  0.
    9000005    1    3    3    0    0  0.54675789272E+02 -0.23660416427E+02 -0.10144955980E+03  0.11765317855E+03  0.10000000000E+01 0.  0.
<mgrwt>
<rscale>  0 0.12500186E+03</rscale>
<asrwt>0</asrwt>
<pdfrwt beam="1">  1        4 0.19147470E-02 0.12500186E+03</pdfrwt>
<pdfrwt beam="2">  1       -4 0.48287513E-01 0.12500186E+03</pdfrwt>
<totfact> 0.72408336E+03</totfact>
</mgrwt>
</event>
<event>
 5    1  0.3269032E-002  0.1250547E+03  0.7818608E-02  0.1234984E+00
          4   -1    0    0  501    0  0.00000000000E+00  0.00000000000E+00  0.54923048495E+02  0.54937729804E+02  0.12700000000E+01 0.  1.
         -4   -1    0    0    0  501 -0.00000000000E+00 -0.00000000000E+00 -0.71154624277E+02  0.71165957142E+02  0.12700000000E+01 0.  1.
         25    2    1    2    0    0  0.00000000000E+00  0.00000000000E+00 -0.16231575782E+02  0.12610368695E+03  0.12505469127E+03 0.  0.
    9000005    1    3    3    0    0  0.13914926439E+02  0.55176931886E+02 -0.34227982102E+02  0.66412903482E+02  0.10000000000E+01 0.  0.
    9000005    1    3    3    0    0 -0.13914926439E+02 -0.55176931886E+02  0.17996406321E+02  0.59690783464E+02  0.10000000000E+01 0.  0.
<mgrwt>
<rscale>  0 0.12505469E+03</rscale>
<asrwt>0</asrwt>
<pdfrwt beam="1">  1        4 0.84517008E-02 0.12505469E+03</pdfrwt>
<pdfrwt beam="2">  1       -4 0.10948866E-01 0.12505469E+03</pdfrwt>
<totfact> 0.10415825E+04</totfact>
</mgrwt>
</event>
<event>
 5    1  0.3269032E-002  0.1250026E+03  0.7818608E-02  0.1235065E+00
         -4   -1    0    0    0  501 -0.00000000000E+00  0.00000000000E+00  0.15019230351E+03  0.15019767286E+03  0.12700000000E+01 0.  1.
          4   -1    0    0  501    0  0.00000000000E+00 -0.00000000000E+00 -0.25988071491E+02  0.26019084530E+02  0.12700000000E+01 0.  1.
         25    2    1    2    0    0  0.00000000000E+00  0.00000000000E+00  0.12420423202E+03  0.17621675739E+03  0.12500261731E+03 0.  0.
    9000005    1    3    3    0    0 -0.27574094901E+01  0.57590343898E+02  0.28117926610E+02  0.64155037326E+02  0.10000000000E+01 0.  0.
    9000005    1    3    3    0    0  0.27574094901E+01 -0.57590343898E+02  0.96086305409E+02  0.11206172007E+03  0.10000000000E+01 0.  0.
<mgrwt>
<rscale>  0 0.12500262E+03</rscale>
<asrwt>0</asrwt>
<pdfrwt beam="2">  1        4 0.40009635E-02 0.12500262E+03</pdfrwt>
<pdfrwt beam="1">  1       -4 0.23109307E-01 0.12500262E+03</pdfrwt>
<totfact> 0.94296929E+03</totfact>
</mgrwt>
</event>
<event>
 5    1  0.3269032E-002  0.1250073E+03  0.7818608E-02  0.1235058E+00
         -4   -1    0    0    0  501 -0.00000000000E+00  0.00000000000E+00  0.52592564943E+01  0.54104231695E+01  0.12700000000E+01 0.  1.
          4   -1    0    0  501    0  0.00000000000E+00 -0.00000000000E+00 -0.73214845101E+03  0.73214955249E+03  0.12700000000E+01 0.  1.
         25    2    1    2    0    0  0.00000000000E+00  0.00000000000E+00 -0.72688919451E+03  0.73755997566E+03  0.12500726617E+03 0.  0.
    9000005    1    3    3    0    0  0.54014798834E+02  0.13250436920E+02 -0.53162764090E+03  0.53452981315E+03  0.10000000000E+01 0.  0.
    9000005    1    3    3    0    0 -0.54014798834E+02 -0.13250436920E+02 -0.19526155361E+03  0.20303016251E+03  0.10000000000E+01 0.  0.
<mgrwt>
<rscale>  0 0.12500727E+03</rscale>
<asrwt>0</asrwt>
<pdfrwt beam="2">  1        4 0.11264986E+00 0.12500727E+03</pdfrwt>
<pdfrwt beam="1">  1       -4 0.82082990E-03 0.12500727E+03</pdfrwt>
<totfact> 0.41169812E+03</totfact>
</mgrwt>
</event>
<event>
 5    1  0.3269032E-002  0.1249990E+03  0.7818608E-02  0.1235071E+00
          4   -1    0    0  501    0  0.00000000000E+00  0.00000000000E+00  0.11307477542E+03  0.11308190720E+03  0.12700000000E+01 0. -1.
         -4   -1    0    0    0  501 -0.00000000000E+00 -0.00000000000E+00 -0.34525287578E+02  0.34548637923E+02  0.12700000000E+01 0. -1.
         25    2    1    2    0    0  0.00000000000E+00  0.00000000000E+00  0.78549487842E+02  0.14763054512E+03  0.12499902325E+03 0.  0.
    9000005    1    3    3    0    0 -0.54360614085E+01  0.51905922086E+02 -0.13200702729E+01  0.52216071249E+02  0.10000000000E+01 0.  0.
    9000005    1    3    3    0    0  0.54360614085E+01 -0.51905922086E+02  0.79869558114E+02  0.95414473874E+02  0.10000000000E+01 0.  0.
<mgrwt>
<rscale>  0 0.12499902E+03</rscale>
<asrwt>0</asrwt>
<pdfrwt beam="1">  1        4 0.17398464E-01 0.12499902E+03</pdfrwt>
<pdfrwt beam="2">  1       -4 0.53139274E-02 0.12499902E+03</pdfrwt>
<totfact> 0.99780321E+03</totfact>
</mgrwt>
</event>
<event>
 5    1  0.3269032E-002  0.1250002E+03  0.7818608E-02  0.1235069E+00
         -4   -1    0    0    0  501 -0.00000000000E+00  0.00000000000E+00  0.61011458383E+03  0.61011590563E+03  0.12700000000E+01 0. -1.
          4   -1    0    0  501    0  0.00000000000E+00 -0.00000000000E+00 -0.63381892112E+01  0.64641737660E+01  0.12700000000E+01 0. -1.
         25    2    1    2    0    0  0.00000000000E+00  0.00000000000E+00  0.60377639461E+03  0.61658007939E+03  0.12500023843E+03 0.  0.
    9000005    1    3    3    0    0 -0.44503729330E+02 -0.32747932041E+02  0.15788780924E+03  0.16727991298E+03  0.10000000000E+01 0.  0.
    9000005    1    3    3    0    0  0.44503729330E+02  0.32747932041E+02  0.44588858537E+03  0.44930016641E+03  0.10000000000E+01 0.  0.
<mgrwt>
<rscale>  0 0.12500024E+03</rscale>
<asrwt>0</asrwt>
<pdfrwt beam="2">  1        4 0.98489867E-03 0.12500024E+03</pdfrwt>
<pdfrwt beam="1">  1       -4 0.93873591E-01 0.12500024E+03</pdfrwt>
<totfact> 0.47837222E+03</totfact>
</mgrwt>
</event>
<event>
 5    1  0.3269032E-002  0.1250007E+03  0.7818608E-02  0.1235068E+00
         -4   -1    0    0    0  501 -0.00000000000E+00  0.00000000000E+00  0.23508624948E+03  0.23508967990E+03  0.12700000000E+01 0. -1.
          4   -1    0    0  501    0  0.00000000000E+00 -0.00000000000E+00 -0.16588594195E+02  0.16637137895E+02  0.12700000000E+01 0. -1.
         25    2    1    2    0    0  0.00000000000E+00  0.00000000000E+00  0.21849765529E+03  0.25172681780E+03  0.12500066172E+03 0.  0.
    9000005    1    3    3    0    0  0.44829223615E+02 -0.14735348832E+02  0.19175340590E+03  0.19747698212E+03  0.10000000000E+01 0.  0.
    9000005    1    3    3    0    0 -0.44829223615E+02  0.14735348832E+02  0.26744249392E+02  0.54249835674E+02  0.10000000000E+01 0.  0.
<mgrwt>
<rscale>  0 0.12500066E+03</rscale>
<asrwt>0</asrwt>
<pdfrwt beam="2">  1        4 0.25560895E-02 0.12500066E+03</pdfrwt>
<pdfrwt beam="1">  1       -4 0.36171113E-01 0.12500066E+03</pdfrwt>
<totfact> 0.82080078E+03</totfact>
</mgrwt>
</event>
<event>
 5    1  0.3269032E-002  0.1250020E+03  0.7818608E-02  0.1235066E+00
          4   -1    0    0  501    0  0.00000000000E+00  0.00000000000E+00  0.10196845387E+03  0.10197636238E+03  0.12700000000E+01 0.  1.
         -4   -1    0    0    0  501 -0.00000000000E+00 -0.00000000000E+00 -0.38289744815E+02  0.38310800801E+02  0.12700000000E+01 0.  1.
         25    2    1    2    0    0  0.00000000000E+00  0.00000000000E+00  0.63678709054E+02  0.14028716318E+03  0.12500204065E+03 0.  0.
    9000005    1    3    3    0    0 -0.22163095084E+02  0.48070742255E+01  0.97192877305E+02  0.99808647647E+02  0.10000000000E+01 0.  0.
    9000005    1    3    3    0    0  0.22163095084E+02 -0.48070742255E+01 -0.33514168251E+02  0.40478515534E+02  0.10000000000E+01 0.  0.
<mgrwt>
<rscale>  0 0.12500204E+03</rscale>
<asrwt>0</asrwt>
<pdfrwt beam="1">  1        4 0.15689682E-01 0.12500204E+03</pdfrwt>
<pdfrwt beam="2">  1       -4 0.58929581E-02 0.12500204E+03</pdfrwt>
<totfact> 0.10127172E+04</totfact>
</mgrwt>
</event>
<event>
 5    1  0.3269032E-002  0.1250017E+03  0.7818608E-02  0.1235067E+00
         -4   -1    0    0    0  501 -0.00000000000E+00  0.00000000000E+00  0.13069790407E+04  0.13069796577E+04  0.12700000000E+01 0. -1.
          4   -1    0    0  501    0  0.00000000000E+00 -0.00000000000E+00 -0.28532874950E+01  0.31231633850E+01  0.12700000000E+01 0. -1.
         25    2    1    2    0    0  0.00000000000E+00  0.00000000000E+00  0.13041257532E+04  0.13101028211E+04  0.12500168691E+03 0.  0.
    9000005    1    3    3    0    0  0.54610005883E+02 -0.25107442905E+02  0.47274856018E+03  0.47655517790E+03  0.10000000000E+01 0.  0.
    9000005    1    3    3    0    0 -0.54610005883E+02  0.25107442905E+02  0.83137719304E+03  0.83354764323E+03  0.10000000000E+01 0.  0.
<mgrwt>
<rscale>  0 0.12500169E+03</rscale>
<asrwt>0</asrwt>
<pdfrwt beam="2">  1        4 0.45977471E-03 0.12500169E+03</pdfrwt>
<pdfrwt beam="1">  1       -4 0.20109439E+00 0.12500169E+03</pdfrwt>
<totfact> 0.21990528E+03</totfact>
</mgrwt>
</event>
<event>
 5    1  0.3269032E-002  0.1250118E+03  0.7818608E-02  0.1235051E+00
         -4   -1    0    0    0  501 -0.00000000000E+00  0.00000000000E+00  0.12768931022E+03  0.12769562578E+03  0.12700000000E+01 0. -1.
          4   -1    0    0  501    0  0.00000000000E+00 -0.00000000000E+00 -0.30577359162E+02  0.30603721887E+02  0.12700000000E+01 0. -1.
         25    2    1    2    0    0  0.00000000000E+00  0.00000000000E+00  0.97111951055E+02  0.15829934767E+03  0.12501180918E+03 0.  0.
    9000005    1    3    3    0    0  0.19524213791E+02 -0.13472587673E+02  0.12177343014E+03  0.12406640895E+03  0.10000000000E+01 0.  0.
    9000005    1    3    3    0    0 -0.19524213791E+02  0.13472587673E+02 -0.24661479082E+02  0.34232938718E+02  0.10000000000E+01 0.  0.
<mgrwt>
<rscale>  0 0.12501181E+03</rscale>
<asrwt>0</asrwt>
<pdfrwt beam="2">  1        4 0.47067228E-02 0.12501181E+03</pdfrwt>
<pdfrwt beam="1">  1       -4 0.19647023E-01 0.12501181E+03</pdfrwt>
<totfact> 0.97645736E+03</totfact>
</mgrwt>
</event>
<event>
 5    1  0.3269032E-002  0.1249749E+03  0.7818608E-02  0.1235109E+00
          4   -1    0    0  501    0  0.00000000000E+00  0.00000000000E+00  0.67318506025E+02  0.67330484578E+02  0.12700000000E+01 0. -1.
         -4   -1    0    0    0  501 -0.00000000000E+00 -0.00000000000E+00 -0.57978980000E+02  0.57992887684E+02  0.12700000000E+01 0. -1.
         25    2    1    2    0    0  0.00000000000E+00  0.00000000000E+00  0.93395260249E+01  0.12532337226E+03  0.12497488103E+03 0.  0.
    9000005    1    3    3    0    0  0.38950231938E+01  0.29318076194E+02 -0.50519687287E+02  0.58548779671E+02  0.10000000000E+01 0.  0.
    9000005    1    3    3    0    0 -0.38950231938E+01 -0.29318076194E+02  0.59859213312E+02  0.66774592591E+02  0.10000000000E+01 0.  0.
<mgrwt>
<rscale>  0 0.12497488E+03</rscale>
<asrwt>0</asrwt>
<pdfrwt beam="1">  1        4 0.10358684E-01 0.12497488E+03</pdfrwt>
<pdfrwt beam="2">  1       -4 0.89218343E-02 0.12497488E+03</pdfrwt>
<totfact> 0.10451775E+04</totfact>
</mgrwt>
</event>
<event>
 5    1  0.3269032E-002  0.1249973E+03  0.7818608E-02  0.1235074E+00
          4   -1    0    0  501    0  0.00000000000E+00  0.00000000000E+00  0.80406072500E+01  0.81402865398E+01  0.12700000000E+01 0. -1.
         -4   -1    0    0    0  501 -0.00000000000E+00 -0.00000000000E+00 -0.48270114960E+03  0.48270282030E+03  0.12700000000E+01 0. -1.
         25    2    1    2    0    0  0.00000000000E+00  0.00000000000E+00 -0.47466054235E+03  0.49084310684E+03  0.12499730024E+03 0.  0.
    9000005    1    3    3    0    0  0.51121052343E+02 -0.35862312678E+02 -0.22802625035E+03  0.23642427607E+03  0.10000000000E+01 0.  0.
    9000005    1    3    3    0    0 -0.51121052343E+02  0.35862312678E+02 -0.24663429200E+03  0.25441883077E+03  0.10000000000E+01 0.  0.
<mgrwt>
<rscale>  0 0.12499730E+03</rscale>
<asrwt>0</asrwt>
<pdfrwt beam="1">  1        4 0.12448130E-02 0.12499730E+03</pdfrwt>
<pdfrwt beam="2">  1       -4 0.74269489E-01 0.12499730E+03</pdfrwt>
<totfact> 0.56585264E+03</totfact>
</mgrwt>
</event>
<event>
 5    1  0.3269032E-002  0.1250002E+03  0.7818608E-02  0.1235069E+00
          4   -1    0    0  501    0  0.00000000000E+00  0.00000000000E+00  0.32989669191E+01  0.35349798773E+01  0.12700000000E+01 0. -1.
         -4   -1    0    0    0  501 -0.00000000000E+00 -0.00000000000E+00 -0.11429567645E+04  0.11429574701E+04  0.12700000000E+01 0. -1.
         25    2    1    2    0    0  0.00000000000E+00  0.00000000000E+00 -0.11396577976E+04  0.11464924500E+04  0.12500016891E+03 0.  0.
    9000005    1    3    3    0    0  0.12247040466E+02  0.61075679616E+02 -0.52393999897E+03  0.52763088534E+03  0.10000000000E+01 0.  0.
    9000005    1    3    3    0    0 -0.12247040466E+02 -0.61075679616E+02 -0.61571779860E+03  0.61886156462E+03  0.10000000000E+01 0.  0.
<mgrwt>
<rscale>  0 0.12500017E+03</rscale>
<asrwt>0</asrwt>
<pdfrwt beam="1">  1        4 0.52574340E-03 0.12500017E+03</pdfrwt>
<pdfrwt beam="2">  1       -4 0.17585741E+00 0.12500017E+03</pdfrwt>
<totfact> 0.26157712E+03</totfact>
</mgrwt>
</event>
<event>
 5    1  0.3269032E-002  0.1249878E+03  0.7818608E-02  0.1235088E+00
          4   -1    0    0  501    0  0.00000000000E+00  0.00000000000E+00  0.11587478305E+03  0.11588174251E+03  0.12700000000E+01 0.  1.
         -4   -1    0    0    0  501 -0.00000000000E+00 -0.00000000000E+00 -0.33684431597E+02  0.33708364423E+02  0.12700000000E+01 0.  1.
         25    2    1    2    0    0  0.00000000000E+00  0.00000000000E+00  0.82190351450E+02  0.14959010693E+03  0.12498778428E+03 0.  0.
    9000005    1    3    3    0    0 -0.45644905031E+02 -0.20131225358E+02 -0.39377929076E+01  0.50052270705E+02  0.10000000000E+01 0.  0.
    9000005    1    3    3    0    0  0.45644905031E+02  0.20131225358E+02  0.86128144358E+02  0.99537836224E+02  0.10000000000E+01 0.  0.
<mgrwt>
<rscale>  0 0.12498778E+03</rscale>
<asrwt>0</asrwt>
<pdfrwt beam="1">  1        4 0.17829266E-01 0.12498778E+03</pdfrwt>
<pdfrwt beam="2">  1       -4 0.51845966E-02 0.12498778E+03</pdfrwt>
<totfact> 0.99412796E+03</totfact>
</mgrwt>
</event>
<event>
 5    1  0.3269032E-002  0.1249909E+03  0.7818608E-02  0.1235084E+00
         -4   -1    0    0    0  501 -0.00000000000E+00  0.00000000000E+00  0.24601267987E+02  0.24634027006E+02  0.12700000000E+01 0.  1.
          4   -1    0    0  501    0  0.00000000000E+00 -0.00000000000E+00 -0.15861829045E+03  0.15862337458E+03  0.12700000000E+01 0.  1.
         25    2    1    2    0    0  0.00000000000E+00  0.00000000000E+00 -0.13401702246E+03  0.18325740159E+03  0.12499085138E+03 0.  0.
    9000005    1    3    3    0    0  0.20297158605E+02 -0.51205680009E+02 -0.23745866904E+02  0.59990520149E+02  0.10000000000E+01 0.  0.
    9000005    1    3    3    0    0 -0.20297158605E+02  0.51205680009E+02 -0.11027115556E+03  0.12326688144E+03  0.10000000000E+01 0.  0.
<mgrwt>
<rscale>  0 0.12499085E+03</rscale>
<asrwt>0</asrwt>
<pdfrwt beam="2">  1        4 0.24405724E-01 0.12499085E+03</pdfrwt>
<pdfrwt beam="1">  1       -4 0.37877216E-02 0.12499085E+03</pdfrwt>
<totfact> 0.93053005E+03</totfact>
</mgrwt>
</event>
<event>
 5    1  0.3269032E-002  0.1250016E+03  0.7818608E-02  0.1235067E+00
          4   -1    0    0  501    0  0.00000000000E+00  0.00000000000E+00  0.22813099164E+02  0.22848422122E+02  0.12700000000E+01 0. -1.
         -4   -1    0    0    0  501 -0.00000000000E+00 -0.00000000000E+00 -0.17106271558E+03  0.17106742987E+03  0.12700000000E+01 0. -1.
         25    2    1    2    0    0  0.00000000000E+00  0.00000000000E+00 -0.14824961642E+03  0.19391585199E+03  0.12500163553E+03 0.  0.
    9000005    1    3    3    0    0 -0.38272884908E+01  0.19391150677E+02 -0.16609370290E+03  0.16726859540E+03  0.10000000000E+01 0.  0.
    9000005    1    3    3    0    0  0.38272884908E+01 -0.19391150677E+02  0.17844086483E+02  0.26647256597E+02  0.10000000000E+01 0.  0.
<mgrwt>
<rscale>  0 0.12500164E+03</rscale>
<asrwt>0</asrwt>
<pdfrwt beam="1">  1        4 0.35127875E-02 0.12500164E+03</pdfrwt>
<pdfrwt beam="2">  1       -4 0.26320420E-01 0.12500164E+03</pdfrwt>
<totfact> 0.91167060E+03</totfact>
</mgrwt>
</event>
<event>
 5    1  0.3269032E-002  0.1250037E+03  0.7818608E-02  0.1235063E+00
          4   -1    0    0  501    0  0.00000000000E+00  0.00000000000E+00  0.92292118978E+02  0.92300856580E+02  0.12700000000E+01 0.  1.
         -4   -1    0    0    0  501 -0.00000000000E+00 -0.00000000000E+00 -0.42307090824E+02  0.42326148348E+02  0.12700000000E+01 0.  1.
         25    2    1    2    0    0  0.00000000000E+00  0.00000000000E+00  0.49985028154E+02  0.13462700493E+03  0.12500370961E+03 0.  0.
    9000005    1    3    3    0    0  0.51511039589E+01  0.44342753113E+02 -0.22108374968E+02  0.49825634661E+02  0.10000000000E+01 0.  0.
    9000005    1    3    3    0    0 -0.51511039589E+01 -0.44342753113E+02  0.72093403122E+02  0.84801370268E+02  0.10000000000E+01 0.  0.
<mgrwt>
<rscale>  0 0.12500371E+03</rscale>
<asrwt>0</asrwt>
<pdfrwt beam="1">  1        4 0.14200926E-01 0.12500371E+03</pdfrwt>
<pdfrwt beam="2">  1       -4 0.65109213E-02 0.12500371E+03</pdfrwt>
<totfact> 0.10245081E+04</totfact>
</mgrwt>
</event>
<event>
 5    1  0.3269032E-002  0.1249986E+03  0.7818608E-02  0.1235071E+00
         -4   -1    0    0    0  501 -0.00000000000E+00  0.00000000000E+00  0.14922701837E+03  0.14923242246E+03  0.12700000000E+01 0. -1.
          4   -1    0    0  501    0  0.00000000000E+00 -0.00000000000E+00 -0.26154700883E+02  0.26185516574E+02  0.12700000000E+01 0. -1.
         25    2    1    2    0    0  0.00000000000E+00  0.00000000000E+00  0.12307231749E+03  0.17541793903E+03  0.12499863200E+03 0.  0.
    9000005    1    3    3    0    0  0.18518750127E+02  0.19637495569E+02 -0.17558884724E+02  0.32216296672E+02  0.10000000000E+01 0.  0.
    9000005    1    3    3    0    0 -0.18518750127E+02 -0.19637495569E+02  0.14063120221E+03  0.14320164236E+03  0.10000000000E+01 0.  0.
<mgrwt>
<rscale>  0 0.12499863E+03</rscale>
<asrwt>0</asrwt>
<pdfrwt beam="2">  1        4 0.40265863E-02 0.12499863E+03</pdfrwt>
<pdfrwt beam="1">  1       -4 0.22960789E-01 0.12499863E+03</pdfrwt>
<totfact> 0.94451250E+03</totfact>
</mgrwt>
</event>
<event>
 5    1  0.3269032E-002  0.1249998E+03  0.7818608E-02  0.1235070E+00
         -4   -1    0    0    0  501 -0.00000000000E+00  0.00000000000E+00  0.85464719670E+01  0.86403173022E+01  0.12700000000E+01 0. -1.
          4   -1    0    0  501    0  0.00000000000E+00 -0.00000000000E+00 -0.45446812021E+03  0.45446989470E+03  0.12700000000E+01 0. -1.
         25    2    1    2    0    0  0.00000000000E+00  0.00000000000E+00 -0.44592164824E+03  0.46311021200E+03  0.12499980835E+03 0.  0.
    9000005    1    3    3    0    0  0.24090052842E+01  0.61053104708E+01  0.72841376281E+01  0.98557994799E+01  0.10000000000E+01 0.  0.
    9000005    1    3    3    0    0 -0.24090052842E+01 -0.61053104708E+01 -0.45320578587E+03  0.45325441252E+03  0.10000000000E+01 0.  0.
<mgrwt>
<rscale>  0 0.12499981E+03</rscale>
<asrwt>0</asrwt>
<pdfrwt beam="2">  1        4 0.69925509E-01 0.12499981E+03</pdfrwt>
<pdfrwt beam="1">  1       -4 0.13221976E-02 0.12499981E+03</pdfrwt>
<totfact> 0.58844905E+03</totfact>
</mgrwt>
</event>
<event>
 5    1  0.3269032E-002  0.1249965E+03  0.7818608E-02  0.1235075E+00
          4   -1    0    0  501    0  0.00000000000E+00  0.00000000000E+00  0.12692803269E+02  0.12756181044E+02  0.12700000000E+01 0.  1.
         -4   -1    0    0    0  501 -0.00000000000E+00 -0.00000000000E+00 -0.30690466527E+03  0.30690729295E+03  0.12700000000E+01 0.  1.
         25    2    1    2    0    0  0.00000000000E+00  0.00000000000E+00 -0.29421186200E+03  0.31966347399E+03  0.12499646740E+03 0.  0.
    9000005    1    3    3    0    0 -0.82852739329E+01  0.61926377231E+02 -0.15024563390E+03  0.16272145669E+03  0.10000000000E+01 0.  0.
    9000005    1    3    3    0    0  0.82852739329E+01 -0.61926377231E+02 -0.14396622810E+03  0.15694201730E+03  0.10000000000E+01 0.  0.
<mgrwt>
<rscale>  0 0.12499647E+03</rscale>
<asrwt>0</asrwt>
<pdfrwt beam="1">  1        4 0.19578165E-02 0.12499647E+03</pdfrwt>
<pdfrwt beam="2">  1       -4 0.47221174E-01 0.12499647E+03</pdfrwt>
<totfact> 0.73201903E+03</totfact>
</mgrwt>
</event>
<event>
 5    1  0.3269032E-002  0.1249991E+03  0.7818608E-02  0.1235071E+00
          4   -1    0    0  501    0  0.00000000000E+00  0.00000000000E+00  0.72008359412E+01  0.73119722546E+01  0.12700000000E+01 0.  1.
         -4   -1    0    0    0  501 -0.00000000000E+00 -0.00000000000E+00 -0.53819768168E+03  0.53819918011E+03  0.12700000000E+01 0.  1.
         25    2    1    2    0    0  0.00000000000E+00  0.00000000000E+00 -0.53099684574E+03  0.54551115236E+03  0.12499906865E+03 0.  0.
    9000005    1    3    3    0    0  0.54297940153E+02  0.30466893599E+02 -0.28887556945E+03  0.29551073168E+03  0.10000000000E+01 0.  0.
    9000005    1    3    3    0    0 -0.54297940153E+02 -0.30466893599E+02 -0.24212127629E+03  0.25000042068E+03  0.10000000000E+01 0.  0.
<mgrwt>
<rscale>  0 0.12499907E+03</rscale>
<asrwt>0</asrwt>
<pdfrwt beam="1">  1        4 0.11164855E-02 0.12499907E+03</pdfrwt>
<pdfrwt beam="2">  1       -4 0.82808276E-01 0.12499907E+03</pdfrwt>
<totfact> 0.52499530E+03</totfact>
</mgrwt>
</event>
<event>
 5    1  0.3269032E-002  0.1249975E+03  0.7818608E-02  0.1235073E+00
         -4   -1    0    0    0  501 -0.00000000000E+00  0.00000000000E+00  0.16897247213E+02  0.16944906709E+02  0.12700000000E+01 0.  1.
          4   -1    0    0  501    0  0.00000000000E+00 -0.00000000000E+00 -0.23079232384E+03  0.23079581808E+03  0.12700000000E+01 0.  1.
         25    2    1    2    0    0  0.00000000000E+00  0.00000000000E+00 -0.21389507663E+03  0.24774072479E+03  0.12499745163E+03 0.  0.
    9000005    1    3    3    0    0  0.21608918494E+02  0.19162718563E+02  0.28851461463E+01  0.29042713535E+02  0.10000000000E+01 0.  0.
    9000005    1    3    3    0    0 -0.21608918494E+02 -0.19162718563E+02 -0.21678022277E+03  0.21869801126E+03  0.10000000000E+01 0.  0.
<mgrwt>
<rscale>  0 0.12499745E+03</rscale>
<asrwt>0</asrwt>
<pdfrwt beam="2">  1        4 0.35510444E-01 0.12499745E+03</pdfrwt>
<pdfrwt beam="1">  1       -4 0.26035116E-02 0.12499745E+03</pdfrwt>
<totfact> 0.82662558E+03</totfact>
</mgrwt>
</event>
<event>
 5    1  0.3269032E-002  0.1250007E+03  0.7818608E-02  0.1235068E+00
         -4   -1    0    0    0  501 -0.00000000000E+00  0.00000000000E+00  0.12000612565E+02  0.12067626193E+02  0.12700000000E+01 0.  1.
          4   -1    0    0  501    0  0.00000000000E+00 -0.00000000000E+00 -0.32453328733E+03  0.32453577227E+03  0.12700000000E+01 0.  1.
         25    2    1    2    0    0  0.00000000000E+00  0.00000000000E+00 -0.31253267477E+03  0.33660339847E+03  0.12500070025E+03 0.  0.
    9000005    1    3    3    0    0  0.55535170571E+01  0.27988999637E+02 -0.30597962181E+03  0.30730889121E+03  0.10000000000E+01 0.  0.
    9000005    1    3    3    0    0 -0.55535170571E+01 -0.27988999637E+02 -0.65530529515E+01  0.29294507256E+02  0.10000000000E+01 0.  0.
<mgrwt>
<rscale>  0 0.12500070E+03</rscale>
<asrwt>0</asrwt>
<pdfrwt beam="2">  1        4 0.49933537E-01 0.12500070E+03</pdfrwt>
<pdfrwt beam="1">  1       -4 0.18515944E-02 0.12500070E+03</pdfrwt>
<totfact> 0.71222832E+03</totfact>
</mgrwt>
</event>
<event>
 5    1  0.3269032E-002  0.1249952E+03  0.7818608E-02  0.1235077E+00
          4   -1    0    0  501    0  0.00000000000E+00  0.00000000000E+00  0.43319145087E+01  0.45142422742E+01  0.12700000000E+01 0. -1.
         -4   -1    0    0    0  501 -0.00000000000E+00 -0.00000000000E+00 -0.88290112702E+03  0.88290204043E+03  0.12700000000E+01 0. -1.
         25    2    1    2    0    0  0.00000000000E+00  0.00000000000E+00 -0.87856921251E+03  0.88741628271E+03  0.12499519044E+03 0.  0.
    9000005    1    3    3    0    0 -0.30222684442E+02 -0.49141426825E+02 -0.60977252096E+03  0.61249638187E+03  0.10000000000E+01 0.  0.
    9000005    1    3    3    0    0  0.30222684442E+02  0.49141426825E+02 -0.26879669155E+03  0.27491990083E+03  0.10000000000E+01 0.  0.
<mgrwt>
<rscale>  0 0.12499519E+03</rscale>
<asrwt>0</asrwt>
<pdfrwt beam="1">  1        4 0.68054456E-03 0.12499519E+03</pdfrwt>
<pdfrwt beam="2">  1       -4 0.13584490E+00 0.12499519E+03</pdfrwt>
<totfact> 0.34646821E+03</totfact>
</mgrwt>
</event>
<event>
 5    1  0.3269032E-002  0.1250033E+03  0.7818608E-02  0.1235064E+00
         -4   -1    0    0    0  501 -0.00000000000E+00  0.00000000000E+00  0.24342132779E+02  0.24375240065E+02  0.12700000000E+01 0. -1.
          4   -1    0    0  501    0  0.00000000000E+00 -0.00000000000E+00 -0.16033655136E+03  0.16034158101E+03  0.12700000000E+01 0. -1.
         25    2    1    2    0    0  0.00000000000E+00  0.00000000000E+00 -0.13599441858E+03  0.18471682108E+03  0.12500328837E+03 0.  0.
    9000005    1    3    3    0    0 -0.58741141374E+02 -0.11149100221E+02 -0.41127865735E+02  0.72576342327E+02  0.10000000000E+01 0.  0.
    9000005    1    3    3    0    0  0.58741141374E+02  0.11149100221E+02 -0.94866552845E+02  0.11214047875E+03  0.10000000000E+01 0.  0.
<mgrwt>
<rscale>  0 0.12500329E+03</rscale>
<asrwt>0</asrwt>
<pdfrwt beam="2">  1        4 0.24670095E-01 0.12500329E+03</pdfrwt>
<pdfrwt beam="1">  1       -4 0.37478772E-02 0.12500329E+03</pdfrwt>
<totfact> 0.92767948E+03</totfact>
</mgrwt>
</event>
<event>
 5    1  0.3269032E-002  0.1250009E+03  0.7818608E-02  0.1235068E+00
         -4   -1    0    0    0  501 -0.00000000000E+00  0.00000000000E+00  0.22903060313E+02  0.22938244738E+02  0.12700000000E+01 0. -1.
          4   -1    0    0  501    0  0.00000000000E+00 -0.00000000000E+00 -0.17038970131E+03  0.17039443422E+03  0.12700000000E+01 0. -1.
         25    2    1    2    0    0  0.00000000000E+00  0.00000000000E+00 -0.14748664100E+03  0.19333267895E+03  0.12500086192E+03 0.  0.
    9000005    1    3    3    0    0  0.51012692862E+01  0.62087952309E+02 -0.66108581747E+02  0.90842068178E+02  0.10000000000E+01 0.  0.
    9000005    1    3    3    0    0 -0.51012692862E+01 -0.62087952309E+02 -0.81378059248E+02  0.10249061078E+03  0.10000000000E+01 0.  0.
<mgrwt>
<rscale>  0 0.12500086E+03</rscale>
<asrwt>0</asrwt>
<pdfrwt beam="2">  1        4 0.26216870E-01 0.12500086E+03</pdfrwt>
<pdfrwt beam="1">  1       -4 0.35266184E-02 0.12500086E+03</pdfrwt>
<totfact> 0.91268890E+03</totfact>
</mgrwt>
</event>
<event>
 5    1  0.3269032E-002  0.1249973E+03  0.7818608E-02  0.1235074E+00
         -4   -1    0    0    0  501 -0.00000000000E+00  0.00000000000E+00  0.75381977846E+02  0.75392675268E+02  0.12700000000E+01 0.  1.
          4   -1    0    0  501    0  0.00000000000E+00 -0.00000000000E+00 -0.51794989790E+02  0.51810557489E+02  0.12700000000E+01 0.  1.
         25    2    1    2    0    0  0.00000000000E+00  0.00000000000E+00  0.23586988056E+02  0.12720323276E+03  0.12499726564E+03 0.  0.
    9000005    1    3    3    0    0  0.58837794245E+01 -0.51530793268E+02  0.47266050829E+02  0.70179206865E+02  0.10000000000E+01 0.  0.
    9000005    1    3    3    0    0 -0.58837794245E+01  0.51530793268E+02 -0.23679062773E+02  0.57024025892E+02  0.10000000000E+01 0.  0.
<mgrwt>
<rscale>  0 0.12499727E+03</rscale>
<asrwt>0</asrwt>
<pdfrwt beam="2">  1        4 0.79704803E-02 0.12499727E+03</pdfrwt>
<pdfrwt beam="1">  1       -4 0.11599248E-01 0.12499727E+03</pdfrwt>
<totfact> 0.10405376E+04</totfact>
</mgrwt>
</event>
<event>
 5    1  0.3269032E-002  0.1250015E+03  0.7818608E-02  0.1235067E+00
         -4   -1    0    0    0  501 -0.00000000000E+00  0.00000000000E+00  0.99088366996E+02  0.99096505356E+02  0.12700000000E+01 0.  1.
          4   -1    0    0  501    0  0.00000000000E+00 -0.00000000000E+00 -0.39402824922E+02  0.39423286416E+02  0.12700000000E+01 0.  1.
         25    2    1    2    0    0  0.00000000000E+00  0.00000000000E+00  0.59685542074E+02  0.13851979177E+03  0.12500147511E+03 0.  0.
    9000005    1    3    3    0    0 -0.74609028711E+01 -0.10150738795E+02 -0.37986578603E+02  0.40033520002E+02  0.10000000000E+01 0.  0.
    9000005    1    3    3    0    0  0.74609028711E+01  0.10150738795E+02  0.97672120677E+02  0.98486271771E+02  0.10000000000E+01 0.  0.
<mgrwt>
<rscale>  0 0.12500148E+03</rscale>
<asrwt>0</asrwt>
<pdfrwt beam="2">  1        4 0.60641731E-02 0.12500148E+03</pdfrwt>
<pdfrwt beam="1">  1       -4 0.15246564E-01 0.12500148E+03</pdfrwt>
<totfact> 0.10164018E+04</totfact>
</mgrwt>
</event>
<event>
 5    1  0.3269032E-002  0.1249996E+03  0.7818608E-02  0.1235070E+00
         -4   -1    0    0    0  501 -0.00000000000E+00  0.00000000000E+00  0.34245153864E+02  0.34268695090E+02  0.12700000000E+01 0. -1.
          4   -1    0    0  501    0  0.00000000000E+00 -0.00000000000E+00 -0.11400028407E+03  0.11400735795E+03  0.12700000000E+01 0. -1.
         25    2    1    2    0    0  0.00000000000E+00  0.00000000000E+00 -0.79755130202E+02  0.14827605304E+03  0.12499962845E+03 0.  0.
    9000005    1    3    3    0    0 -0.17427372138E+02 -0.70887834911E+01  0.30811736414E+02  0.36115471087E+02  0.10000000000E+01 0.  0.
    9000005    1    3    3    0    0  0.17427372138E+02  0.70887834911E+01 -0.11056686662E+03  0.11216058195E+03  0.10000000000E+01 0.  0.
<mgrwt>
<rscale>  0 0.12499963E+03</rscale>
<asrwt>0</asrwt>
<pdfrwt beam="2">  1        4 0.17540860E-01 0.12499963E+03</pdfrwt>
<pdfrwt beam="1">  1       -4 0.52708403E-02 0.12499963E+03</pdfrwt>
<totfact> 0.99649290E+03</totfact>
</mgrwt>
</event>
<event>
 5    1  0.3269032E-002  0.1250012E+03  0.7818608E-02  0.1235067E+00
          4   -1    0    0  501    0  0.00000000000E+00  0.00000000000E+00  0.18117019169E+02  0.18161478011E+02  0.12700000000E+01 0. -1.
         -4   -1    0    0    0  501 -0.00000000000E+00 -0.00000000000E+00 -0.21530576999E+03  0.21530951556E+03  0.12700000000E+01 0. -1.
         25    2    1    2    0    0  0.00000000000E+00  0.00000000000E+00 -0.19718875082E+03  0.23347099357E+03  0.12500120555E+03 0.  0.
    9000005    1    3    3    0    0 -0.80638406311E+01  0.33014386308E+02 -0.19654624313E+03  0.19946528750E+03  0.10000000000E+01 0.  0.
    9000005    1    3    3    0    0  0.80638406311E+01 -0.33014386308E+02 -0.64250768664E+00  0.34005706067E+02  0.10000000000E+01 0.  0.
<mgrwt>
<rscale>  0 0.12500121E+03</rscale>
<asrwt>0</asrwt>
<pdfrwt beam="1">  1        4 0.27909419E-02 0.12500121E+03</pdfrwt>
<pdfrwt beam="2">  1       -4 0.33127671E-01 0.12500121E+03</pdfrwt>
<totfact> 0.84777178E+03</totfact>
</mgrwt>
</event>
<event>
 5    1  0.3269032E-002  0.1249974E+03  0.7818608E-02  0.1235073E+00
         -4   -1    0    0    0  501 -0.00000000000E+00  0.00000000000E+00  0.21264050079E+04  0.21264053872E+04  0.12700000000E+01 0. -1.
          4   -1    0    0  501    0  0.00000000000E+00 -0.00000000000E+00 -0.16170116119E+01  0.20561192944E+01  0.12700000000E+01 0. -1.
         25    2    1    2    0    0  0.00000000000E+00  0.00000000000E+00  0.21247879963E+04  0.21284615065E+04  0.12499742104E+03 0.  0.
    9000005    1    3    3    0    0  0.40935548245E+02 -0.42838445458E+02  0.72429521934E+03  0.72671549886E+03  0.10000000000E+01 0.  0.
    9000005    1    3    3    0    0 -0.40935548245E+02  0.42838445458E+02  0.14004927770E+04  0.14017460076E+04  0.10000000000E+01 0.  0.
<mgrwt>
<rscale>  0 0.12499742E+03</rscale>
<asrwt>0</asrwt>
<pdfrwt beam="2">  1        4 0.28257784E-03 0.12499742E+03</pdfrwt>
<pdfrwt beam="1">  1       -4 0.32717288E+00 0.12499742E+03</pdfrwt>
<totfact> 0.82768141E+02</totfact>
</mgrwt>
</event>
<event>
 5    1  0.3269032E-002  0.1250052E+03  0.7818608E-02  0.1235061E+00
         -4   -1    0    0    0  501 -0.00000000000E+00  0.00000000000E+00  0.60245462081E+01  0.61569519255E+01  0.12700000000E+01 0. -1.
          4   -1    0    0  501    0  0.00000000000E+00 -0.00000000000E+00 -0.64126216559E+03  0.64126342319E+03  0.12700000000E+01 0. -1.
         25    2    1    2    0    0  0.00000000000E+00  0.00000000000E+00 -0.63523761938E+03  0.64742037511E+03  0.12500523602E+03 0.  0.
    9000005    1    3    3    0    0  0.25864598297E+02 -0.48597082456E+02 -0.47081330920E+03  0.47402196783E+03  0.10000000000E+01 0.  0.
    9000005    1    3    3    0    0 -0.25864598297E+02  0.48597082456E+02 -0.16442431018E+03  0.17339840728E+03  0.10000000000E+01 0.  0.
<mgrwt>
<rscale>  0 0.12500524E+03</rscale>
<asrwt>0</asrwt>
<pdfrwt beam="2">  1        4 0.98665946E-01 0.12500524E+03</pdfrwt>
<pdfrwt beam="1">  1       -4 0.93713556E-03 0.12500524E+03</pdfrwt>
<totfact> 0.45999474E+03</totfact>
</mgrwt>
</event>
<event>
 5    1  0.3269032E-002  0.1249996E+03  0.7818608E-02  0.1235070E+00
         -4   -1    0    0    0  501 -0.00000000000E+00  0.00000000000E+00  0.72358789159E+02  0.72369933457E+02  0.12700000000E+01 0. -1.
          4   -1    0    0  501    0  0.00000000000E+00 -0.00000000000E+00 -0.53961369153E+02  0.53976312034E+02  0.12700000000E+01 0. -1.
         25    2    1    2    0    0  0.00000000000E+00  0.00000000000E+00  0.18397420006E+02  0.12634624549E+03  0.12499963475E+03 0.  0.
    9000005    1    3    3    0    0 -0.22726476928E+01  0.33634672964E+02  0.62384684035E+02  0.70917592705E+02  0.10000000000E+01 0.  0.
    9000005    1    3    3    0    0  0.22726476928E+01 -0.33634672964E+02 -0.43987264029E+02  0.55428652786E+02  0.10000000000E+01 0.  0.
<mgrwt>
<rscale>  0 0.12499963E+03</rscale>
<asrwt>0</asrwt>
<pdfrwt beam="2">  1        4 0.83037558E-02 0.12499963E+03</pdfrwt>
<pdfrwt beam="1">  1       -4 0.11134128E-01 0.12499963E+03</pdfrwt>
<totfact> 0.10423469E+04</totfact>
</mgrwt>
</event>
<event>
 5    1  0.3269032E-002  0.1249806E+03  0.7818608E-02  0.1235100E+00
          4   -1    0    0  501    0  0.00000000000E+00  0.00000000000E+00  0.20548052058E+03  0.20548444524E+03  0.12700000000E+01 0. -1.
         -4   -1    0    0    0  501 -0.00000000000E+00 -0.00000000000E+00 -0.18979080489E+02  0.19021524550E+02  0.12700000000E+01 0. -1.
         25    2    1    2    0    0  0.00000000000E+00  0.00000000000E+00  0.18650144009E+03  0.22450596979E+03  0.12498057176E+03 0.  0.
    9000005    1    3    3    0    0  0.93252546293E+01 -0.57328763957E+02  0.51877122762E+02  0.77883139490E+02  0.10000000000E+01 0.  0.
    9000005    1    3    3    0    0 -0.93252546293E+01  0.57328763957E+02  0.13462431733E+03  0.14662283030E+03  0.10000000000E+01 0.  0.
<mgrwt>
<rscale>  0 0.12498057E+03</rscale>
<asrwt>0</asrwt>
<pdfrwt beam="1">  1        4 0.31615956E-01 0.12498057E+03</pdfrwt>
<pdfrwt beam="2">  1       -4 0.29234252E-02 0.12498057E+03</pdfrwt>
<totfact> 0.86197707E+03</totfact>
</mgrwt>
</event>
<event>
 5    1  0.3269032E-002  0.1249944E+03  0.7818608E-02  0.1235078E+00
         -4   -1    0    0    0  501 -0.00000000000E+00  0.00000000000E+00  0.14068219494E+03  0.14068792725E+03  0.12700000000E+01 0.  1.
          4   -1    0    0  501    0  0.00000000000E+00 -0.00000000000E+00 -0.27743162992E+02  0.27772216203E+02  0.12700000000E+01 0.  1.
         25    2    1    2    0    0  0.00000000000E+00  0.00000000000E+00  0.11293903195E+03  0.16846014345E+03  0.12499437985E+03 0.  0.
    9000005    1    3    3    0    0 -0.34634415928E+02 -0.52012915376E+02  0.56318137202E+02  0.84128584384E+02  0.10000000000E+01 0.  0.
    9000005    1    3    3    0    0  0.34634415928E+02  0.52012915376E+02  0.56620894746E+02  0.84331559065E+02  0.10000000000E+01 0.  0.
<mgrwt>
<rscale>  0 0.12499438E+03</rscale>
<asrwt>0</asrwt>
<pdfrwt beam="2">  1        4 0.42708547E-02 0.12499438E+03</pdfrwt>
<pdfrwt beam="1">  1       -4 0.21646091E-01 0.12499438E+03</pdfrwt>
<totfact> 0.95748163E+03</totfact>
</mgrwt>
</event>
<event>
 5    1  0.3269032E-002  0.1249983E+03  0.7818608E-02  0.1235072E+00
          4   -1    0    0  501    0  0.00000000000E+00  0.00000000000E+00  0.11073935434E+02  0.11146521699E+02  0.12700000000E+01 0. -1.
         -4   -1    0    0    0  501 -0.00000000000E+00 -0.00000000000E+00 -0.35150735717E+03  0.35150965142E+03  0.12700000000E+01 0. -1.
         25    2    1    2    0    0  0.00000000000E+00  0.00000000000E+00 -0.34043342173E+03  0.36265617312E+03  0.12499834107E+03 0.  0.
    9000005    1    3    3    0    0  0.30981879494E+02  0.31910353560E+02 -0.29757626994E+03  0.30088333944E+03  0.10000000000E+01 0.  0.
    9000005    1    3    3    0    0 -0.30981879494E+02 -0.31910353560E+02 -0.42857151798E+02  0.61772833686E+02  0.10000000000E+01 0.  0.
<mgrwt>
<rscale>  0 0.12499834E+03</rscale>
<asrwt>0</asrwt>
<pdfrwt beam="1">  1        4 0.17094427E-02 0.12499834E+03</pdfrwt>
<pdfrwt beam="2">  1       -4 0.54083807E-01 0.12499834E+03</pdfrwt>
<totfact> 0.68356813E+03</totfact>
</mgrwt>
</event>
<event>
 5    1  0.3269032E-002  0.1249936E+03  0.7818608E-02  0.1235079E+00
          4   -1    0    0  501    0  0.00000000000E+00  0.00000000000E+00  0.91539553338E+02  0.91548362767E+02  0.12700000000E+01 0.  1.
         -4   -1    0    0    0  501 -0.00000000000E+00 -0.00000000000E+00 -0.42648136811E+02  0.42667042005E+02  0.12700000000E+01 0.  1.
         25    2    1    2    0    0  0.00000000000E+00  0.00000000000E+00  0.48891416527E+02  0.13421540477E+03  0.12499361691E+03 0.  0.
    9000005    1    3    3    0    0 -0.48703947218E+02 -0.23817885396E+02  0.57810412498E+02  0.79261654869E+02  0.10000000000E+01 0.  0.
    9000005    1    3    3    0    0  0.48703947218E+02  0.23817885396E+02 -0.89189959709E+01  0.54953749903E+02  0.10000000000E+01 0.  0.
<mgrwt>
<rscale>  0 0.12499362E+03</rscale>
<asrwt>0</asrwt>
<pdfrwt beam="1">  1        4 0.14085140E-01 0.12499362E+03</pdfrwt>
<pdfrwt beam="2">  1       -4 0.65633838E-02 0.12499362E+03</pdfrwt>
<totfact> 0.10256111E+04</totfact>
</mgrwt>
</event>
<event>
 5    1  0.3269032E-002  0.1249993E+03  0.7818608E-02  0.1235070E+00
         -4   -1    0    0    0  501 -0.00000000000E+00  0.00000000000E+00  0.95708868279E+02  0.95717293982E+02  0.12700000000E+01 0. -1.
          4   -1    0    0  501    0  0.00000000000E+00 -0.00000000000E+00 -0.40793318757E+02  0.40813083138E+02  0.12700000000E+01 0. -1.
         25    2    1    2    0    0  0.00000000000E+00  0.00000000000E+00  0.54915549522E+02  0.13653037712E+03  0.12499930519E+03 0.  0.
    9000005    1    3    3    0    0 -0.12447786142E+02  0.61237946327E+02  0.27003309702E+02  0.68082392621E+02  0.10000000000E+01 0.  0.
    9000005    1    3    3    0    0  0.12447786142E+02 -0.61237946327E+02  0.27912239820E+02  0.68447984499E+02  0.10000000000E+01 0.  0.
<mgrwt>
<rscale>  0 0.12499931E+03</rscale>
<asrwt>0</asrwt>
<pdfrwt beam="2">  1        4 0.62780637E-02 0.12499931E+03</pdfrwt>
<pdfrwt beam="1">  1       -4 0.14726610E-01 0.12499931E+03</pdfrwt>
<totfact> 0.10206074E+04</totfact>
</mgrwt>
</event>
<event>
 5    1  0.3269032E-002  0.1250178E+03  0.7818608E-02  0.1235041E+00
         -4   -1    0    0    0  501 -0.00000000000E+00  0.00000000000E+00  0.36920840942E+01  0.39044058394E+01  0.12700000000E+01 0. -1.
          4   -1    0    0  501    0  0.00000000000E+00 -0.00000000000E+00 -0.10285162891E+04  0.10285170732E+04  0.12700000000E+01 0. -1.
         25    2    1    2    0    0  0.00000000000E+00  0.00000000000E+00 -0.10248242050E+04  0.10324214790E+04  0.12501783551E+03 0.  0.
    9000005    1    3    3    0    0  0.92345149652E+01 -0.53662952866E+02 -0.25903543386E+03  0.26469859231E+03  0.10000000000E+01 0.  0.
    9000005    1    3    3    0    0 -0.92345149652E+01  0.53662952866E+02 -0.76578877112E+03  0.76772288669E+03  0.10000000000E+01 0.  0.
<mgrwt>
<rscale>  0 0.12501784E+03</rscale>
<asrwt>0</asrwt>
<pdfrwt beam="2">  1        4 0.15824945E+00 0.12501784E+03</pdfrwt>
<pdfrwt beam="1">  1       -4 0.58440651E-03 0.12501784E+03</pdfrwt>
<totfact> 0.29538599E+03</totfact>
</mgrwt>
</event>
<event>
 5    1  0.3269032E-002  0.1250221E+03  0.7818608E-02  0.1235035E+00
         -4   -1    0    0    0  501 -0.00000000000E+00  0.00000000000E+00  0.18226852381E+02  0.18271043969E+02  0.12700000000E+01 0.  1.
          4   -1    0    0  501    0  0.00000000000E+00 -0.00000000000E+00 -0.21408320384E+03  0.21408697080E+03  0.12700000000E+01 0.  1.
         25    2    1    2    0    0  0.00000000000E+00  0.00000000000E+00 -0.19585635145E+03  0.23235801476E+03  0.12502214452E+03 0.  0.
    9000005    1    3    3    0    0 -0.44567254899E+02  0.27403522309E+02 -0.34371693059E+02  0.62606761040E+02  0.10000000000E+01 0.  0.
    9000005    1    3    3    0    0  0.44567254899E+02 -0.27403522309E+02 -0.16148465839E+03  0.16975125372E+03  0.10000000000E+01 0.  0.
<mgrwt>
<rscale>  0 0.12502214E+03</rscale>
<asrwt>0</asrwt>
<pdfrwt beam="2">  1        4 0.32939565E-01 0.12502214E+03</pdfrwt>
<pdfrwt beam="1">  1       -4 0.28078204E-02 0.12502214E+03</pdfrwt>
<totfact> 0.84906883E+03</totfact>
</mgrwt>
</event>
<event>
 5    1  0.3269032E-002  0.1249992E+03  0.7818608E-02  0.1235070E+00
          4   -1    0    0  501    0  0.00000000000E+00  0.00000000000E+00  0.23715847916E+03  0.23716187961E+03  0.12700000000E+01 0. -1.
         -4   -1    0    0    0  501 -0.00000000000E+00 -0.00000000000E+00 -0.16442843493E+02  0.16491816217E+02  0.12700000000E+01 0. -1.
         25    2    1    2    0    0  0.00000000000E+00  0.00000000000E+00  0.22071563567E+03  0.25365369582E+03  0.12499922230E+03 0.  0.
    9000005    1    3    3    0    0 -0.44385148284E+02 -0.22404864938E+02  0.33536003294E+02  0.59980687542E+02  0.10000000000E+01 0.  0.
    9000005    1    3    3    0    0  0.44385148284E+02  0.22404864938E+02  0.18717963237E+03  0.19367300828E+03  0.10000000000E+01 0.  0.
<mgrwt>
<rscale>  0 0.12499922E+03</rscale>
<asrwt>0</asrwt>
<pdfrwt beam="1">  1        4 0.36489948E-01 0.12499922E+03</pdfrwt>
<pdfrwt beam="2">  1       -4 0.25336970E-02 0.12499922E+03</pdfrwt>
<totfact> 0.81806423E+03</totfact>
</mgrwt>
</event>
<event>
 5    1  0.3269032E-002  0.1249951E+03  0.7818608E-02  0.1235077E+00
         -4   -1    0    0    0  501 -0.00000000000E+00  0.00000000000E+00  0.66661605053E+02  0.66673701624E+02  0.12700000000E+01 0. -1.
          4   -1    0    0  501    0  0.00000000000E+00 -0.00000000000E+00 -0.58569326272E+02  0.58583093807E+02  0.12700000000E+01 0. -1.
         25    2    1    2    0    0  0.00000000000E+00  0.00000000000E+00  0.80922787813E+01  0.12525679543E+03  0.12499511921E+03 0.  0.
    9000005    1    3    3    0    0  0.55585128916E+02 -0.28011998710E+02 -0.14941171645E+01  0.62270466631E+02  0.10000000000E+01 0.  0.
    9000005    1    3    3    0    0 -0.55585128916E+02  0.28011998710E+02  0.95863959458E+01  0.62986328799E+02  0.10000000000E+01 0.  0.
<mgrwt>
<rscale>  0 0.12499512E+03</rscale>
<asrwt>0</asrwt>
<pdfrwt beam="2">  1        4 0.90126552E-02 0.12499512E+03</pdfrwt>
<pdfrwt beam="1">  1       -4 0.10257621E-01 0.12499512E+03</pdfrwt>
<totfact> 0.10448440E+04</totfact>
</mgrwt>
</event>
<event>
 5    1  0.3269032E-002  0.1250065E+03  0.7818608E-02  0.1235059E+00
          4   -1    0    0  501    0  0.00000000000E+00  0.00000000000E+00  0.99005867031E+02  0.99014012173E+02  0.12700000000E+01 0. -1.
         -4   -1    0    0    0  501 -0.00000000000E+00 -0.00000000000E+00 -0.39438874755E+02  0.39459317556E+02  0.12700000000E+01 0. -1.
         25    2    1    2    0    0  0.00000000000E+00  0.00000000000E+00  0.59566992276E+02  0.13847332973E+03  0.12500654574E+03 0.  0.
    9000005    1    3    3    0    0 -0.17693835155E+02 -0.58694470116E+02  0.16328058467E+02  0.63448547013E+02  0.10000000000E+01 0.  0.
    9000005    1    3    3    0    0  0.17693835155E+02  0.58694470116E+02  0.43238933808E+02  0.75024782716E+02  0.10000000000E+01 0.  0.
<mgrwt>
<rscale>  0 0.12500655E+03</rscale>
<asrwt>0</asrwt>
<pdfrwt beam="1">  1        4 0.15233871E-01 0.12500655E+03</pdfrwt>
<pdfrwt beam="2">  1       -4 0.60697183E-02 0.12500655E+03</pdfrwt>
<totfact> 0.10163826E+04</totfact>
</mgrwt>
</event>
<event>
 5    1  0.3269032E-002  0.1250048E+03  0.7818608E-02  0.1235062E+00
         -4   -1    0    0    0  501 -0.00000000000E+00  0.00000000000E+00  0.20362205796E+03  0.20362601845E+03  0.12700000000E+01 0.  1.
          4   -1    0    0  501    0  0.00000000000E+00 -0.00000000000E+00 -0.19160142813E+02  0.19202186663E+02  0.12700000000E+01 0.  1.
         25    2    1    2    0    0  0.00000000000E+00  0.00000000000E+00  0.18446191515E+03  0.22282820511E+03  0.12500484332E+03 0.  0.
    9000005    1    3    3    0    0  0.18602854530E+02  0.25925755365E+02 -0.35529202217E+01  0.32122176607E+02  0.10000000000E+01 0.  0.
    9000005    1    3    3    0    0 -0.18602854530E+02 -0.25925755365E+02  0.18801483537E+03  0.19070602850E+03  0.10000000000E+01 0.  0.
<mgrwt>
<rscale>  0 0.12500484E+03</rscale>
<asrwt>0</asrwt>
<pdfrwt beam="2">  1        4 0.29512531E-02 0.12500484E+03</pdfrwt>
<pdfrwt beam="1">  1       -4 0.31330009E-01 0.12500484E+03</pdfrwt>
<totfact> 0.86413446E+03</totfact>
</mgrwt>
</event>
<event>
 5    1  0.3269032E-002  0.1249954E+03  0.7818608E-02  0.1235077E+00
          4   -1    0    0  501    0  0.00000000000E+00  0.00000000000E+00  0.10735443896E+02  0.10810303217E+02  0.12700000000E+01 0.  1.
         -4   -1    0    0    0  501 -0.00000000000E+00 -0.00000000000E+00 -0.36249777205E+03  0.36249999675E+03  0.12700000000E+01 0.  1.
         25    2    1    2    0    0  0.00000000000E+00  0.00000000000E+00 -0.35176232816E+03  0.37331029997E+03  0.12499537811E+03 0.  0.
    9000005    1    3    3    0    0 -0.38913776139E+02 -0.11230707497E+02 -0.31800502955E+03  0.32057543509E+03  0.10000000000E+01 0.  0.
    9000005    1    3    3    0    0  0.38913776139E+02  0.11230707497E+02 -0.33757298610E+02  0.52734864879E+02  0.10000000000E+01 0.  0.
<mgrwt>
<rscale>  0 0.12499538E+03</rscale>
<asrwt>0</asrwt>
<pdfrwt beam="1">  1        4 0.16575366E-02 0.12499538E+03</pdfrwt>
<pdfrwt beam="2">  1       -4 0.55774808E-01 0.12499538E+03</pdfrwt>
<totfact> 0.67240908E+03</totfact>
</mgrwt>
</event>
<event>
 5    1  0.3269032E-002  0.1250014E+03  0.7818608E-02  0.1235067E+00
         -4   -1    0    0    0  501 -0.00000000000E+00  0.00000000000E+00  0.10574493401E+02  0.10650484059E+02  0.12700000000E+01 0. -1.
          4   -1    0    0  501    0  0.00000000000E+00 -0.00000000000E+00 -0.36801138480E+03  0.36801357617E+03  0.12700000000E+01 0. -1.
         25    2    1    2    0    0  0.00000000000E+00  0.00000000000E+00 -0.35743689140E+03  0.37866406023E+03  0.12500135669E+03 0.  0.
    9000005    1    3    3    0    0  0.20769349245E+02  0.50846155638E+02 -0.88415555573E+02  0.10409134392E+03  0.10000000000E+01 0.  0.
    9000005    1    3    3    0    0 -0.20769349245E+02 -0.50846155638E+02 -0.26902133583E+03  0.27457271631E+03  0.10000000000E+01 0.  0.
<mgrwt>
<rscale>  0 0.12500136E+03</rscale>
<asrwt>0</asrwt>
<pdfrwt beam="2">  1        4 0.56623140E-01 0.12500136E+03</pdfrwt>
<pdfrwt beam="1">  1       -4 0.16328594E-02 0.12500136E+03</pdfrwt>
<totfact> 0.66680156E+03</totfact>
</mgrwt>
</event>
<event>
 5    1  0.3269032E-002  0.1249996E+03  0.7818608E-02  0.1235070E+00
         -4   -1    0    0    0  501 -0.00000000000E+00  0.00000000000E+00  0.12055399638E+03  0.12056068572E+03  0.12700000000E+01 0. -1.
          4   -1    0    0  501    0  0.00000000000E+00 -0.00000000000E+00 -0.32382240035E+02  0.32407134550E+02  0.12700000000E+01 0. -1.
         25    2    1    2    0    0  0.00000000000E+00  0.00000000000E+00  0.88171756340E+02  0.15296782027E+03  0.12499958169E+03 0.  0.
    9000005    1    3    3    0    0 -0.25439730971E+02 -0.24606500027E+02  0.10711256275E+03  0.11281294631E+03  0.10000000000E+01 0.  0.
    9000005    1    3    3    0    0  0.25439730971E+02  0.24606500027E+02 -0.18940806413E+02  0.40154873963E+02  0.10000000000E+01 0.  0.
<mgrwt>
<rscale>  0 0.12499958E+03</rscale>
<asrwt>0</asrwt>
<pdfrwt beam="2">  1        4 0.49843126E-02 0.12499958E+03</pdfrwt>
<pdfrwt beam="1">  1       -4 0.18549198E-01 0.12499958E+03</pdfrwt>
<totfact> 0.98716293E+03</totfact>
</mgrwt>
</event>
<event>
 5    1  0.3269032E-002  0.1250038E+03  0.7818608E-02  0.1235063E+00
         -4   -1    0    0    0  501 -0.00000000000E+00  0.00000000000E+00  0.84301604243E+02  0.84311169947E+02  0.12700000000E+01 0. -1.
          4   -1    0    0  501    0  0.00000000000E+00 -0.00000000000E+00 -0.46318496941E+02  0.46335904640E+02  0.12700000000E+01 0. -1.
         25    2    1    2    0    0  0.00000000000E+00  0.00000000000E+00  0.37983107302E+02  0.13064707459E+03  0.12500376658E+03 0.  0.
    9000005    1    3    3    0    0 -0.33182019369E+02 -0.20369191488E+01  0.74298297758E+02  0.81402902274E+02  0.10000000000E+01 0.  0.
    9000005    1    3    3    0    0  0.33182019369E+02  0.20369191488E+01 -0.36315190456E+02  0.49244172313E+02  0.10000000000E+01 0.  0.
<mgrwt>
<rscale>  0 0.12500377E+03</rscale>
<asrwt>0</asrwt>
<pdfrwt beam="2">  1        4 0.71279976E-02 0.12500377E+03</pdfrwt>
<pdfrwt beam="1">  1       -4 0.12971552E-01 0.12500377E+03</pdfrwt>
<totfact> 0.10329783E+04</totfact>
</mgrwt>
</event>
<event>
 5    1  0.3269032E-002  0.1250008E+03  0.7818608E-02  0.1235068E+00
         -4   -1    0    0    0  501 -0.00000000000E+00  0.00000000000E+00  0.54695101033E+02  0.54709843511E+02  0.12700000000E+01 0.  1.
          4   -1    0    0  501    0  0.00000000000E+00 -0.00000000000E+00 -0.71389596980E+02  0.71400892550E+02  0.12700000000E+01 0.  1.
         25    2    1    2    0    0  0.00000000000E+00  0.00000000000E+00 -0.16694495948E+02  0.12611073606E+03  0.12500084622E+03 0.  0.
    9000005    1    3    3    0    0  0.42629596208E+02 -0.31524241501E+02  0.25025803578E+02  0.58637454923E+02  0.10000000000E+01 0.  0.
    9000005    1    3    3    0    0 -0.42629596208E+02  0.31524241501E+02 -0.41720299526E+02  0.67473281139E+02  0.10000000000E+01 0.  0.
<mgrwt>
<rscale>  0 0.12500085E+03</rscale>
<asrwt>0</asrwt>
<pdfrwt beam="2">  1        4 0.10985018E-01 0.12500085E+03</pdfrwt>
<pdfrwt beam="1">  1       -4 0.84166338E-02 0.12500085E+03</pdfrwt>
<totfact> 0.10428333E+04</totfact>
</mgrwt>
</event>
<event>
 5    1  0.3269032E-002  0.1250004E+03  0.7818608E-02  0.1235069E+00
         -4   -1    0    0    0  501 -0.00000000000E+00  0.00000000000E+00  0.37709751110E+03  0.37709964967E+03  0.12700000000E+01 0.  1.
          4   -1    0    0  501    0  0.00000000000E+00 -0.00000000000E+00 -0.10317685105E+02  0.10395553181E+02  0.12700000000E+01 0.  1.
         25    2    1    2    0    0  0.00000000000E+00  0.00000000000E+00  0.36677982600E+03  0.38749520285E+03  0.12500036589E+03 0.  0.
    9000005    1    3    3    0    0 -0.51365694724E+02  0.54454885980E+01  0.29242652694E+03  0.29695515082E+03  0.10000000000E+01 0.  0.
    9000005    1    3    3    0    0  0.51365694724E+02 -0.54454885980E+01  0.74353299055E+02  0.90540052026E+02  0.10000000000E+01 0.  0.
<mgrwt>
<rscale>  0 0.12500037E+03</rscale>
<asrwt>0</asrwt>
<pdfrwt beam="2">  1        4 0.15934908E-02 0.12500037E+03</pdfrwt>
<pdfrwt beam="1">  1       -4 0.58021146E-01 0.12500037E+03</pdfrwt>
<totfact> 0.65786909E+03</totfact>
</mgrwt>
</event>
<event>
 5    1  0.3269032E-002  0.1250016E+03  0.7818608E-02  0.1235067E+00
         -4   -1    0    0    0  501 -0.00000000000E+00  0.00000000000E+00  0.17905706994E+03  0.17906157375E+03  0.12700000000E+01 0.  1.
          4   -1    0    0  501    0  0.00000000000E+00 -0.00000000000E+00 -0.21792966536E+02  0.21829940230E+02  0.12700000000E+01 0.  1.
         25    2    1    2    0    0  0.00000000000E+00  0.00000000000E+00  0.15726410340E+03  0.20089151398E+03  0.12500160868E+03 0.  0.
    9000005    1    3    3    0    0 -0.21682371284E+02  0.81083230474E+01 -0.14656308220E+02  0.27416737548E+02  0.10000000000E+01 0.  0.
    9000005    1    3    3    0    0  0.21682371284E+02 -0.81083230474E+01  0.17192041162E+03  0.17347477644E+03  0.10000000000E+01 0.  0.
<mgrwt>
<rscale>  0 0.12500161E+03</rscale>
<asrwt>0</asrwt>
<pdfrwt beam="2">  1        4 0.33559546E-02 0.12500161E+03</pdfrwt>
<pdfrwt beam="1">  1       -4 0.27550433E-01 0.12500161E+03</pdfrwt>
<totfact> 0.89982123E+03</totfact>
</mgrwt>
</event>
<event>
 5    1  0.3269032E-002  0.1249991E+03  0.7818608E-02  0.1235071E+00
         -4   -1    0    0    0  501 -0.00000000000E+00  0.00000000000E+00  0.80943663280E+02  0.80953625769E+02  0.12700000000E+01 0. -1.
          4   -1    0    0  501    0  0.00000000000E+00 -0.00000000000E+00 -0.48236894080E+02  0.48253609715E+02  0.12700000000E+01 0. -1.
         25    2    1    2    0    0  0.00000000000E+00  0.00000000000E+00  0.32706769199E+02  0.12920723548E+03  0.12499910780E+03 0.  0.
    9000005    1    3    3    0    0 -0.55489179032E+02  0.35855976264E+01 -0.13124906305E+02  0.57141654382E+02  0.10000000000E+01 0.  0.
    9000005    1    3    3    0    0  0.55489179032E+02 -0.35855976264E+01  0.45831675504E+02  0.72065581102E+02  0.10000000000E+01 0.  0.
<mgrwt>
<rscale>  0 0.12499911E+03</rscale>
<asrwt>0</asrwt>
<pdfrwt beam="2">  1        4 0.74231128E-02 0.12499911E+03</pdfrwt>
<pdfrwt beam="1">  1       -4 0.12454923E-01 0.12499911E+03</pdfrwt>
<totfact> 0.10361704E+04</totfact>
</mgrwt>
</event>
<event>
 5    1  0.3269032E-002  0.1249993E+03  0.7818608E-02  0.1235070E+00
          4   -1    0    0  501    0  0.00000000000E+00  0.00000000000E+00  0.48540574484E+02  0.48557185577E+02  0.12700000000E+01 0. -1.
         -4   -1    0    0    0  501 -0.00000000000E+00 -0.00000000000E+00 -0.80437625398E+02  0.80447650554E+02  0.12700000000E+01 0. -1.
         25    2    1    2    0    0  0.00000000000E+00  0.00000000000E+00 -0.31897050915E+02  0.12900483613E+03  0.12499930355E+03 0.  0.
    9000005    1    3    3    0    0  0.32468811991E+02 -0.97337136221E+01 -0.70130736036E+02  0.77899223808E+02  0.10000000000E+01 0.  0.
    9000005    1    3    3    0    0 -0.32468811991E+02  0.97337136221E+01  0.38233685121E+02  0.51105612323E+02  0.10000000000E+01 0.  0.
<mgrwt>
<rscale>  0 0.12499930E+03</rscale>
<asrwt>0</asrwt>
<pdfrwt beam="1">  1        4 0.74698296E-02 0.12499930E+03</pdfrwt>
<pdfrwt beam="2">  1       -4 0.12377068E-01 0.12499930E+03</pdfrwt>
<totfact> 0.10366006E+04</totfact>
</mgrwt>
</event>
<event>
 5    1  0.3269032E-002  0.1250073E+03  0.7818608E-02  0.1235058E+00
         -4   -1    0    0    0  501 -0.00000000000E+00  0.00000000000E+00  0.16541739290E+02  0.16590420090E+02  0.12700000000E+01 0.  1.
          4   -1    0    0  501    0  0.00000000000E+00 -0.00000000000E+00 -0.23577542027E+03  0.23577884066E+03  0.12700000000E+01 0.  1.
         25    2    1    2    0    0  0.00000000000E+00  0.00000000000E+00 -0.21923368098E+03  0.25236926075E+03  0.12500734737E+03 0.  0.
    9000005    1    3    3    0    0 -0.45940270544E+02  0.42271046158E+02 -0.10377984892E+03  0.12111402414E+03  0.10000000000E+01 0.  0.
    9000005    1    3    3    0    0  0.45940270544E+02 -0.42271046158E+02 -0.11545383205E+03  0.13125523661E+03  0.10000000000E+01 0.  0.
<mgrwt>
<rscale>  0 0.12500735E+03</rscale>
<asrwt>0</asrwt>
<pdfrwt beam="2">  1        4 0.36277147E-01 0.12500735E+03</pdfrwt>
<pdfrwt beam="1">  1       -4 0.25488909E-02 0.12500735E+03</pdfrwt>
<totfact> 0.81975583E+03</totfact>
</mgrwt>
</event>
<event>
 5    1  0.3269032E-002  0.1250155E+03  0.7818608E-02  0.1235045E+00
          4   -1    0    0  501    0  0.00000000000E+00  0.00000000000E+00  0.29727563737E+03  0.29727835016E+03  0.12700000000E+01 0.  1.
         -4   -1    0    0    0  501 -0.00000000000E+00 -0.00000000000E+00 -0.13109957947E+02  0.13171328611E+02  0.12700000000E+01 0.  1.
         25    2    1    2    0    0  0.00000000000E+00  0.00000000000E+00  0.28416567942E+03  0.31044967877E+03  0.12501547779E+03 0.  0.
    9000005    1    3    3    0    0 -0.50977986772E+02  0.10231979525E+02  0.22820571514E+03  0.23405618335E+03  0.10000000000E+01 0.  0.
    9000005    1    3    3    0    0  0.50977986772E+02 -0.10231979525E+02  0.55959964279E+02  0.76393495420E+02  0.10000000000E+01 0.  0.
<mgrwt>
<rscale>  0 0.12501548E+03</rscale>
<asrwt>0</asrwt>
<pdfrwt beam="1">  1        4 0.45739641E-01 0.12501548E+03</pdfrwt>
<pdfrwt beam="2">  1       -4 0.20218462E-02 0.12501548E+03</pdfrwt>
<totfact> 0.74280963E+03</totfact>
</mgrwt>
</event>
<event>
 5    1  0.3269032E-002  0.1249980E+03  0.7818608E-02  0.1235072E+00
         -4   -1    0    0    0  501 -0.00000000000E+00  0.00000000000E+00  0.20460808152E+03  0.20461202292E+03  0.12700000000E+01 0.  1.
          4   -1    0    0  501    0  0.00000000000E+00 -0.00000000000E+00 -0.19065502106E+02  0.19107754200E+02  0.12700000000E+01 0.  1.
         25    2    1    2    0    0  0.00000000000E+00  0.00000000000E+00  0.18554257941E+03  0.22371977712E+03  0.12499795958E+03 0.  0.
    9000005    1    3    3    0    0  0.38089304067E+02  0.28391299954E+02  0.16543448781E+03  0.17212330102E+03  0.10000000000E+01 0.  0.
    9000005    1    3    3    0    0 -0.38089304067E+02 -0.28391299954E+02  0.20108091597E+02  0.51596476091E+02  0.10000000000E+01 0.  0.
<mgrwt>
<rscale>  0 0.12499796E+03</rscale>
<asrwt>0</asrwt>
<pdfrwt beam="2">  1        4 0.29367076E-02 0.12499796E+03</pdfrwt>
<pdfrwt beam="1">  1       -4 0.31481718E-01 0.12499796E+03</pdfrwt>
<totfact> 0.86287076E+03</totfact>
</mgrwt>
</event>
<event>
 5    1  0.3269032E-002  0.1250010E+03  0.7818608E-02  0.1235068E+00
         -4   -1    0    0    0  501 -0.00000000000E+00  0.00000000000E+00  0.20423133332E+03  0.20423528199E+03  0.12700000000E+01 0.  1.
          4   -1    0    0  501    0  0.00000000000E+00 -0.00000000000E+00 -0.19101695989E+02  0.19143868200E+02  0.12700000000E+01 0.  1.
         25    2    1    2    0    0  0.00000000000E+00  0.00000000000E+00  0.18512963733E+03  0.22337915019E+03  0.12500104848E+03 0.  0.
    9000005    1    3    3    0    0  0.85902840124E+00  0.49421736299E+02  0.24234570271E+02  0.55059607198E+02  0.10000000000E+01 0.  0.
    9000005    1    3    3    0    0 -0.85902840124E+00 -0.49421736299E+02  0.16089506706E+03  0.16831954299E+03  0.10000000000E+01 0.  0.
<mgrwt>
<rscale>  0 0.12500105E+03</rscale>
<asrwt>0</asrwt>
<pdfrwt beam="2">  1        4 0.29422702E-02 0.12500105E+03</pdfrwt>
<pdfrwt beam="1">  1       -4 0.31423753E-01 0.12500105E+03</pdfrwt>
<totfact> 0.86334429E+03</totfact>
</mgrwt>
</event>
<event>
 5    1  0.3269032E-002  0.1250026E+03  0.7818608E-02  0.1235065E+00
          4   -1    0    0  501    0  0.00000000000E+00  0.00000000000E+00  0.22357626847E+02  0.22393668262E+02  0.12700000000E+01 0.  1.
         -4   -1    0    0    0  501 -0.00000000000E+00 -0.00000000000E+00 -0.17454482277E+03  0.17454944301E+03  0.12700000000E+01 0.  1.
         25    2    1    2    0    0  0.00000000000E+00  0.00000000000E+00 -0.15218719592E+03  0.19694311128E+03  0.12500258587E+03 0.  0.
    9000005    1    3    3    0    0  0.57090032699E+02 -0.25358212895E+02 -0.73319253649E+02  0.96327689427E+02  0.10000000000E+01 0.  0.
    9000005    1    3    3    0    0 -0.57090032699E+02  0.25358212895E+02 -0.78867942276E+02  0.10061542185E+03  0.10000000000E+01 0.  0.
<mgrwt>
<rscale>  0 0.12500259E+03</rscale>
<asrwt>0</asrwt>
<pdfrwt beam="1">  1        4 0.34427628E-02 0.12500259E+03</pdfrwt>
<pdfrwt beam="2">  1       -4 0.26856177E-01 0.12500259E+03</pdfrwt>
<totfact> 0.90647827E+03</totfact>
</mgrwt>
</event>
<event>
 5    1  0.3269032E-002  0.1250061E+03  0.7818608E-02  0.1235060E+00
         -4   -1    0    0    0  501 -0.00000000000E+00  0.00000000000E+00  0.74080822168E+03  0.74080931029E+03  0.12700000000E+01 0. -1.
          4   -1    0    0  501    0  0.00000000000E+00 -0.00000000000E+00 -0.51958980119E+01  0.53488555926E+01  0.12700000000E+01 0. -1.
         25    2    1    2    0    0  0.00000000000E+00  0.00000000000E+00  0.73561232367E+03  0.74615816588E+03  0.12500607096E+03 0.  0.
    9000005    1    3    3    0    0  0.46037991745E+02  0.27052006521E+02  0.17399161754E+03  0.18200382061E+03  0.10000000000E+01 0.  0.
    9000005    1    3    3    0    0 -0.46037991745E+02 -0.27052006521E+02  0.56162070613E+03  0.56415434527E+03  0.10000000000E+01 0.  0.
<mgrwt>
<rscale>  0 0.12500607E+03</rscale>
<asrwt>0</asrwt>
<pdfrwt beam="2">  1        4 0.81121865E-03 0.12500607E+03</pdfrwt>
<pdfrwt beam="1">  1       -4 0.11398234E+00 0.12500607E+03</pdfrwt>
<totfact> 0.40753157E+03</totfact>
</mgrwt>
</event>
<event>
 5    1  0.3269032E-002  0.1250011E+03  0.7818608E-02  0.1235068E+00
          4   -1    0    0  501    0  0.00000000000E+00  0.00000000000E+00  0.12698328179E+03  0.12698963246E+03  0.12700000000E+01 0.  1.
         -4   -1    0    0    0  501 -0.00000000000E+00 -0.00000000000E+00 -0.30742210955E+02  0.30768432434E+02  0.12700000000E+01 0.  1.
         25    2    1    2    0    0  0.00000000000E+00  0.00000000000E+00  0.96241070831E+02  0.15775806490E+03  0.12500105330E+03 0.  0.
    9000005    1    3    3    0    0 -0.47297490496E+02  0.19224086851E+02  0.93601737541E+02  0.10662505987E+03  0.10000000000E+01 0.  0.
    9000005    1    3    3    0    0  0.47297490496E+02 -0.19224086851E+02  0.26393332898E+01  0.51133005023E+02  0.10000000000E+01 0.  0.
<mgrwt>
<rscale>  0 0.12500105E+03</rscale>
<asrwt>0</asrwt>
<pdfrwt beam="1">  1        4 0.19538395E-01 0.12500105E+03</pdfrwt>
<pdfrwt beam="2">  1       -4 0.47320764E-02 0.12500105E+03</pdfrwt>
<totfact> 0.97774446E+03</totfact>
</mgrwt>
</event>
<event>
 5    1  0.3269032E-002  0.1249989E+03  0.7818608E-02  0.1235071E+00
         -4   -1    0    0    0  501 -0.00000000000E+00  0.00000000000E+00  0.10001380043E+02  0.10081691464E+02  0.12700000000E+01 0. -1.
          4   -1    0    0  501    0  0.00000000000E+00 -0.00000000000E+00 -0.38892090535E+03  0.38892297890E+03  0.12700000000E+01 0. -1.
         25    2    1    2    0    0  0.00000000000E+00  0.00000000000E+00 -0.37891952530E+03  0.39900467036E+03  0.12499888125E+03 0.  0.
    9000005    1    3    3    0    0 -0.38828498497E+02  0.19728610417E+02 -0.46409981556E+02  0.63653411161E+02  0.10000000000E+01 0.  0.
    9000005    1    3    3    0    0  0.38828498497E+02 -0.19728610417E+02 -0.33250954375E+03  0.33535125920E+03  0.10000000000E+01 0.  0.
<mgrwt>
<rscale>  0 0.12499888E+03</rscale>
<asrwt>0</asrwt>
<pdfrwt beam="2">  1        4 0.59840311E-01 0.12499888E+03</pdfrwt>
<pdfrwt beam="1">  1       -4 0.15450115E-02 0.12499888E+03</pdfrwt>
<totfact> 0.64651311E+03</totfact>
</mgrwt>
</event>
<event>
 5    1  0.3269032E-002  0.1250034E+03  0.7818608E-02  0.1235064E+00
          4   -1    0    0  501    0  0.00000000000E+00  0.00000000000E+00  0.90996611897E+01  0.91878579532E+01  0.12700000000E+01 0. -1.
         -4   -1    0    0    0  501 -0.00000000000E+00 -0.00000000000E+00 -0.42713779060E+03  0.42713967863E+03  0.12700000000E+01 0. -1.
         25    2    1    2    0    0  0.00000000000E+00  0.00000000000E+00 -0.41803812941E+03  0.43632753658E+03  0.12500336611E+03 0.  0.
    9000005    1    3    3    0    0 -0.30596296431E+02  0.16331027504E+02 -0.39048026304E+03  0.39201871338E+03  0.10000000000E+01 0.  0.
    9000005    1    3    3    0    0  0.30596296431E+02 -0.16331027504E+02 -0.27557866365E+02  0.44308823199E+02  0.10000000000E+01 0.  0.
<mgrwt>
<rscale>  0 0.12500337E+03</rscale>
<asrwt>0</asrwt>
<pdfrwt beam="1">  1        4 0.14068778E-02 0.12500337E+03</pdfrwt>
<pdfrwt beam="2">  1       -4 0.65720420E-01 0.12500337E+03</pdfrwt>
<totfact> 0.61162066E+03</totfact>
</mgrwt>
</event>
<event>
 5    1  0.3269032E-002  0.1250043E+03  0.7818608E-02  0.1235063E+00
          4   -1    0    0  501    0  0.00000000000E+00  0.00000000000E+00  0.13761492051E+03  0.13762078058E+03  0.12700000000E+01 0.  1.
         -4   -1    0    0    0  501 -0.00000000000E+00 -0.00000000000E+00 -0.28366661472E+02  0.28395076740E+02  0.12700000000E+01 0.  1.
         25    2    1    2    0    0  0.00000000000E+00  0.00000000000E+00  0.10924825904E+03  0.16601585732E+03  0.12500433104E+03 0.  0.
    9000005    1    3    3    0    0 -0.28102389928E+02  0.73908399166E+01  0.12810375764E+03  0.13136187253E+03  0.10000000000E+01 0.  0.
    9000005    1    3    3    0    0  0.28102389928E+02 -0.73908399166E+01 -0.18855498597E+02  0.34653984788E+02  0.10000000000E+01 0.  0.
<mgrwt>
<rscale>  0 0.12500433E+03</rscale>
<asrwt>0</asrwt>
<pdfrwt beam="1">  1        4 0.21174162E-01 0.12500433E+03</pdfrwt>
<pdfrwt beam="2">  1       -4 0.43667384E-02 0.12500433E+03</pdfrwt>
<totfact> 0.96185993E+03</totfact>
</mgrwt>
</event>
<event>
 5    1  0.3269032E-002  0.1249962E+03  0.7818608E-02  0.1235075E+00
         -4   -1    0    0    0  501 -0.00000000000E+00  0.00000000000E+00  0.30710765017E+02  0.30737013321E+02  0.12700000000E+01 0.  1.
          4   -1    0    0  501    0  0.00000000000E+00 -0.00000000000E+00 -0.12710329329E+03  0.12710963798E+03  0.12700000000E+01 0.  1.
         25    2    1    2    0    0  0.00000000000E+00  0.00000000000E+00 -0.96392528277E+02  0.15784665130E+03  0.12499618321E+03 0.  0.
    9000005    1    3    3    0    0  0.29525232702E+02  0.39800503577E+01  0.21171439133E+02  0.36562412419E+02  0.10000000000E+01 0.  0.
    9000005    1    3    3    0    0 -0.29525232702E+02 -0.39800503577E+01 -0.11756396741E+03  0.12128423888E+03  0.10000000000E+01 0.  0.
<mgrwt>
<rscale>  0 0.12499618E+03</rscale>
<asrwt>0</asrwt>
<pdfrwt beam="2">  1        4 0.19556860E-01 0.12499618E+03</pdfrwt>
<pdfrwt beam="1">  1       -4 0.47272403E-02 0.12499618E+03</pdfrwt>
<totfact> 0.97767936E+03</totfact>
</mgrwt>
</event>
<event>
 5    1  0.3269032E-002  0.1250004E+03  0.7818608E-02  0.1235069E+00
         -4   -1    0    0    0  501 -0.00000000000E+00  0.00000000000E+00  0.13536107571E+04  0.13536113529E+04  0.12700000000E+01 0. -1.
          4   -1    0    0  501    0  0.00000000000E+00 -0.00000000000E+00 -0.27454658472E+01  0.30249764823E+01  0.12700000000E+01 0. -1.
         25    2    1    2    0    0  0.00000000000E+00  0.00000000000E+00  0.13508652912E+04  0.13566363294E+04  0.12500038010E+03 0.  0.
    9000005    1    3    3    0    0  0.18189746634E+02  0.30004073509E+02  0.11419602352E+03  0.11946900476E+03  0.10000000000E+01 0.  0.
    9000005    1    3    3    0    0 -0.18189746634E+02 -0.30004073509E+02  0.12366692677E+04  0.12371673246E+04  0.10000000000E+01 0.  0.
<mgrwt>
<rscale>  0 0.12500038E+03</rscale>
<asrwt>0</asrwt>
<pdfrwt beam="2">  1        4 0.44392708E-03 0.12500038E+03</pdfrwt>
<pdfrwt beam="1">  1       -4 0.20826885E+00 0.12500038E+03</pdfrwt>
<totfact> 0.20929791E+03</totfact>
</mgrwt>
</event>
<event>
 5    1  0.3269032E-002  0.1250012E+03  0.7818608E-02  0.1235067E+00
          4   -1    0    0  501    0  0.00000000000E+00  0.00000000000E+00  0.77098578176E+03  0.77098682776E+03  0.12700000000E+01 0.  1.
         -4   -1    0    0    0  501 -0.00000000000E+00 -0.00000000000E+00 -0.49860096900E+01  0.51452106496E+01  0.12700000000E+01 0.  1.
         25    2    1    2    0    0  0.00000000000E+00  0.00000000000E+00  0.76599977207E+03  0.77613203840E+03  0.12500116092E+03 0.  0.
    9000005    1    3    3    0    0 -0.40293046666E+02 -0.33557525600E+02  0.59407711433E+03  0.59638767165E+03  0.10000000000E+01 0.  0.
    9000005    1    3    3    0    0  0.40293046666E+02  0.33557525600E+02  0.17192265774E+03  0.17974436675E+03  0.10000000000E+01 0.  0.
<mgrwt>
<rscale>  0 0.12500116E+03</rscale>
<asrwt>0</asrwt>
<pdfrwt beam="1">  1        4 0.11862543E+00 0.12500116E+03</pdfrwt>
<pdfrwt beam="2">  1       -4 0.77940571E-03 0.12500116E+03</pdfrwt>
<totfact> 0.39351731E+03</totfact>
</mgrwt>
</event>
<event>
 5    1  0.3269032E-002  0.1250018E+03  0.7818608E-02  0.1235066E+00
         -4   -1    0    0    0  501 -0.00000000000E+00  0.00000000000E+00  0.94639953658E+02  0.94648474517E+02  0.12700000000E+01 0.  1.
          4   -1    0    0  501    0  0.00000000000E+00 -0.00000000000E+00 -0.41255884731E+02  0.41275427617E+02  0.12700000000E+01 0.  1.
         25    2    1    2    0    0  0.00000000000E+00  0.00000000000E+00  0.53384068926E+02  0.13592390213E+03  0.12500179341E+03 0.  0.
    9000005    1    3    3    0    0 -0.44795924053E+02 -0.17500856399E+02 -0.16699666033E+02  0.50919874627E+02  0.10000000000E+01 0.  0.
    9000005    1    3    3    0    0  0.44795924053E+02  0.17500856399E+02  0.70083734959E+02  0.85004027506E+02  0.10000000000E+01 0.  0.
<mgrwt>
<rscale>  0 0.12500179E+03</rscale>
<asrwt>0</asrwt>
<pdfrwt beam="2">  1        4 0.63492180E-02 0.12500179E+03</pdfrwt>
<pdfrwt beam="1">  1       -4 0.14562152E-01 0.12500179E+03</pdfrwt>
<totfact> 0.10218221E+04</totfact>
</mgrwt>
</event>
<event>
 5    1  0.3269032E-002  0.1250022E+03  0.7818608E-02  0.1235066E+00
          4   -1    0    0  501    0  0.00000000000E+00  0.00000000000E+00  0.44875380768E+01  0.46637858002E+01  0.12700000000E+01 0.  1.
         -4   -1    0    0    0  501 -0.00000000000E+00 -0.00000000000E+00 -0.85355459842E+03  0.85355554324E+03  0.12700000000E+01 0.  1.
         25    2    1    2    0    0  0.00000000000E+00  0.00000000000E+00 -0.84906706035E+03  0.85821932904E+03  0.12500217505E+03 0.  0.
    9000005    1    3    3    0    0  0.33062420315E+02  0.52609472514E+02 -0.37873109479E+03  0.38379567793E+03  0.10000000000E+01 0.  0.
    9000005    1    3    3    0    0 -0.33062420315E+02 -0.52609472514E+02 -0.47033596555E+03  0.47442365110E+03  0.10000000000E+01 0.  0.
<mgrwt>
<rscale>  0 0.12500218E+03</rscale>
<asrwt>0</asrwt>
<pdfrwt beam="1">  1        4 0.70402135E-03 0.12500218E+03</pdfrwt>
<pdfrwt beam="2">  1       -4 0.13132960E+00 0.12500218E+03</pdfrwt>
<totfact> 0.35791654E+03</totfact>
</mgrwt>
</event>
<event>
 5    1  0.3269032E-002  0.1250026E+03  0.7818608E-02  0.1235065E+00
          4   -1    0    0  501    0  0.00000000000E+00  0.00000000000E+00  0.35981295261E+03  0.35981519391E+03  0.12700000000E+01 0. -1.
         -4   -1    0    0    0  501 -0.00000000000E+00 -0.00000000000E+00 -0.10817369790E+02  0.10891666042E+02  0.12700000000E+01 0. -1.
         25    2    1    2    0    0  0.00000000000E+00  0.00000000000E+00  0.34899558282E+03  0.37070685995E+03  0.12500263671E+03 0.  0.
    9000005    1    3    3    0    0 -0.41441591205E+02  0.11662654611E+02  0.30883590937E+03  0.31182373532E+03  0.10000000000E+01 0.  0.
    9000005    1    3    3    0    0  0.41441591205E+02 -0.11662654611E+02  0.40159673451E+02  0.58883124627E+02  0.10000000000E+01 0.  0.
<mgrwt>
<rscale>  0 0.12500264E+03</rscale>
<asrwt>0</asrwt>
<pdfrwt beam="1">  1        4 0.55361736E-01 0.12500264E+03</pdfrwt>
<pdfrwt beam="2">  1       -4 0.16700979E-02 0.12500264E+03</pdfrwt>
<totfact> 0.67501108E+03</totfact>
</mgrwt>
</event>
<event>
 5    1  0.3269032E-002  0.1249975E+03  0.7818608E-02  0.1235073E+00
          4   -1    0    0  501    0  0.00000000000E+00  0.00000000000E+00  0.37190694307E+02  0.37212372177E+02  0.12700000000E+01 0.  1.
         -4   -1    0    0    0  501 -0.00000000000E+00 -0.00000000000E+00 -0.10497268477E+03  0.10498036696E+03  0.12700000000E+01 0.  1.
         25    2    1    2    0    0  0.00000000000E+00  0.00000000000E+00 -0.67781990463E+02  0.14219273914E+03  0.12499750731E+03 0.  0.
    9000005    1    3    3    0    0 -0.31713209913E+02 -0.42807643097E+02  0.32652885277E+01  0.53384305744E+02  0.10000000000E+01 0.  0.
    9000005    1    3    3    0    0  0.31713209913E+02  0.42807643097E+02 -0.71047278991E+02  0.88808433398E+02  0.10000000000E+01 0.  0.
<mgrwt>
<rscale>  0 0.12499751E+03</rscale>
<asrwt>0</asrwt>
<pdfrwt beam="1">  1        4 0.57239038E-02 0.12499751E+03</pdfrwt>
<pdfrwt beam="2">  1       -4 0.16151902E-01 0.12499751E+03</pdfrwt>
<totfact> 0.10088907E+04</totfact>
</mgrwt>
</event>
<event>
 5    1  0.3269032E-002  0.1250004E+03  0.7818608E-02  0.1235069E+00
         -4   -1    0    0    0  501 -0.00000000000E+00  0.00000000000E+00  0.17211318269E+03  0.17211786821E+03  0.12700000000E+01 0.  1.
          4   -1    0    0  501    0  0.00000000000E+00 -0.00000000000E+00 -0.22673203718E+02  0.22708744282E+02  0.12700000000E+01 0.  1.
         25    2    1    2    0    0  0.00000000000E+00  0.00000000000E+00  0.14943997897E+03  0.19482661249E+03  0.12500040647E+03 0.  0.
    9000005    1    3    3    0    0 -0.60909628589E+01 -0.61132677242E+02  0.56882858358E+02  0.83731497242E+02  0.10000000000E+01 0.  0.
    9000005    1    3    3    0    0  0.60909628589E+01  0.61132677242E+02  0.92557120615E+02  0.11109511525E+03  0.10000000000E+01 0.  0.
<mgrwt>
<rscale>  0 0.12500041E+03</rscale>
<asrwt>0</asrwt>
<pdfrwt beam="2">  1        4 0.34912793E-02 0.12500041E+03</pdfrwt>
<pdfrwt beam="1">  1       -4 0.26482047E-01 0.12500041E+03</pdfrwt>
<totfact> 0.91013386E+03</totfact>
</mgrwt>
</event>
<event>
 5    1  0.3269032E-002  0.1249919E+03  0.7818608E-02  0.1235082E+00
         -4   -1    0    0    0  501 -0.00000000000E+00  0.00000000000E+00  0.13502794871E+02  0.13562388040E+02  0.12700000000E+01 0.  1.
          4   -1    0    0  501    0  0.00000000000E+00 -0.00000000000E+00 -0.28855672076E+03  0.28855951552E+03  0.12700000000E+01 0.  1.
         25    2    1    2    0    0  0.00000000000E+00  0.00000000000E+00 -0.27505392589E+03  0.30212190356E+03  0.12499192959E+03 0.  0.
    9000005    1    3    3    0    0  0.34566147515E+01  0.42597332063E+02 -0.27334808711E+02  0.50741232265E+02  0.10000000000E+01 0.  0.
    9000005    1    3    3    0    0 -0.34566147515E+01 -0.42597332063E+02 -0.24771911718E+03  0.25138067130E+03  0.10000000000E+01 0.  0.
<mgrwt>
<rscale>  0 0.12499193E+03</rscale>
<asrwt>0</asrwt>
<pdfrwt beam="2">  1        4 0.44398136E-01 0.12499193E+03</pdfrwt>
<pdfrwt beam="1">  1       -4 0.20821523E-02 0.12499193E+03</pdfrwt>
<totfact> 0.75346938E+03</totfact>
</mgrwt>
</event>
<event>
 5    1  0.3269032E-002  0.1250004E+03  0.7818608E-02  0.1235069E+00
         -4   -1    0    0    0  501 -0.00000000000E+00  0.00000000000E+00  0.24423651284E+03  0.24423981474E+03  0.12700000000E+01 0.  1.
          4   -1    0    0  501    0  0.00000000000E+00 -0.00000000000E+00 -0.15965202102E+02  0.16015635428E+02  0.12700000000E+01 0.  1.
         25    2    1    2    0    0  0.00000000000E+00  0.00000000000E+00  0.22827131074E+03  0.26025545017E+03  0.12500043214E+03 0.  0.
    9000005    1    3    3    0    0  0.39002924864E+02  0.34664201753E+02  0.42541389809E+02  0.67332049412E+02  0.10000000000E+01 0.  0.
    9000005    1    3    3    0    0 -0.39002924864E+02 -0.34664201753E+02  0.18572992093E+03  0.19292340075E+03  0.10000000000E+01 0.  0.
<mgrwt>
<rscale>  0 0.12500043E+03</rscale>
<asrwt>0</asrwt>
<pdfrwt beam="2">  1        4 0.24603186E-02 0.12500043E+03</pdfrwt>
<pdfrwt beam="1">  1       -4 0.37578980E-01 0.12500043E+03</pdfrwt>
<totfact> 0.80869448E+03</totfact>
</mgrwt>
</event>
<event>
 5    1  0.3269032E-002  0.1250009E+03  0.7818608E-02  0.1235068E+00
         -4   -1    0    0    0  501 -0.00000000000E+00  0.00000000000E+00  0.28914013395E+02  0.28941891275E+02  0.12700000000E+01 0.  1.
          4   -1    0    0  501    0  0.00000000000E+00 -0.00000000000E+00 -0.13500491962E+03  0.13501089298E+03  0.12700000000E+01 0.  1.
         25    2    1    2    0    0  0.00000000000E+00  0.00000000000E+00 -0.10609090623E+03  0.16395278425E+03  0.12500094032E+03 0.  0.
    9000005    1    3    3    0    0  0.28588595646E+02  0.48401474026E+02 -0.88852670763E+02  0.10514660047E+03  0.10000000000E+01 0.  0.
    9000005    1    3    3    0    0 -0.28588595646E+02 -0.48401474026E+02 -0.17238235465E+02  0.58806183781E+02  0.10000000000E+01 0.  0.
<mgrwt>
<rscale>  0 0.12500094E+03</rscale>
<asrwt>0</asrwt>
<pdfrwt beam="2">  1        4 0.20772591E-01 0.12500094E+03</pdfrwt>
<pdfrwt beam="1">  1       -4 0.44509138E-02 0.12500094E+03</pdfrwt>
<totfact> 0.96584046E+03</totfact>
</mgrwt>
</event>
<event>
 5    1  0.3269032E-002  0.1250329E+03  0.7818608E-02  0.1235018E+00
          4   -1    0    0  501    0  0.00000000000E+00  0.00000000000E+00  0.12613533349E+02  0.12677307425E+02  0.12700000000E+01 0.  1.
         -4   -1    0    0    0  501 -0.00000000000E+00 -0.00000000000E+00 -0.30900397293E+03  0.30900658276E+03  0.12700000000E+01 0.  1.
         25    2    1    2    0    0  0.00000000000E+00  0.00000000000E+00 -0.29639043958E+03  0.32168389018E+03  0.12503292577E+03 0.  0.
    9000005    1    3    3    0    0 -0.50529147791E+02  0.28655348076E+02 -0.20759189833E+03  0.21556836503E+03  0.10000000000E+01 0.  0.
    9000005    1    3    3    0    0  0.50529147791E+02 -0.28655348076E+02 -0.88798541254E+02  0.10611552515E+03  0.10000000000E+01 0.  0.
<mgrwt>
<rscale>  0 0.12503293E+03</rscale>
<asrwt>0</asrwt>
<pdfrwt beam="1">  1        4 0.19456503E-02 0.12503293E+03</pdfrwt>
<pdfrwt beam="2">  1       -4 0.47544173E-01 0.12503293E+03</pdfrwt>
<totfact> 0.72903080E+03</totfact>
</mgrwt>
</event>
<event>
 5    1  0.3269032E-002  0.1250057E+03  0.7818608E-02  0.1235060E+00
         -4   -1    0    0    0  501 -0.00000000000E+00  0.00000000000E+00  0.13939363170E+03  0.13939941699E+03  0.12700000000E+01 0. -1.
          4   -1    0    0  501    0  0.00000000000E+00 -0.00000000000E+00 -0.28004961387E+02  0.28033743280E+02  0.12700000000E+01 0. -1.
         25    2    1    2    0    0  0.00000000000E+00  0.00000000000E+00  0.11138867031E+03  0.16743316028E+03  0.12500570901E+03 0.  0.
    9000005    1    3    3    0    0 -0.95442044186E+00 -0.48555557661E+02  0.30120839889E+01  0.48668529340E+02  0.10000000000E+01 0.  0.
    9000005    1    3    3    0    0  0.95442044186E+00  0.48555557661E+02  0.10837658632E+03  0.11876463094E+03  0.10000000000E+01 0.  0.
<mgrwt>
<rscale>  0 0.12500571E+03</rscale>
<asrwt>0</asrwt>
<pdfrwt beam="2">  1        4 0.43111146E-02 0.12500571E+03</pdfrwt>
<pdfrwt beam="1">  1       -4 0.21447833E-01 0.12500571E+03</pdfrwt>
<totfact> 0.95916266E+03</totfact>
</mgrwt>
</event>
<event>
 4    1  0.3269032E-002  0.1249212E+03  0.7818608E-02  0.1235193E+00
          4   -1    0    0  501    0  0.00000000000E+00  0.00000000000E+00  0.13541105066E+03  0.13541700610E+03  0.12700000000E+01 0.  1.
         -4   -1    0    0    0  501 -0.00000000000E+00 -0.00000000000E+00 -0.28790379904E+02  0.28818377384E+02  0.12700000000E+01 0.  1.
    9000005    1    1    2    0    0 -0.59756445981E+02 -0.14674740079E+02  0.67356399512E+02  0.91236316168E+02  0.10000000000E+01 0.  0.
    9000005    1    1    2    0    0  0.59756445981E+02  0.14674740079E+02  0.39264271246E+02  0.72999067317E+02  0.10000000000E+01 0.  0.
<mgrwt>
<rscale>  0 0.12492115E+03</rscale>
<asrwt>0</asrwt>
<pdfrwt beam="1">  1        4 0.20835081E-01 0.12492115E+03</pdfrwt>
<pdfrwt beam="2">  1       -4 0.44319009E-02 0.12492115E+03</pdfrwt>
<totfact> 0.96703600E+03</totfact>
</mgrwt>
</event>
<event>
 5    1  0.3269032E-002  0.1250028E+03  0.7818608E-02  0.1235065E+00
         -4   -1    0    0    0  501 -0.00000000000E+00  0.00000000000E+00  0.80211538491E+01  0.81210719164E+01  0.12700000000E+01 0. -1.
          4   -1    0    0  501    0  0.00000000000E+00 -0.00000000000E+00 -0.48390005905E+03  0.48390172561E+03  0.12700000000E+01 0. -1.
         25    2    1    2    0    0  0.00000000000E+00  0.00000000000E+00 -0.47587890520E+03  0.49202279753E+03  0.12500280345E+03 0.  0.
    9000005    1    3    3    0    0 -0.46358806725E+02  0.38894467634E+02 -0.29936101799E+03  0.30541764465E+03  0.10000000000E+01 0.  0.
    9000005    1    3    3    0    0  0.46358806725E+02 -0.38894467634E+02 -0.17651788721E+03  0.18660515287E+03  0.10000000000E+01 0.  0.
<mgrwt>
<rscale>  0 0.12500280E+03</rscale>
<asrwt>0</asrwt>
<pdfrwt beam="2">  1        4 0.74453954E-01 0.12500280E+03</pdfrwt>
<pdfrwt beam="1">  1       -4 0.12418383E-02 0.12500280E+03</pdfrwt>
<totfact> 0.56485182E+03</totfact>
</mgrwt>
</event>
<event>
 5    1  0.3269032E-002  0.1249969E+03  0.7818608E-02  0.1235074E+00
          4   -1    0    0  501    0  0.00000000000E+00  0.00000000000E+00  0.69396328963E+02  0.69407948922E+02  0.12700000000E+01 0.  1.
         -4   -1    0    0    0  501 -0.00000000000E+00 -0.00000000000E+00 -0.56262706070E+02  0.56277037896E+02  0.12700000000E+01 0.  1.
         25    2    1    2    0    0  0.00000000000E+00  0.00000000000E+00  0.13133622893E+02  0.12568498682E+03  0.12499689541E+03 0.  0.
    9000005    1    3    3    0    0 -0.45695743551E+02 -0.36711233295E+02  0.28348013628E+02  0.65118549625E+02  0.10000000000E+01 0.  0.
    9000005    1    3    3    0    0  0.45695743551E+02  0.36711233295E+02 -0.15214390735E+02  0.60566437192E+02  0.10000000000E+01 0.  0.
<mgrwt>
<rscale>  0 0.12499690E+03</rscale>
<asrwt>0</asrwt>
<pdfrwt beam="1">  1        4 0.10678355E-01 0.12499690E+03</pdfrwt>
<pdfrwt beam="2">  1       -4 0.86577973E-02 0.12499690E+03</pdfrwt>
<totfact> 0.10438606E+04</totfact>
</mgrwt>
</event>
<event>
 5    1  0.3269032E-002  0.1250001E+03  0.7818608E-02  0.1235069E+00
         -4   -1    0    0    0  501 -0.00000000000E+00  0.00000000000E+00  0.17612731896E+03  0.17613189769E+03  0.12700000000E+01 0. -1.
          4   -1    0    0  501    0  0.00000000000E+00 -0.00000000000E+00 -0.22155526502E+02  0.22191896146E+02  0.12700000000E+01 0. -1.
         25    2    1    2    0    0  0.00000000000E+00  0.00000000000E+00  0.15397179246E+03  0.19832379384E+03  0.12500005732E+03 0.  0.
    9000005    1    3    3    0    0 -0.29727214586E+02  0.18308687595E+02 -0.52468809925E+01  0.35319188675E+02  0.10000000000E+01 0.  0.
    9000005    1    3    3    0    0  0.29727214586E+02 -0.18308687595E+02  0.15921867345E+03  0.16300460516E+03  0.10000000000E+01 0.  0.
<mgrwt>
<rscale>  0 0.12500006E+03</rscale>
<asrwt>0</asrwt>
<pdfrwt beam="2">  1        4 0.34116923E-02 0.12500006E+03</pdfrwt>
<pdfrwt beam="1">  1       -4 0.27099661E-01 0.12500006E+03</pdfrwt>
<totfact> 0.90418716E+03</totfact>
</mgrwt>
</event>
<event>
 5    1  0.3269032E-002  0.1249950E+03  0.7818608E-02  0.1235077E+00
          4   -1    0    0  501    0  0.00000000000E+00  0.00000000000E+00  0.34155836808E+02  0.34179439551E+02  0.12700000000E+01 0. -1.
         -4   -1    0    0    0  501 -0.00000000000E+00 -0.00000000000E+00 -0.11428975679E+03  0.11429681276E+03  0.12700000000E+01 0. -1.
         25    2    1    2    0    0  0.00000000000E+00  0.00000000000E+00 -0.80133919983E+02  0.14847625231E+03  0.12499500938E+03 0.  0.
    9000005    1    3    3    0    0 -0.38538750490E+02  0.28752662811E+02  0.73430955887E+01  0.48650508331E+02  0.10000000000E+01 0.  0.
    9000005    1    3    3    0    0  0.38538750490E+02 -0.28752662811E+02 -0.87477015572E+02  0.99825743981E+02  0.10000000000E+01 0.  0.
<mgrwt>
<rscale>  0 0.12499501E+03</rscale>
<asrwt>0</asrwt>
<pdfrwt beam="1">  1        4 0.52571025E-02 0.12499501E+03</pdfrwt>
<pdfrwt beam="2">  1       -4 0.17585398E-01 0.12499501E+03</pdfrwt>
<totfact> 0.99619496E+03</totfact>
</mgrwt>
</event>
<event>
 5    1  0.3269032E-002  0.1250005E+03  0.7818608E-02  0.1235069E+00
         -4   -1    0    0    0  501 -0.00000000000E+00  0.00000000000E+00  0.59805484321E+02  0.59818967350E+02  0.12700000000E+01 0. -1.
          4   -1    0    0  501    0  0.00000000000E+00 -0.00000000000E+00 -0.65289401216E+02  0.65301751976E+02  0.12700000000E+01 0. -1.
         25    2    1    2    0    0  0.00000000000E+00  0.00000000000E+00 -0.54839168955E+01  0.12512071933E+03  0.12500048424E+03 0.  0.
    9000005    1    3    3    0    0 -0.45597192403E+02 -0.42708109783E+02 -0.12594298952E+01  0.62495381909E+02  0.10000000000E+01 0.  0.
    9000005    1    3    3    0    0  0.45597192403E+02  0.42708109783E+02 -0.42244870003E+01  0.62625337417E+02  0.10000000000E+01 0.  0.
<mgrwt>
<rscale>  0 0.12500048E+03</rscale>
<asrwt>0</asrwt>
<pdfrwt beam="2">  1        4 0.10046511E-01 0.12500048E+03</pdfrwt>
<pdfrwt beam="1">  1       -4 0.92028309E-02 0.12500048E+03</pdfrwt>
<totfact> 0.10450127E+04</totfact>
</mgrwt>
</event>
<event>
 5    1  0.3269032E-002  0.1249979E+03  0.7818608E-02  0.1235073E+00
          4   -1    0    0  501    0  0.00000000000E+00  0.00000000000E+00  0.12115511152E+03  0.12116176768E+03  0.12700000000E+01 0.  1.
         -4   -1    0    0    0  501 -0.00000000000E+00 -0.00000000000E+00 -0.32220603163E+02  0.32245622465E+02  0.12700000000E+01 0.  1.
         25    2    1    2    0    0  0.00000000000E+00  0.00000000000E+00  0.88934508361E+02  0.15340739015E+03  0.12499792228E+03 0.  0.
    9000005    1    3    3    0    0 -0.22071597846E+02 -0.36036699426E+02 -0.12031888616E+02  0.43949578845E+02  0.10000000000E+01 0.  0.
    9000005    1    3    3    0    0  0.22071597846E+02  0.36036699426E+02  0.10096639698E+03  0.10945781130E+03  0.10000000000E+01 0.  0.
<mgrwt>
<rscale>  0 0.12499792E+03</rscale>
<asrwt>0</asrwt>
<pdfrwt beam="1">  1        4 0.18641684E-01 0.12499792E+03</pdfrwt>
<pdfrwt beam="2">  1       -4 0.49594525E-02 0.12499792E+03</pdfrwt>
<totfact> 0.98633381E+03</totfact>
</mgrwt>
</event>
<event>
 5    1  0.3269032E-002  0.1249980E+03  0.7818608E-02  0.1235072E+00
          4   -1    0    0  501    0  0.00000000000E+00  0.00000000000E+00  0.43414388063E+02  0.43432959730E+02  0.12700000000E+01 0. -1.
         -4   -1    0    0    0  501 -0.00000000000E+00 -0.00000000000E+00 -0.89930736813E+02  0.89939703823E+02  0.12700000000E+01 0. -1.
         25    2    1    2    0    0  0.00000000000E+00  0.00000000000E+00 -0.46516348750E+02  0.13337266355E+03  0.12499798671E+03 0.  0.
    9000005    1    3    3    0    0  0.61328303165E+02 -0.11842379042E+02 -0.25316530352E+02  0.67404224049E+02  0.10000000000E+01 0.  0.
    9000005    1    3    3    0    0 -0.61328303165E+02  0.11842379042E+02 -0.21199818398E+02  0.65968439504E+02  0.10000000000E+01 0.  0.
<mgrwt>
<rscale>  0 0.12499799E+03</rscale>
<asrwt>0</asrwt>
<pdfrwt beam="1">  1        4 0.66812550E-02 0.12499799E+03</pdfrwt>
<pdfrwt beam="2">  1       -4 0.13837616E-01 0.12499799E+03</pdfrwt>
<totfact> 0.10272952E+04</totfact>
</mgrwt>
</event>
<event>
 5    1  0.3269032E-002  0.1249986E+03  0.7818608E-02  0.1235071E+00
          4   -1    0    0  501    0  0.00000000000E+00  0.00000000000E+00  0.38760939618E+01  0.40788484160E+01  0.12700000000E+01 0.  1.
         -4   -1    0    0    0  501 -0.00000000000E+00 -0.00000000000E+00 -0.98186864612E+03  0.98186946746E+03  0.12700000000E+01 0.  1.
         25    2    1    2    0    0  0.00000000000E+00  0.00000000000E+00 -0.97799255216E+03  0.98594831588E+03  0.12499859801E+03 0.  0.
    9000005    1    3    3    0    0  0.19455216375E+02 -0.24352886420E+02 -0.61778808661E+02  0.69203971857E+02  0.10000000000E+01 0.  0.
    9000005    1    3    3    0    0 -0.19455216375E+02  0.24352886420E+02 -0.91621374350E+03  0.91674434402E+03  0.10000000000E+01 0.  0.
<mgrwt>
<rscale>  0 0.12499860E+03</rscale>
<asrwt>0</asrwt>
<pdfrwt beam="1">  1        4 0.61198261E-03 0.12499860E+03</pdfrwt>
<pdfrwt beam="2">  1       -4 0.15107218E+00 0.12499860E+03</pdfrwt>
<totfact> 0.31074029E+03</totfact>
</mgrwt>
</event>
<event>
 5    1  0.3269032E-002  0.1249982E+03  0.7818608E-02  0.1235072E+00
          4   -1    0    0  501    0  0.00000000000E+00  0.00000000000E+00  0.30706698924E+03  0.30706961553E+03  0.12700000000E+01 0.  1.
         -4   -1    0    0    0  501 -0.00000000000E+00 -0.00000000000E+00 -0.12686405459E+02  0.12749815037E+02  0.12700000000E+01 0.  1.
         25    2    1    2    0    0  0.00000000000E+00  0.00000000000E+00  0.29438058378E+03  0.31981943057E+03  0.12499816023E+03 0.  0.
    9000005    1    3    3    0    0 -0.77365620503E+00 -0.67002354076E+01 -0.11764934035E+02  0.13597991444E+02  0.10000000000E+01 0.  0.
    9000005    1    3    3    0    0  0.77365620503E+00  0.67002354076E+01  0.30614551782E+03  0.30622143912E+03  0.10000000000E+01 0.  0.
<mgrwt>
<rscale>  0 0.12499816E+03</rscale>
<asrwt>0</asrwt>
<pdfrwt beam="1">  1        4 0.47246155E-01 0.12499816E+03</pdfrwt>
<pdfrwt beam="2">  1       -4 0.19568344E-02 0.12499816E+03</pdfrwt>
<totfact> 0.73180589E+03</totfact>
</mgrwt>
</event>
<event>
 5    1  0.3269032E-002  0.1249978E+03  0.7818608E-02  0.1235073E+00
          4   -1    0    0  501    0  0.00000000000E+00  0.00000000000E+00  0.45742292899E+02  0.45759919795E+02  0.12700000000E+01 0. -1.
         -4   -1    0    0    0  501 -0.00000000000E+00 -0.00000000000E+00 -0.85355134422E+02  0.85364582072E+02  0.12700000000E+01 0. -1.
         25    2    1    2    0    0  0.00000000000E+00  0.00000000000E+00 -0.39612841524E+02  0.13112450187E+03  0.12499783109E+03 0.  0.
    9000005    1    3    3    0    0 -0.36733842200E+02 -0.85871186804E+01  0.32455133501E+02  0.49773983772E+02  0.10000000000E+01 0.  0.
    9000005    1    3    3    0    0  0.36733842200E+02  0.85871186804E+01 -0.72067975025E+02  0.81350518094E+02  0.10000000000E+01 0.  0.
<mgrwt>
<rscale>  0 0.12499783E+03</rscale>
<asrwt>0</asrwt>
<pdfrwt beam="1">  1        4 0.70393585E-02 0.12499783E+03</pdfrwt>
<pdfrwt beam="2">  1       -4 0.13133642E-01 0.12499783E+03</pdfrwt>
<totfact> 0.10320926E+04</totfact>
</mgrwt>
</event>
<event>
 5    1  0.3269032E-002  0.1250135E+03  0.7818608E-02  0.1235048E+00
         -4   -1    0    0    0  501 -0.00000000000E+00  0.00000000000E+00  0.95686587408E+02  0.95695015073E+02  0.12700000000E+01 0. -1.
          4   -1    0    0  501    0  0.00000000000E+00 -0.00000000000E+00 -0.40812114514E+02  0.40831869797E+02  0.12700000000E+01 0. -1.
         25    2    1    2    0    0  0.00000000000E+00  0.00000000000E+00  0.54874472894E+02  0.13652688487E+03  0.12501352934E+03 0.  0.
    9000005    1    3    3    0    0 -0.27823383237E+02  0.11250136352E+02  0.87307551083E+02  0.92327215375E+02  0.10000000000E+01 0.  0.
    9000005    1    3    3    0    0  0.27823383237E+02 -0.11250136352E+02 -0.32433078189E+02  0.44199669496E+02  0.10000000000E+01 0.  0.
<mgrwt>
<rscale>  0 0.12501353E+03</rscale>
<asrwt>0</asrwt>
<pdfrwt beam="2">  1        4 0.62809548E-02 0.12501353E+03</pdfrwt>
<pdfrwt beam="1">  1       -4 0.14723181E-01 0.12501353E+03</pdfrwt>
<totfact> 0.10202874E+04</totfact>
</mgrwt>
</event>
<event>
 5    1  0.3269032E-002  0.1249965E+03  0.7818608E-02  0.1235075E+00
          4   -1    0    0  501    0  0.00000000000E+00  0.00000000000E+00  0.10398332956E+03  0.10399108484E+03  0.12700000000E+01 0.  1.
         -4   -1    0    0    0  501 -0.00000000000E+00 -0.00000000000E+00 -0.37544093176E+02  0.37565567111E+02  0.12700000000E+01 0.  1.
         25    2    1    2    0    0  0.00000000000E+00  0.00000000000E+00  0.66439236380E+02  0.14155665195E+03  0.12499645427E+03 0.  0.
    9000005    1    3    3    0    0 -0.41686805297E+02  0.31979861707E+02 -0.50933350484E+01  0.52796243736E+02  0.10000000000E+01 0.  0.
    9000005    1    3    3    0    0  0.41686805297E+02 -0.31979861707E+02  0.71532571428E+02  0.88760408211E+02  0.10000000000E+01 0.  0.
<mgrwt>
<rscale>  0 0.12499645E+03</rscale>
<asrwt>0</asrwt>
<pdfrwt beam="1">  1        4 0.15999684E-01 0.12499645E+03</pdfrwt>
<pdfrwt beam="2">  1       -4 0.57782627E-02 0.12499645E+03</pdfrwt>
<totfact> 0.10102232E+04</totfact>
</mgrwt>
</event>
<event>
 5    1  0.3269032E-002  0.1249989E+03  0.7818608E-02  0.1235071E+00
          4   -1    0    0  501    0  0.00000000000E+00  0.00000000000E+00  0.30451164021E+02  0.30477635903E+02  0.12700000000E+01 0. -1.
         -4   -1    0    0    0  501 -0.00000000000E+00 -0.00000000000E+00 -0.12819164186E+03  0.12819793268E+03  0.12700000000E+01 0. -1.
         25    2    1    2    0    0  0.00000000000E+00  0.00000000000E+00 -0.97740477841E+02  0.15867556858E+03  0.12499894022E+03 0.  0.
    9000005    1    3    3    0    0 -0.16918976098E+02 -0.29460755379E+01  0.27403059898E+02  0.32355197497E+02  0.10000000000E+01 0.  0.
    9000005    1    3    3    0    0  0.16918976098E+02  0.29460755379E+01 -0.12514353774E+03  0.12632037109E+03  0.10000000000E+01 0.  0.
<mgrwt>
<rscale>  0 0.12499894E+03</rscale>
<asrwt>0</asrwt>
<pdfrwt beam="1">  1        4 0.46873147E-02 0.12499894E+03</pdfrwt>
<pdfrwt beam="2">  1       -4 0.19724311E-01 0.12499894E+03</pdfrwt>
<totfact> 0.97601059E+03</totfact>
</mgrwt>
</event>
<event>
 5    1  0.3269032E-002  0.1250018E+03  0.7818608E-02  0.1235067E+00
          4   -1    0    0  501    0  0.00000000000E+00  0.00000000000E+00  0.29926558212E+02  0.29953493726E+02  0.12700000000E+01 0. -1.
         -4   -1    0    0    0  501 -0.00000000000E+00 -0.00000000000E+00 -0.13044279042E+03  0.13044897267E+03  0.12700000000E+01 0. -1.
         25    2    1    2    0    0  0.00000000000E+00  0.00000000000E+00 -0.10051623220E+03  0.16040246640E+03  0.12500175315E+03 0.  0.
    9000005    1    3    3    0    0  0.27747049555E+02  0.38097798897E+02  0.24003702286E+01  0.47202783997E+02  0.10000000000E+01 0.  0.
    9000005    1    3    3    0    0 -0.27747049555E+02 -0.38097798897E+02 -0.10291660243E+03  0.11319968240E+03  0.10000000000E+01 0.  0.
<mgrwt>
<rscale>  0 0.12500175E+03</rscale>
<asrwt>0</asrwt>
<pdfrwt beam="1">  1        4 0.46066335E-02 0.12500175E+03</pdfrwt>
<pdfrwt beam="2">  1       -4 0.20070669E-01 0.12500175E+03</pdfrwt>
<totfact> 0.97261416E+03</totfact>
</mgrwt>
</event>
<event>
 5    1  0.3269032E-002  0.1250041E+03  0.7818608E-02  0.1235063E+00
          4   -1    0    0  501    0  0.00000000000E+00  0.00000000000E+00  0.44190472412E+02  0.44208718054E+02  0.12700000000E+01 0. -1.
         -4   -1    0    0    0  501 -0.00000000000E+00 -0.00000000000E+00 -0.88360520306E+02  0.88369646648E+02  0.12700000000E+01 0. -1.
         25    2    1    2    0    0  0.00000000000E+00  0.00000000000E+00 -0.44170047894E+02  0.13257836470E+03  0.12500411856E+03 0.  0.
    9000005    1    3    3    0    0  0.34074390459E+02  0.38520065945E+02  0.15571933644E+02  0.53743322217E+02  0.10000000000E+01 0.  0.
    9000005    1    3    3    0    0 -0.34074390459E+02 -0.38520065945E+02 -0.59741981538E+02  0.78835042485E+02  0.10000000000E+01 0.  0.
<mgrwt>
<rscale>  0 0.12500412E+03</rscale>
<asrwt>0</asrwt>
<pdfrwt beam="1">  1        4 0.68006398E-02 0.12500412E+03</pdfrwt>
<pdfrwt beam="2">  1       -4 0.13596032E-01 0.12500412E+03</pdfrwt>
<totfact> 0.10288413E+04</totfact>
</mgrwt>
</event>
<event>
 5    1  0.3269032E-002  0.1250000E+03  0.7818608E-02  0.1235069E+00
          4   -1    0    0  501    0  0.00000000000E+00  0.00000000000E+00  0.20951636160E+02  0.20990091896E+02  0.12700000000E+01 0. -1.
         -4   -1    0    0    0  501 -0.00000000000E+00 -0.00000000000E+00 -0.18622975614E+03  0.18623408649E+03  0.12700000000E+01 0. -1.
         25    2    1    2    0    0  0.00000000000E+00  0.00000000000E+00 -0.16527811997E+03  0.20722417838E+03  0.12500001266E+03 0.  0.
    9000005    1    3    3    0    0 -0.42008426333E+02 -0.13811407065E+02 -0.94368724220E+01  0.45227396666E+02  0.10000000000E+01 0.  0.
    9000005    1    3    3    0    0  0.42008426333E+02  0.13811407065E+02 -0.15584124755E+03  0.16199678172E+03  0.10000000000E+01 0.  0.
<mgrwt>
<rscale>  0 0.12500001E+03</rscale>
<asrwt>0</asrwt>
<pdfrwt beam="1">  1        4 0.32266200E-02 0.12500001E+03</pdfrwt>
<pdfrwt beam="2">  1       -4 0.28654022E-01 0.12500001E+03</pdfrwt>
<totfact> 0.88931200E+03</totfact>
</mgrwt>
</event>
<event>
 5    1  0.3269032E-002  0.1250013E+03  0.7818608E-02  0.1235067E+00
         -4   -1    0    0    0  501 -0.00000000000E+00  0.00000000000E+00  0.19535334545E+02  0.19576572626E+02  0.12700000000E+01 0. -1.
          4   -1    0    0  501    0  0.00000000000E+00 -0.00000000000E+00 -0.19970828262E+03  0.19971232072E+03  0.12700000000E+01 0. -1.
         25    2    1    2    0    0  0.00000000000E+00  0.00000000000E+00 -0.18017294807E+03  0.21928889334E+03  0.12500131010E+03 0.  0.
    9000005    1    3    3    0    0 -0.15203333468E+02  0.11570155128E+02 -0.19446795533E+03  0.19540674372E+03  0.10000000000E+01 0.  0.
    9000005    1    3    3    0    0  0.15203333468E+02 -0.11570155128E+02  0.14295007260E+02  0.23882149627E+02  0.10000000000E+01 0.  0.
<mgrwt>
<rscale>  0 0.12500131E+03</rscale>
<asrwt>0</asrwt>
<pdfrwt beam="2">  1        4 0.30727833E-01 0.12500131E+03</pdfrwt>
<pdfrwt beam="1">  1       -4 0.30089190E-02 0.12500131E+03</pdfrwt>
<totfact> 0.86978453E+03</totfact>
</mgrwt>
</event>
<event>
 5    1  0.3269032E-002  0.1250009E+03  0.7818608E-02  0.1235068E+00
          4   -1    0    0  501    0  0.00000000000E+00  0.00000000000E+00  0.65238579529E+02  0.65250939908E+02  0.12700000000E+01 0. -1.
         -4   -1    0    0    0  501 -0.00000000000E+00 -0.00000000000E+00 -0.59852428955E+02  0.59865901411E+02  0.12700000000E+01 0. -1.
         25    2    1    2    0    0  0.00000000000E+00  0.00000000000E+00  0.53861505740E+01  0.12511684132E+03  0.12500085345E+03 0.  0.
    9000005    1    3    3    0    0  0.95795565321E+01  0.83913034680E+01 -0.58544749184E+02  0.59922195673E+02  0.10000000000E+01 0.  0.
    9000005    1    3    3    0    0 -0.95795565321E+01 -0.83913034680E+01  0.63930899758E+02  0.65194645647E+02  0.10000000000E+01 0.  0.
<mgrwt>
<rscale>  0 0.12500085E+03</rscale>
<asrwt>0</asrwt>
<pdfrwt beam="1">  1        4 0.10038692E-01 0.12500085E+03</pdfrwt>
<pdfrwt beam="2">  1       -4 0.92100531E-02 0.12500085E+03</pdfrwt>
<totfact> 0.10450124E+04</totfact>
</mgrwt>
</event>
<event>
 5    1  0.3269032E-002  0.1250017E+03  0.7818608E-02  0.1235067E+00
         -4   -1    0    0    0  501 -0.00000000000E+00  0.00000000000E+00  0.82186882553E+02  0.82196694360E+02  0.12700000000E+01 0.  1.
          4   -1    0    0  501    0  0.00000000000E+00 -0.00000000000E+00 -0.47509020752E+02  0.47525992392E+02  0.12700000000E+01 0.  1.
         25    2    1    2    0    0  0.00000000000E+00  0.00000000000E+00  0.34677861801E+02  0.12972268675E+03  0.12500168543E+03 0.  0.
    9000005    1    3    3    0    0  0.42845861884E+02  0.45276238688E+02  0.12738720541E+02  0.63631601200E+02  0.10000000000E+01 0.  0.
    9000005    1    3    3    0    0 -0.42845861884E+02 -0.45276238688E+02  0.21939141259E+02  0.66091085552E+02  0.10000000000E+01 0.  0.
<mgrwt>
<rscale>  0 0.12500169E+03</rscale>
<asrwt>0</asrwt>
<pdfrwt beam="2">  1        4 0.73111404E-02 0.12500169E+03</pdfrwt>
<pdfrwt beam="1">  1       -4 0.12646196E-01 0.12500169E+03</pdfrwt>
<totfact> 0.10350050E+04</totfact>
</mgrwt>
</event>
<event>
 5    1  0.3269032E-002  0.1250005E+03  0.7818608E-02  0.1235068E+00
         -4   -1    0    0    0  501 -0.00000000000E+00  0.00000000000E+00  0.13078492870E+03  0.13079109478E+03  0.12700000000E+01 0. -1.
          4   -1    0    0  501    0  0.00000000000E+00 -0.00000000000E+00 -0.29847618824E+02  0.29874625512E+02  0.12700000000E+01 0. -1.
         25    2    1    2    0    0  0.00000000000E+00  0.00000000000E+00  0.10093730987E+03  0.16066572030E+03  0.12500053261E+03 0.  0.
    9000005    1    3    3    0    0  0.27415888866E+02  0.47455894136E+02  0.89062318838E+02  0.10457910636E+03  0.10000000000E+01 0.  0.
    9000005    1    3    3    0    0 -0.27415888866E+02 -0.47455894136E+02  0.11874991037E+02  0.56086613935E+02  0.10000000000E+01 0.  0.
<mgrwt>
<rscale>  0 0.12500053E+03</rscale>
<asrwt>0</asrwt>
<pdfrwt beam="2">  1        4 0.45944932E-02 0.12500053E+03</pdfrwt>
<pdfrwt beam="1">  1       -4 0.20123310E-01 0.12500053E+03</pdfrwt>
<totfact> 0.97213429E+03</totfact>
</mgrwt>
</event>
<event>
 5    1  0.3269032E-002  0.1249958E+03  0.7818608E-02  0.1235076E+00
         -4   -1    0    0    0  501 -0.00000000000E+00  0.00000000000E+00  0.82636472666E+01  0.83606678050E+01  0.12700000000E+01 0.  1.
          4   -1    0    0  501    0  0.00000000000E+00 -0.00000000000E+00 -0.46981475960E+03  0.46981647613E+03  0.12700000000E+01 0.  1.
         25    2    1    2    0    0  0.00000000000E+00  0.00000000000E+00 -0.46155111234E+03  0.47817714393E+03  0.12499580665E+03 0.  0.
    9000005    1    3    3    0    0 -0.36755084218E+01 -0.32180488230E+02 -0.43521489515E+03  0.43641963538E+03  0.10000000000E+01 0.  0.
    9000005    1    3    3    0    0  0.36755084218E+01  0.32180488230E+02 -0.26336217189E+02  0.41757508555E+02  0.10000000000E+01 0.  0.
<mgrwt>
<rscale>  0 0.12499581E+03</rscale>
<asrwt>0</asrwt>
<pdfrwt beam="2">  1        4 0.72286768E-01 0.12499581E+03</pdfrwt>
<pdfrwt beam="1">  1       -4 0.12789259E-02 0.12499581E+03</pdfrwt>
<totfact> 0.57603543E+03</totfact>
</mgrwt>
</event>
<event>
 5    1  0.3269032E-002  0.1249992E+03  0.7818608E-02  0.1235070E+00
          4   -1    0    0  501    0  0.00000000000E+00  0.00000000000E+00  0.38585896176E+03  0.38586105177E+03  0.12700000000E+01 0. -1.
         -4   -1    0    0    0  501 -0.00000000000E+00 -0.00000000000E+00 -0.10081436623E+02  0.10161115312E+02  0.12700000000E+01 0. -1.
         25    2    1    2    0    0  0.00000000000E+00  0.00000000000E+00  0.37577752514E+03  0.39602216708E+03  0.12499923368E+03 0.  0.
    9000005    1    3    3    0    0  0.14778782603E+02 -0.41745916966E+01 -0.40255890195E+01  0.15907388159E+02  0.10000000000E+01 0.  0.
    9000005    1    3    3    0    0 -0.14778782603E+02  0.41745916966E+01  0.37980311416E+03  0.38011477892E+03  0.10000000000E+01 0.  0.
<mgrwt>
<rscale>  0 0.12499923E+03</rscale>
<asrwt>0</asrwt>
<pdfrwt beam="1">  1        4 0.59369211E-01 0.12499923E+03</pdfrwt>
<pdfrwt beam="2">  1       -4 0.15572801E-02 0.12499923E+03</pdfrwt>
<totfact> 0.64942611E+03</totfact>
</mgrwt>
</event>
<event>
 5    1  0.3269032E-002  0.1250024E+03  0.7818608E-02  0.1235066E+00
         -4   -1    0    0    0  501 -0.00000000000E+00  0.00000000000E+00  0.40068862476E+03  0.40069063741E+03  0.12700000000E+01 0. -1.
          4   -1    0    0  501    0  0.00000000000E+00 -0.00000000000E+00 -0.97058082641E+01  0.97885450430E+01  0.12700000000E+01 0. -1.
         25    2    1    2    0    0  0.00000000000E+00  0.00000000000E+00  0.39098281649E+03  0.41047918246E+03  0.12500238572E+03 0.  0.
    9000005    1    3    3    0    0  0.53729696846E+02 -0.29868692183E+02  0.15857562961E+03  0.17007718660E+03  0.10000000000E+01 0.  0.
    9000005    1    3    3    0    0 -0.53729696846E+02  0.29868692183E+02  0.23240718688E+03  0.24040199586E+03  0.10000000000E+01 0.  0.
<mgrwt>
<rscale>  0 0.12500239E+03</rscale>
<asrwt>0</asrwt>
<pdfrwt beam="2">  1        4 0.14997204E-02 0.12500239E+03</pdfrwt>
<pdfrwt beam="1">  1       -4 0.61650927E-01 0.12500239E+03</pdfrwt>
<totfact> 0.63542850E+03</totfact>
</mgrwt>
</event>
<event>
 5    1  0.3269032E-002  0.1250013E+03  0.7818608E-02  0.1235067E+00
         -4   -1    0    0    0  501 -0.00000000000E+00  0.00000000000E+00  0.32501580774E+02  0.32526383949E+02  0.12700000000E+01 0.  1.
          4   -1    0    0  501    0  0.00000000000E+00 -0.00000000000E+00 -0.12011496437E+03  0.12012167817E+03  0.12700000000E+01 0.  1.
         25    2    1    2    0    0  0.00000000000E+00  0.00000000000E+00 -0.87613383600E+02  0.15264806212E+03  0.12500130353E+03 0.  0.
    9000005    1    3    3    0    0  0.61255936158E+02 -0.59069717579E+01 -0.57080409856E+02  0.83942570960E+02  0.10000000000E+01 0.  0.
    9000005    1    3    3    0    0 -0.61255936158E+02  0.59069717579E+01 -0.30532973743E+02  0.68705491160E+02  0.10000000000E+01 0.  0.
<mgrwt>
<rscale>  0 0.12500130E+03</rscale>
<asrwt>0</asrwt>
<pdfrwt beam="2">  1        4 0.18481649E-01 0.12500130E+03</pdfrwt>
<pdfrwt beam="1">  1       -4 0.50026677E-02 0.12500130E+03</pdfrwt>
<totfact> 0.98775545E+03</totfact>
</mgrwt>
</event>
<event>
 5    1  0.3269032E-002  0.1250008E+03  0.7818608E-02  0.1235068E+00
          4   -1    0    0  501    0  0.00000000000E+00  0.00000000000E+00  0.65255097482E+02  0.65267454733E+02  0.12700000000E+01 0.  1.
         -4   -1    0    0    0  501 -0.00000000000E+00 -0.00000000000E+00 -0.59837240779E+02  0.59850716654E+02  0.12700000000E+01 0.  1.
         25    2    1    2    0    0  0.00000000000E+00  0.00000000000E+00  0.54178567031E+01  0.12511817139E+03  0.12500081456E+03 0.  0.
    9000005    1    3    3    0    0  0.36588768574E+02  0.41021573737E+02  0.32465502208E+02  0.63847602392E+02  0.10000000000E+01 0.  0.
    9000005    1    3    3    0    0 -0.36588768574E+02 -0.41021573737E+02 -0.27047645505E+02  0.61270568995E+02  0.10000000000E+01 0.  0.
<mgrwt>
<rscale>  0 0.12500081E+03</rscale>
<asrwt>0</asrwt>
<pdfrwt beam="1">  1        4 0.10041233E-01 0.12500081E+03</pdfrwt>
<pdfrwt beam="2">  1       -4 0.92077165E-02 0.12500081E+03</pdfrwt>
<totfact> 0.10450104E+04</totfact>
</mgrwt>
</event>
<event>
 5    1  0.3269032E-002  0.1250093E+03  0.7818608E-02  0.1235055E+00
          4   -1    0    0  501    0  0.00000000000E+00  0.00000000000E+00  0.31536263871E+02  0.31561825659E+02  0.12700000000E+01 0. -1.
         -4   -1    0    0    0  501 -0.00000000000E+00 -0.00000000000E+00 -0.12380480832E+03  0.12381132203E+03  0.12700000000E+01 0. -1.
         25    2    1    2    0    0  0.00000000000E+00  0.00000000000E+00 -0.92268544446E+02  0.15537314769E+03  0.12500932256E+03 0.  0.
    9000005    1    3    3    0    0  0.47026086976E+02 -0.40747876964E+02 -0.38888054615E+02  0.73383398157E+02  0.10000000000E+01 0.  0.
    9000005    1    3    3    0    0 -0.47026086976E+02  0.40747876964E+02 -0.53380489831E+02  0.81989749530E+02  0.10000000000E+01 0.  0.
<mgrwt>
<rscale>  0 0.12500932E+03</rscale>
<asrwt>0</asrwt>
<pdfrwt beam="1">  1        4 0.48542003E-02 0.12500932E+03</pdfrwt>
<pdfrwt beam="2">  1       -4 0.19049361E-01 0.12500932E+03</pdfrwt>
<totfact> 0.98221701E+03</totfact>
</mgrwt>
</event>
<event>
 5    1  0.3269032E-002  0.1250047E+03  0.7818608E-02  0.1235062E+00
         -4   -1    0    0    0  501 -0.00000000000E+00  0.00000000000E+00  0.18771137879E+02  0.18814051060E+02  0.12700000000E+01 0. -1.
          4   -1    0    0  501    0  0.00000000000E+00 -0.00000000000E+00 -0.20783189419E+03  0.20783577445E+03  0.12700000000E+01 0. -1.
         25    2    1    2    0    0  0.00000000000E+00  0.00000000000E+00 -0.18906075631E+03  0.22664982551E+03  0.12500469522E+03 0.  0.
    9000005    1    3    3    0    0  0.12966932143E+02 -0.60191544962E+02 -0.75139200235E+02  0.97149692876E+02  0.10000000000E+01 0.  0.
    9000005    1    3    3    0    0 -0.12966932143E+02  0.60191544962E+02 -0.11392155607E+03  0.12950013263E+03  0.10000000000E+01 0.  0.
<mgrwt>
<rscale>  0 0.12500470E+03</rscale>
<asrwt>0</asrwt>
<pdfrwt beam="2">  1        4 0.31977735E-01 0.12500470E+03</pdfrwt>
<pdfrwt beam="1">  1       -4 0.28914670E-02 0.12500470E+03</pdfrwt>
<totfact> 0.85817696E+03</totfact>
</mgrwt>
</event>
<event>
 5    1  0.3269032E-002  0.1250042E+03  0.7818608E-02  0.1235063E+00
          4   -1    0    0  501    0  0.00000000000E+00  0.00000000000E+00  0.66003674564E+02  0.66015891692E+02  0.12700000000E+01 0.  1.
         -4   -1    0    0    0  501 -0.00000000000E+00 -0.00000000000E+00 -0.59161767677E+02  0.59175397376E+02  0.12700000000E+01 0.  1.
         25    2    1    2    0    0  0.00000000000E+00  0.00000000000E+00  0.68419068871E+01  0.12519128907E+03  0.12500418861E+03 0.  0.
    9000005    1    3    3    0    0  0.22372923379E+02 -0.48843281216E+02  0.35395185740E+02  0.64343088161E+02  0.10000000000E+01 0.  0.
    9000005    1    3    3    0    0 -0.22372923379E+02  0.48843281216E+02 -0.28553278853E+02  0.60848200908E+02  0.10000000000E+01 0.  0.
<mgrwt>
<rscale>  0 0.12500419E+03</rscale>
<asrwt>0</asrwt>
<pdfrwt beam="1">  1        4 0.10156400E-01 0.12500419E+03</pdfrwt>
<pdfrwt beam="2">  1       -4 0.91037987E-02 0.12500419E+03</pdfrwt>
<totfact> 0.10447720E+04</totfact>
</mgrwt>
</event>
<event>
 5    1  0.3269032E-002  0.1250229E+03  0.7818608E-02  0.1235034E+00
          4   -1    0    0  501    0  0.00000000000E+00  0.00000000000E+00  0.62862822001E+01  0.64132865131E+01  0.12700000000E+01 0. -1.
         -4   -1    0    0    0  501 -0.00000000000E+00 -0.00000000000E+00 -0.61527602702E+03  0.61527733773E+03  0.12700000000E+01 0. -1.
         25    2    1    2    0    0  0.00000000000E+00  0.00000000000E+00 -0.60898974482E+03  0.62169062425E+03  0.12502288981E+03 0.  0.
    9000005    1    3    3    0    0  0.22639806596E+02 -0.15885891429E+02 -0.58321682389E+03  0.58387309072E+03  0.10000000000E+01 0.  0.
    9000005    1    3    3    0    0 -0.22639806596E+02  0.15885891429E+02 -0.25772920928E+02  0.37817533531E+02  0.10000000000E+01 0.  0.
<mgrwt>
<rscale>  0 0.12502289E+03</rscale>
<asrwt>0</asrwt>
<pdfrwt beam="1">  1        4 0.97699121E-03 0.12502289E+03</pdfrwt>
<pdfrwt beam="2">  1       -4 0.94667674E-01 0.12502289E+03</pdfrwt>
<totfact> 0.47502632E+03</totfact>
</mgrwt>
</event>
<event>
 5    1  0.3269032E-002  0.1250051E+03  0.7818608E-02  0.1235061E+00
          4   -1    0    0  501    0  0.00000000000E+00  0.00000000000E+00  0.22106139820E+03  0.22106504625E+03  0.12700000000E+01 0.  1.
         -4   -1    0    0    0  501 -0.00000000000E+00 -0.00000000000E+00 -0.17645242703E+02  0.17690887203E+02  0.12700000000E+01 0.  1.
         25    2    1    2    0    0  0.00000000000E+00  0.00000000000E+00  0.20341615550E+03  0.23875593346E+03  0.12500505367E+03 0.  0.
    9000005    1    3    3    0    0 -0.30908535435E+02  0.43134693587E+02  0.16475522381E+03  0.17309310537E+03  0.10000000000E+01 0.  0.
    9000005    1    3    3    0    0  0.30908535435E+02 -0.43134693587E+02  0.38660931692E+02  0.65662828091E+02  0.10000000000E+01 0.  0.
<mgrwt>
<rscale>  0 0.12500505E+03</rscale>
<asrwt>0</asrwt>
<pdfrwt beam="1">  1        4 0.34013237E-01 0.12500505E+03</pdfrwt>
<pdfrwt beam="2">  1       -4 0.27184445E-02 0.12500505E+03</pdfrwt>
<totfact> 0.83973536E+03</totfact>
</mgrwt>
</event>
<event>
 5    1  0.3269032E-002  0.1249668E+03  0.7818608E-02  0.1235121E+00
         -4   -1    0    0    0  501 -0.00000000000E+00  0.00000000000E+00  0.13494727402E+02  0.13554356040E+02  0.12700000000E+01 0. -1.
          4   -1    0    0  501    0  0.00000000000E+00 -0.00000000000E+00 -0.28861216227E+03  0.28861495649E+03  0.12700000000E+01 0. -1.
         25    2    1    2    0    0  0.00000000000E+00  0.00000000000E+00 -0.27511743487E+03  0.30216931253E+03  0.12496675745E+03 0.  0.
    9000005    1    3    3    0    0 -0.42427826007E+01 -0.47883299529E+02 -0.23404745556E+03  0.23893518584E+03  0.10000000000E+01 0.  0.
    9000005    1    3    3    0    0  0.42427826007E+01  0.47883299529E+02 -0.41069979307E+02  0.63234126690E+02  0.10000000000E+01 0.  0.
<mgrwt>
<rscale>  0 0.12496676E+03</rscale>
<asrwt>0</asrwt>
<pdfrwt beam="2">  1        4 0.44406668E-01 0.12496676E+03</pdfrwt>
<pdfrwt beam="1">  1       -4 0.20809139E-02 0.12496676E+03</pdfrwt>
<totfact> 0.75383137E+03</totfact>
</mgrwt>
</event>
<event>
 5    1  0.3269032E-002  0.1249987E+03  0.7818608E-02  0.1235071E+00
          4   -1    0    0  501    0  0.00000000000E+00  0.00000000000E+00  0.13573978569E+03  0.13574572670E+03  0.12700000000E+01 0. -1.
         -4   -1    0    0    0  501 -0.00000000000E+00 -0.00000000000E+00 -0.28756288930E+02  0.28784319569E+02  0.12700000000E+01 0. -1.
         25    2    1    2    0    0  0.00000000000E+00  0.00000000000E+00  0.10698349676E+03  0.16453004627E+03  0.12499867019E+03 0.  0.
    9000005    1    3    3    0    0 -0.32831797858E+02  0.32133940309E+02  0.10925263705E+03  0.11852280697E+03  0.10000000000E+01 0.  0.
    9000005    1    3    3    0    0  0.32831797858E+02 -0.32133940309E+02 -0.22691402921E+01  0.46007239300E+02  0.10000000000E+01 0.  0.
<mgrwt>
<rscale>  0 0.12499867E+03</rscale>
<asrwt>0</asrwt>
<pdfrwt beam="1">  1        4 0.20885657E-01 0.12499867E+03</pdfrwt>
<pdfrwt beam="2">  1       -4 0.44266577E-02 0.12499867E+03</pdfrwt>
<totfact> 0.96479350E+03</totfact>
</mgrwt>
</event>
<event>
 5    1  0.3269032E-002  0.1250058E+03  0.7818608E-02  0.1235060E+00
         -4   -1    0    0    0  501 -0.00000000000E+00  0.00000000000E+00  0.22231020073E+01  0.25602895412E+01  0.12700000000E+01 0. -1.
          4   -1    0    0  501    0  0.00000000000E+00 -0.00000000000E+00 -0.16330696311E+04  0.16330701249E+04  0.12700000000E+01 0. -1.
         25    2    1    2    0    0  0.00000000000E+00  0.00000000000E+00 -0.16308465291E+04  0.16356304145E+04  0.12500580495E+03 0.  0.
    9000005    1    3    3    0    0 -0.24000073667E+02 -0.37306709438E+02 -0.23943773959E+03  0.24351432247E+03  0.10000000000E+01 0.  0.
    9000005    1    3    3    0    0  0.24000073667E+02  0.37306709438E+02 -0.13914087895E+04  0.13921160920E+04  0.10000000000E+01 0.  0.
<mgrwt>
<rscale>  0 0.12500580E+03</rscale>
<asrwt>0</asrwt>
<pdfrwt beam="2">  1        4 0.25126657E+00 0.12500580E+03</pdfrwt>
<pdfrwt beam="1">  1       -4 0.36799249E-03 0.12500580E+03</pdfrwt>
<totfact> 0.15408784E+03</totfact>
</mgrwt>
</event>
<event>
 5    1  0.3269032E-002  0.1250046E+03  0.7818608E-02  0.1235062E+00
          4   -1    0    0  501    0  0.00000000000E+00  0.00000000000E+00  0.43868470461E+03  0.43868654295E+03  0.12700000000E+01 0.  1.
         -4   -1    0    0    0  501 -0.00000000000E+00 -0.00000000000E+00 -0.88579612651E+01  0.89485405388E+01  0.12700000000E+01 0.  1.
         25    2    1    2    0    0  0.00000000000E+00  0.00000000000E+00  0.42982674335E+03  0.44763508349E+03  0.12500455459E+03 0.  0.
    9000005    1    3    3    0    0 -0.49352450135E+02 -0.25174604326E+02  0.31845855297E+03  0.32324336807E+03  0.10000000000E+01 0.  0.
    9000005    1    3    3    0    0  0.49352450135E+02  0.25174604326E+02  0.11136819038E+03  0.12439171542E+03  0.10000000000E+01 0.  0.
<mgrwt>
<rscale>  0 0.12500455E+03</rscale>
<asrwt>0</asrwt>
<pdfrwt beam="1">  1        4 0.67497061E-01 0.12500455E+03</pdfrwt>
<pdfrwt beam="2">  1       -4 0.13698724E-02 0.12500455E+03</pdfrwt>
<totfact> 0.60163179E+03</totfact>
</mgrwt>
</event>
<event>
 5    1  0.3269032E-002  0.1250055E+03  0.7818608E-02  0.1235061E+00
          4   -1    0    0  501    0  0.00000000000E+00  0.00000000000E+00  0.29614351766E+02  0.29641570986E+02  0.12700000000E+01 0. -1.
         -4   -1    0    0    0  501 -0.00000000000E+00 -0.00000000000E+00 -0.13182462632E+03  0.13183074377E+03  0.12700000000E+01 0. -1.
         25    2    1    2    0    0  0.00000000000E+00  0.00000000000E+00 -0.10221027455E+03  0.16147231476E+03  0.12500547272E+03 0.  0.
    9000005    1    3    3    0    0  0.71659762582E+01 -0.54624889403E+02 -0.12996880882E+02  0.56614032454E+02  0.10000000000E+01 0.  0.
    9000005    1    3    3    0    0 -0.71659762582E+01  0.54624889403E+02 -0.89213393670E+02  0.10485828231E+03  0.10000000000E+01 0.  0.
<mgrwt>
<rscale>  0 0.12500547E+03</rscale>
<asrwt>0</asrwt>
<pdfrwt beam="1">  1        4 0.45586185E-02 0.12500547E+03</pdfrwt>
<pdfrwt beam="2">  1       -4 0.20283276E-01 0.12500547E+03</pdfrwt>
<totfact> 0.97047747E+03</totfact>
</mgrwt>
</event>
<event>
 5    1  0.3269032E-002  0.1249966E+03  0.7818608E-02  0.1235075E+00
          4   -1    0    0  501    0  0.00000000000E+00  0.00000000000E+00  0.58513188900E+02  0.58526969640E+02  0.12700000000E+01 0. -1.
         -4   -1    0    0    0  501 -0.00000000000E+00 -0.00000000000E+00 -0.66727162097E+02  0.66739246786E+02  0.12700000000E+01 0. -1.
         25    2    1    2    0    0  0.00000000000E+00  0.00000000000E+00 -0.82139731976E+01  0.12526621643E+03  0.12499662244E+03 0.  0.
    9000005    1    3    3    0    0  0.57535393463E+02 -0.20823417384E+02 -0.16826985743E+02  0.63467185708E+02  0.10000000000E+01 0.  0.
    9000005    1    3    3    0    0 -0.57535393463E+02  0.20823417384E+02  0.86130125454E+01  0.61799030718E+02  0.10000000000E+01 0.  0.
<mgrwt>
<rscale>  0 0.12499662E+03</rscale>
<asrwt>0</asrwt>
<pdfrwt beam="1">  1        4 0.90040187E-02 0.12499662E+03</pdfrwt>
<pdfrwt beam="2">  1       -4 0.10267707E-01 0.12499662E+03</pdfrwt>
<totfact> 0.10447881E+04</totfact>
</mgrwt>
</event>
<event>
 5    1  0.3269032E-002  0.1250027E+03  0.7818608E-02  0.1235065E+00
         -4   -1    0    0    0  501 -0.00000000000E+00  0.00000000000E+00  0.13546923378E+03  0.13547518667E+03  0.12700000000E+01 0. -1.
          4   -1    0    0  501    0  0.00000000000E+00 -0.00000000000E+00 -0.28815649327E+02  0.28843622279E+02  0.12700000000E+01 0. -1.
         25    2    1    2    0    0  0.00000000000E+00  0.00000000000E+00  0.10665358446E+03  0.16431880894E+03  0.12500273555E+03 0.  0.
    9000005    1    3    3    0    0 -0.61463297332E+01  0.16911878827E+02  0.13199662725E+03  0.13322123938E+03  0.10000000000E+01 0.  0.
    9000005    1    3    3    0    0  0.61463297332E+01 -0.16911878827E+02 -0.25343042798E+02  0.31097569566E+02  0.10000000000E+01 0.  0.
<mgrwt>
<rscale>  0 0.12500274E+03</rscale>
<asrwt>0</asrwt>
<pdfrwt beam="2">  1        4 0.44357866E-02 0.12500274E+03</pdfrwt>
<pdfrwt beam="1">  1       -4 0.20844030E-01 0.12500274E+03</pdfrwt>
<totfact> 0.96510623E+03</totfact>
</mgrwt>
</event>
<event>
 5    1  0.3269032E-002  0.1249995E+03  0.7818608E-02  0.1235070E+00
          4   -1    0    0  501    0  0.00000000000E+00  0.00000000000E+00  0.44700425153E+02  0.44718462729E+02  0.12700000000E+01 0. -1.
         -4   -1    0    0    0  501 -0.00000000000E+00 -0.00000000000E+00 -0.87346291734E+02  0.87355524036E+02  0.12700000000E+01 0. -1.
         25    2    1    2    0    0  0.00000000000E+00  0.00000000000E+00 -0.42645866581E+02  0.13207398677E+03  0.12499947217E+03 0.  0.
    9000005    1    3    3    0    0 -0.37926376631E+02 -0.62661203699E+01  0.30735674259E+02  0.49227593695E+02  0.10000000000E+01 0.  0.
    9000005    1    3    3    0    0  0.37926376631E+02  0.62661203699E+01 -0.73381540840E+02  0.82846393071E+02  0.10000000000E+01 0.  0.
<mgrwt>
<rscale>  0 0.12499947E+03</rscale>
<asrwt>0</asrwt>
<pdfrwt beam="1">  1        4 0.68790862E-02 0.12499947E+03</pdfrwt>
<pdfrwt beam="2">  1       -4 0.13439989E-01 0.12499947E+03</pdfrwt>
<totfact> 0.10300242E+04</totfact>
</mgrwt>
</event>
<event>
 5    1  0.3269032E-002  0.1249998E+03  0.7818608E-02  0.1235070E+00
         -4   -1    0    0    0  501 -0.00000000000E+00  0.00000000000E+00  0.13242487091E+03  0.13243096064E+03  0.12700000000E+01 0. -1.
          4   -1    0    0  501    0  0.00000000000E+00 -0.00000000000E+00 -0.29477319972E+02  0.29504665610E+02  0.12700000000E+01 0. -1.
         25    2    1    2    0    0  0.00000000000E+00  0.00000000000E+00  0.10294755094E+03  0.16193562625E+03  0.12499979522E+03 0.  0.
    9000005    1    3    3    0    0 -0.32243475043E+02 -0.53385769568E+02  0.56583175058E+02  0.84216018517E+02  0.10000000000E+01 0.  0.
    9000005    1    3    3    0    0  0.32243475043E+02  0.53385769568E+02  0.46364375881E+02  0.77719607732E+02  0.10000000000E+01 0.  0.
<mgrwt>
<rscale>  0 0.12499980E+03</rscale>
<asrwt>0</asrwt>
<pdfrwt beam="2">  1        4 0.45375442E-02 0.12499980E+03</pdfrwt>
<pdfrwt beam="1">  1       -4 0.20375629E-01 0.12499980E+03</pdfrwt>
<totfact> 0.96971350E+03</totfact>
</mgrwt>
</event>
<event>
 5    1  0.3269032E-002  0.1250004E+03  0.7818608E-02  0.1235069E+00
         -4   -1    0    0    0  501 -0.00000000000E+00  0.00000000000E+00  0.66381549085E+03  0.66381670572E+03  0.12700000000E+01 0. -1.
          4   -1    0    0  501    0  0.00000000000E+00 -0.00000000000E+00 -0.58148256467E+01  0.59518986300E+01  0.12700000000E+01 0. -1.
         25    2    1    2    0    0  0.00000000000E+00  0.00000000000E+00  0.65800066520E+03  0.66976860435E+03  0.12500043186E+03 0.  0.
    9000005    1    3    3    0    0 -0.60437280516E+02 -0.71476156195E+01  0.40506383921E+03  0.40961136108E+03  0.10000000000E+01 0.  0.
    9000005    1    3    3    0    0  0.60437280516E+02  0.71476156195E+01  0.25293682599E+03  0.26015724327E+03  0.10000000000E+01 0.  0.
<mgrwt>
<rscale>  0 0.12500043E+03</rscale>
<asrwt>0</asrwt>
<pdfrwt beam="2">  1        4 0.90522605E-03 0.12500043E+03</pdfrwt>
<pdfrwt beam="1">  1       -4 0.10213610E+00 0.12500043E+03</pdfrwt>
<totfact> 0.44730888E+03</totfact>
</mgrwt>
</event>
<event>
 5    1  0.3269032E-002  0.1250035E+03  0.7818608E-02  0.1235064E+00
         -4   -1    0    0    0  501 -0.00000000000E+00  0.00000000000E+00  0.19752934826E+02  0.19793719566E+02  0.12700000000E+01 0.  1.
          4   -1    0    0  501    0  0.00000000000E+00 -0.00000000000E+00 -0.19751968154E+03  0.19752376438E+03  0.12700000000E+01 0.  1.
         25    2    1    2    0    0  0.00000000000E+00  0.00000000000E+00 -0.17776674671E+03  0.21731748394E+03  0.12500349032E+03 0.  0.
    9000005    1    3    3    0    0 -0.40334150849E+02 -0.23034928886E+02 -0.16156845615E+03  0.16811548916E+03  0.10000000000E+01 0.  0.
    9000005    1    3    3    0    0  0.40334150849E+02  0.23034928886E+02 -0.16198290561E+02  0.49201994783E+02  0.10000000000E+01 0.  0.
<mgrwt>
<rscale>  0 0.12500349E+03</rscale>
<asrwt>0</asrwt>
<pdfrwt beam="2">  1        4 0.30391093E-01 0.12500349E+03</pdfrwt>
<pdfrwt beam="1">  1       -4 0.30423645E-02 0.12500349E+03</pdfrwt>
<totfact> 0.87287804E+03</totfact>
</mgrwt>
</event>
<event>
 5    1  0.3269032E-002  0.1250006E+03  0.7818608E-02  0.1235068E+00
          4   -1    0    0  501    0  0.00000000000E+00  0.00000000000E+00  0.31546752567E+02  0.31572305863E+02  0.12700000000E+01 0.  1.
         -4   -1    0    0    0  501 -0.00000000000E+00 -0.00000000000E+00 -0.12374645043E+03  0.12375296721E+03  0.12700000000E+01 0.  1.
         25    2    1    2    0    0  0.00000000000E+00  0.00000000000E+00 -0.92199697862E+02  0.15532527307E+03  0.12500062468E+03 0.  0.
    9000005    1    3    3    0    0  0.16918205881E+02 -0.54849198180E+02 -0.15394178214E+02  0.59436024044E+02  0.10000000000E+01 0.  0.
    9000005    1    3    3    0    0 -0.16918205881E+02  0.54849198180E+02 -0.76805519648E+02  0.95889249031E+02  0.10000000000E+01 0.  0.
<mgrwt>
<rscale>  0 0.12500062E+03</rscale>
<asrwt>0</asrwt>
<pdfrwt beam="1">  1        4 0.48558136E-02 0.12500062E+03</pdfrwt>
<pdfrwt beam="2">  1       -4 0.19040382E-01 0.12500062E+03</pdfrwt>
<totfact> 0.98250301E+03</totfact>
</mgrwt>
</event>
<event>
 5    1  0.3269032E-002  0.1249937E+03  0.7818608E-02  0.1235079E+00
          4   -1    0    0  501    0  0.00000000000E+00  0.00000000000E+00  0.11007200303E+03  0.11007932936E+03  0.12700000000E+01 0. -1.
         -4   -1    0    0    0  501 -0.00000000000E+00 -0.00000000000E+00 -0.35464675667E+02  0.35487407910E+02  0.12700000000E+01 0. -1.
         25    2    1    2    0    0  0.00000000000E+00  0.00000000000E+00  0.74607327366E+02  0.14556673727E+03  0.12499368665E+03 0.  0.
    9000005    1    3    3    0    0 -0.14889732367E+02  0.43517588416E+02 -0.11959720475E+02  0.47534403808E+02  0.10000000000E+01 0.  0.
    9000005    1    3    3    0    0  0.14889732367E+02 -0.43517588416E+02  0.86567047841E+02  0.98032333459E+02  0.10000000000E+01 0.  0.
<mgrwt>
<rscale>  0 0.12499369E+03</rscale>
<asrwt>0</asrwt>
<pdfrwt beam="1">  1        4 0.16936466E-01 0.12499369E+03</pdfrwt>
<pdfrwt beam="2">  1       -4 0.54584163E-02 0.12499369E+03</pdfrwt>
<totfact> 0.10020911E+04</totfact>
</mgrwt>
</event>
<event>
 5    1  0.3269032E-002  0.1249941E+03  0.7818608E-02  0.1235078E+00
          4   -1    0    0  501    0  0.00000000000E+00  0.00000000000E+00  0.22776032335E+02  0.22811412690E+02  0.12700000000E+01 0.  1.
         -4   -1    0    0    0  501 -0.00000000000E+00 -0.00000000000E+00 -0.17132005486E+03  0.17132476207E+03  0.12700000000E+01 0.  1.
         25    2    1    2    0    0  0.00000000000E+00  0.00000000000E+00 -0.14854402253E+03  0.19413617476E+03  0.12499411075E+03 0.  0.
    9000005    1    3    3    0    0 -0.47502012490E+02  0.18394746176E+02 -0.13048864540E+03  0.14008245592E+03  0.10000000000E+01 0.  0.
    9000005    1    3    3    0    0  0.47502012490E+02 -0.18394746176E+02 -0.18055377129E+02  0.54053718843E+02  0.10000000000E+01 0.  0.
<mgrwt>
<rscale>  0 0.12499411E+03</rscale>
<asrwt>0</asrwt>
<pdfrwt beam="1">  1        4 0.35070887E-02 0.12499411E+03</pdfrwt>
<pdfrwt beam="2">  1       -4 0.26360014E-01 0.12499411E+03</pdfrwt>
<totfact> 0.91144592E+03</totfact>
</mgrwt>
</event>
<event>
 5    1  0.3269032E-002  0.1250009E+03  0.7818608E-02  0.1235068E+00
          4   -1    0    0  501    0  0.00000000000E+00  0.00000000000E+00  0.10752335092E+03  0.10753085089E+03  0.12700000000E+01 0.  1.
         -4   -1    0    0    0  501 -0.00000000000E+00 -0.00000000000E+00 -0.36309984310E+02  0.36332187666E+02  0.12700000000E+01 0.  1.
         25    2    1    2    0    0  0.00000000000E+00  0.00000000000E+00  0.71213366613E+02  0.14386303856E+03  0.12500092111E+03 0.  0.
    9000005    1    3    3    0    0  0.22581669816E+02 -0.54211153685E+02  0.11016087752E+02  0.59758975769E+02  0.10000000000E+01 0.  0.
    9000005    1    3    3    0    0 -0.22581669816E+02  0.54211153685E+02  0.60197278862E+02  0.84104062791E+02  0.10000000000E+01 0.  0.
<mgrwt>
<rscale>  0 0.12500092E+03</rscale>
<asrwt>0</asrwt>
<pdfrwt beam="1">  1        4 0.16544339E-01 0.12500092E+03</pdfrwt>
<pdfrwt beam="2">  1       -4 0.55884363E-02 0.12500092E+03</pdfrwt>
<totfact> 0.10053932E+04</totfact>
</mgrwt>
</event>
<event>
 5    1  0.3269032E-002  0.1249964E+03  0.7818608E-02  0.1235075E+00
         -4   -1    0    0    0  501 -0.00000000000E+00  0.00000000000E+00  0.30817014705E+02  0.30843172589E+02  0.12700000000E+01 0. -1.
          4   -1    0    0  501    0  0.00000000000E+00 -0.00000000000E+00 -0.12666579339E+03  0.12667215998E+03  0.12700000000E+01 0. -1.
         25    2    1    2    0    0  0.00000000000E+00  0.00000000000E+00 -0.95848778680E+02  0.15751533257E+03  0.12499636643E+03 0.  0.
    9000005    1    3    3    0    0 -0.53725442559E+02 -0.65283723202E+01 -0.87292622412E+02  0.10271341076E+03  0.10000000000E+01 0.  0.
    9000005    1    3    3    0    0  0.53725442559E+02  0.65283723202E+01 -0.85561562682E+01  0.54801921804E+02  0.10000000000E+01 0.  0.
<mgrwt>
<rscale>  0 0.12499637E+03</rscale>
<asrwt>0</asrwt>
<pdfrwt beam="2">  1        4 0.19489547E-01 0.12499637E+03</pdfrwt>
<pdfrwt beam="1">  1       -4 0.47435811E-02 0.12499637E+03</pdfrwt>
<totfact> 0.97831951E+03</totfact>
</mgrwt>
</event>
<event>
 5    1  0.3269032E-002  0.1249991E+03  0.7818608E-02  0.1235071E+00
         -4   -1    0    0    0  501 -0.00000000000E+00  0.00000000000E+00  0.47843597989E+01  0.49500503720E+01  0.12700000000E+01 0. -1.
          4   -1    0    0  501    0  0.00000000000E+00 -0.00000000000E+00 -0.80238699115E+03  0.80238799621E+03  0.12700000000E+01 0. -1.
         25    2    1    2    0    0  0.00000000000E+00  0.00000000000E+00 -0.79760263135E+03  0.80733804658E+03  0.12499905570E+03 0.  0.
    9000005    1    3    3    0    0 -0.19126354542E+02 -0.18711353649E+02 -0.76354986038E+03  0.76401918921E+03  0.10000000000E+01 0.  0.
    9000005    1    3    3    0    0  0.19126354542E+02  0.18711353649E+02 -0.34052770966E+02  0.43318857371E+02  0.10000000000E+01 0.  0.
<mgrwt>
<rscale>  0 0.12499906E+03</rscale>
<asrwt>0</asrwt>
<pdfrwt beam="2">  1        4 0.12345687E+00 0.12499906E+03</pdfrwt>
<pdfrwt beam="1">  1       -4 0.74887873E-03 0.12499906E+03</pdfrwt>
<totfact> 0.37940039E+03</totfact>
</mgrwt>
</event>
<event>
 5    1  0.3269032E-002  0.1249970E+03  0.7818608E-02  0.1235074E+00
          4   -1    0    0  501    0  0.00000000000E+00  0.00000000000E+00  0.11180764205E+03  0.11181485465E+03  0.12700000000E+01 0.  1.
         -4   -1    0    0    0  501 -0.00000000000E+00 -0.00000000000E+00 -0.34915683215E+02  0.34938772651E+02  0.12700000000E+01 0.  1.
         25    2    1    2    0    0  0.00000000000E+00  0.00000000000E+00  0.76891958831E+02  0.14675362730E+03  0.12499701513E+03 0.  0.
    9000005    1    3    3    0    0  0.49137633652E+02  0.19070299454E+01 -0.68263615291E+01  0.49656248507E+02  0.10000000000E+01 0.  0.
    9000005    1    3    3    0    0 -0.49137633652E+02 -0.19070299454E+01  0.83718320360E+02  0.97097378791E+02  0.10000000000E+01 0.  0.
<mgrwt>
<rscale>  0 0.12499702E+03</rscale>
<asrwt>0</asrwt>
<pdfrwt beam="1">  1        4 0.17203507E-01 0.12499702E+03</pdfrwt>
<pdfrwt beam="2">  1       -4 0.53739744E-02 0.12499702E+03</pdfrwt>
<totfact> 0.99961512E+03</totfact>
</mgrwt>
</event>
<event>
 5    1  0.3269032E-002  0.1250018E+03  0.7818608E-02  0.1235066E+00
         -4   -1    0    0    0  501 -0.00000000000E+00  0.00000000000E+00  0.34958905346E+02  0.34981966254E+02  0.12700000000E+01 0.  1.
          4   -1    0    0  501    0  0.00000000000E+00 -0.00000000000E+00 -0.11167805292E+03  0.11168527389E+03  0.12700000000E+01 0.  1.
         25    2    1    2    0    0  0.00000000000E+00  0.00000000000E+00 -0.76719147573E+02  0.14666724014E+03  0.12500180689E+03 0.  0.
    9000005    1    3    3    0    0 -0.31410225562E+02 -0.39552045736E+02  0.48211298427E+01  0.50746525839E+02  0.10000000000E+01 0.  0.
    9000005    1    3    3    0    0  0.31410225562E+02  0.39552045736E+02 -0.81540277415E+02  0.95920714305E+02  0.10000000000E+01 0.  0.
<mgrwt>
<rscale>  0 0.12500181E+03</rscale>
<asrwt>0</asrwt>
<pdfrwt beam="2">  1        4 0.17183568E-01 0.12500181E+03</pdfrwt>
<pdfrwt beam="1">  1       -4 0.53806226E-02 0.12500181E+03</pdfrwt>
<totfact> 0.99968165E+03</totfact>
</mgrwt>
</event>
<event>
 5    1  0.3269032E-002  0.1250032E+03  0.7818608E-02  0.1235064E+00
         -4   -1    0    0    0  501 -0.00000000000E+00  0.00000000000E+00  0.12509746628E+02  0.12574047109E+02  0.12700000000E+01 0.  1.
          4   -1    0    0  501    0  0.00000000000E+00 -0.00000000000E+00 -0.31140643919E+03  0.31140902888E+03  0.12700000000E+01 0.  1.
         25    2    1    2    0    0  0.00000000000E+00  0.00000000000E+00 -0.29889669256E+03  0.32398307599E+03  0.12500320277E+03 0.  0.
    9000005    1    3    3    0    0 -0.33599409017E+02 -0.42136828687E+02 -0.67446801946E+02  0.86339467863E+02  0.10000000000E+01 0.  0.
    9000005    1    3    3    0    0  0.33599409017E+02  0.42136828687E+02 -0.23144989061E+03  0.23764360812E+03  0.10000000000E+01 0.  0.
<mgrwt>
<rscale>  0 0.12500320E+03</rscale>
<asrwt>0</asrwt>
<pdfrwt beam="2">  1        4 0.47913823E-01 0.12500320E+03</pdfrwt>
<pdfrwt beam="1">  1       -4 0.19297220E-02 0.12500320E+03</pdfrwt>
<totfact> 0.72679726E+03</totfact>
</mgrwt>
</event>
<event>
 5    1  0.3269032E-002  0.1249989E+03  0.7818608E-02  0.1235071E+00
          4   -1    0    0  501    0  0.00000000000E+00  0.00000000000E+00  0.12115262999E+03  0.12115928629E+03  0.12700000000E+01 0.  1.
         -4   -1    0    0    0  501 -0.00000000000E+00 -0.00000000000E+00 -0.32221752284E+02  0.32246770695E+02  0.12700000000E+01 0.  1.
         25    2    1    2    0    0  0.00000000000E+00  0.00000000000E+00  0.88930877706E+02  0.15340605698E+03  0.12499886923E+03 0.  0.
    9000005    1    3    3    0    0 -0.58956582593E+02  0.10041728895E+02  0.66707783252E+02  0.89597116564E+02  0.10000000000E+01 0.  0.
    9000005    1    3    3    0    0  0.58956582593E+02 -0.10041728895E+02  0.22223094454E+02  0.63808940418E+02  0.10000000000E+01 0.  0.
<mgrwt>
<rscale>  0 0.12499887E+03</rscale>
<asrwt>0</asrwt>
<pdfrwt beam="1">  1        4 0.18641303E-01 0.12499887E+03</pdfrwt>
<pdfrwt beam="2">  1       -4 0.49596292E-02 0.12499887E+03</pdfrwt>
<totfact> 0.98631542E+03</totfact>
</mgrwt>
</event>
<event>
 5    1  0.3269032E-002  0.1249965E+03  0.7818608E-02  0.1235075E+00
         -4   -1    0    0    0  501 -0.00000000000E+00  0.00000000000E+00  0.34888315846E+02  0.34911423382E+02  0.12700000000E+01 0.  1.
          4   -1    0    0  501    0  0.00000000000E+00 -0.00000000000E+00 -0.11189437006E+03  0.11190157707E+03  0.12700000000E+01 0.  1.
         25    2    1    2    0    0  0.00000000000E+00  0.00000000000E+00 -0.77006054215E+02  0.14681300045E+03  0.12499649882E+03 0.  0.
    9000005    1    3    3    0    0 -0.17095707900E+02 -0.54745083338E+02 -0.67648203638E+02  0.88693668510E+02  0.10000000000E+01 0.  0.
    9000005    1    3    3    0    0  0.17095707900E+02  0.54745083338E+02 -0.93578505774E+01  0.58119331945E+02  0.10000000000E+01 0.  0.
<mgrwt>
<rscale>  0 0.12499650E+03</rscale>
<asrwt>0</asrwt>
<pdfrwt beam="2">  1        4 0.17216850E-01 0.12499650E+03</pdfrwt>
<pdfrwt beam="1">  1       -4 0.53697651E-02 0.12499650E+03</pdfrwt>
<totfact> 0.99950694E+03</totfact>
</mgrwt>
</event>
<event>
 4    1  0.3269032E-002  0.1293406E+03  0.7818608E-02  0.1228437E+00
          4   -1    0    0  501    0  0.00000000000E+00  0.00000000000E+00  0.21991373538E+03  0.21991740246E+03  0.12700000000E+01 0.  1.
         -4   -1    0    0    0  501 -0.00000000000E+00 -0.00000000000E+00 -0.18992633211E+02  0.19035047053E+02  0.12700000000E+01 0.  1.
    9000005    1    1    2    0    0  0.42545077064E+02  0.13150464566E+02  0.18707952604E+03  0.19230904130E+03  0.10000000000E+01 0.  0.
    9000005    1    1    2    0    0 -0.42545077064E+02 -0.13150464566E+02  0.13841576120E+02  0.46643408218E+02  0.10000000000E+01 0.  0.
<mgrwt>
<rscale>  0 0.12934057E+03</rscale>
<asrwt>0</asrwt>
<pdfrwt beam="1">  1        4 0.33836427E-01 0.12934057E+03</pdfrwt>
<pdfrwt beam="2">  1       -4 0.29254883E-02 0.12934057E+03</pdfrwt>
<totfact> 0.76320359E+03</totfact>
</mgrwt>
</event>
<event>
 5    1  0.3269032E-002  0.1250014E+03  0.7818608E-02  0.1235067E+00
         -4   -1    0    0    0  501 -0.00000000000E+00  0.00000000000E+00  0.13326898108E+02  0.13387274300E+02  0.12700000000E+01 0. -1.
          4   -1    0    0  501    0  0.00000000000E+00 -0.00000000000E+00 -0.29239241661E+03  0.29239517471E+03  0.12700000000E+01 0. -1.
         25    2    1    2    0    0  0.00000000000E+00  0.00000000000E+00 -0.27906551850E+03  0.30578244901E+03  0.12500137000E+03 0.  0.
    9000005    1    3    3    0    0 -0.12870694584E+02  0.35939458825E+02 -0.18498951992E+02  0.42432425154E+02  0.10000000000E+01 0.  0.
    9000005    1    3    3    0    0  0.12870694584E+02 -0.35939458825E+02 -0.26056656651E+03  0.26335002385E+03  0.10000000000E+01 0.  0.
<mgrwt>
<rscale>  0 0.12500137E+03</rscale>
<asrwt>0</asrwt>
<pdfrwt beam="2">  1        4 0.44988301E-01 0.12500137E+03</pdfrwt>
<pdfrwt beam="1">  1       -4 0.20551487E-02 0.12500137E+03</pdfrwt>
<totfact> 0.74876903E+03</totfact>
</mgrwt>
</event>
<event>
 5    1  0.3269032E-002  0.1249986E+03  0.7818608E-02  0.1235071E+00
         -4   -1    0    0    0  501 -0.00000000000E+00  0.00000000000E+00  0.69213843266E+03  0.69213959782E+03  0.12700000000E+01 0.  1.
          4   -1    0    0  501    0  0.00000000000E+00 -0.00000000000E+00 -0.55709833141E+01  0.57139089147E+01  0.12700000000E+01 0.  1.
         25    2    1    2    0    0  0.00000000000E+00  0.00000000000E+00  0.68656744935E+03  0.69785350673E+03  0.12499861741E+03 0.  0.
    9000005    1    3    3    0    0 -0.51383730500E+02  0.28562898256E+02  0.46158786962E+03  0.46531762087E+03  0.10000000000E+01 0.  0.
    9000005    1    3    3    0    0  0.51383730500E+02 -0.28562898256E+02  0.22497957973E+03  0.23253588586E+03  0.10000000000E+01 0.  0.
<mgrwt>
<rscale>  0 0.12499862E+03</rscale>
<asrwt>0</asrwt>
<pdfrwt beam="2">  1        4 0.86815875E-03 0.12499862E+03</pdfrwt>
<pdfrwt beam="1">  1       -4 0.10649386E+00 0.12499862E+03</pdfrwt>
<totfact> 0.43201568E+03</totfact>
</mgrwt>
</event>
<event>
 5    1  0.3269032E-002  0.1249975E+03  0.7818608E-02  0.1235073E+00
          4   -1    0    0  501    0  0.00000000000E+00  0.00000000000E+00  0.14687244227E+03  0.14687793299E+03  0.12700000000E+01 0.  1.
         -4   -1    0    0    0  501 -0.00000000000E+00 -0.00000000000E+00 -0.26574004248E+02  0.26604334266E+02  0.12700000000E+01 0.  1.
         25    2    1    2    0    0  0.00000000000E+00  0.00000000000E+00  0.12029843803E+03  0.17348226726E+03  0.12499753142E+03 0.  0.
    9000005    1    3    3    0    0  0.45179017239E+02  0.38205622281E+02  0.32243311703E+02  0.67390239072E+02  0.10000000000E+01 0.  0.
    9000005    1    3    3    0    0 -0.45179017239E+02 -0.38205622281E+02  0.88055126323E+02  0.10609202818E+03  0.10000000000E+01 0.  0.
<mgrwt>
<rscale>  0 0.12499753E+03</rscale>
<asrwt>0</asrwt>
<pdfrwt beam="1">  1        4 0.22598516E-01 0.12499753E+03</pdfrwt>
<pdfrwt beam="2">  1       -4 0.40910638E-02 0.12499753E+03</pdfrwt>
<totfact> 0.94808798E+03</totfact>
</mgrwt>
</event>
<event>
 5    1  0.3269032E-002  0.1250107E+03  0.7818608E-02  0.1235053E+00
         -4   -1    0    0    0  501 -0.00000000000E+00  0.00000000000E+00  0.32186591505E+02  0.32211637225E+02  0.12700000000E+01 0.  1.
          4   -1    0    0  501    0  0.00000000000E+00 -0.00000000000E+00 -0.12130791227E+03  0.12131456004E+03  0.12700000000E+01 0.  1.
         25    2    1    2    0    0  0.00000000000E+00  0.00000000000E+00 -0.89121320760E+02  0.15352619727E+03  0.12501073327E+03 0.  0.
    9000005    1    3    3    0    0 -0.57802926715E+01  0.54097324244E+02 -0.82333369838E+02  0.98689999811E+02  0.10000000000E+01 0.  0.
    9000005    1    3    3    0    0  0.57802926715E+01 -0.54097324244E+02 -0.67879509223E+01  0.54836197456E+02  0.10000000000E+01 0.  0.
<mgrwt>
<rscale>  0 0.12501073E+03</rscale>
<asrwt>0</asrwt>
<pdfrwt beam="2">  1        4 0.18665193E-01 0.12501073E+03</pdfrwt>
<pdfrwt beam="1">  1       -4 0.49542213E-02 0.12501073E+03</pdfrwt>
<totfact> 0.98581585E+03</totfact>
</mgrwt>
</event>
<event>
 5    1  0.3269032E-002  0.1250045E+03  0.7818608E-02  0.1235062E+00
         -4   -1    0    0    0  501 -0.00000000000E+00  0.00000000000E+00  0.11000927742E+03  0.11001660792E+03  0.12700000000E+01 0. -1.
          4   -1    0    0  501    0  0.00000000000E+00 -0.00000000000E+00 -0.35491051683E+02  0.35513767043E+02  0.12700000000E+01 0. -1.
         25    2    1    2    0    0  0.00000000000E+00  0.00000000000E+00  0.74518225740E+02  0.14553037497E+03  0.12500449620E+03 0.  0.
    9000005    1    3    3    0    0  0.58919248161E+02  0.16593387096E+02  0.22592363204E+02  0.65255139064E+02  0.10000000000E+01 0.  0.
    9000005    1    3    3    0    0 -0.58919248161E+02 -0.16593387096E+02  0.51925862536E+02  0.80275235903E+02  0.10000000000E+01 0.  0.
<mgrwt>
<rscale>  0 0.12500450E+03</rscale>
<asrwt>0</asrwt>
<pdfrwt beam="2">  1        4 0.54624731E-02 0.12500450E+03</pdfrwt>
<pdfrwt beam="1">  1       -4 0.16926815E-01 0.12500450E+03</pdfrwt>
<totfact> 0.10019209E+04</totfact>
</mgrwt>
</event>
<event>
 5    1  0.3269032E-002  0.1249968E+03  0.7818608E-02  0.1235074E+00
          4   -1    0    0  501    0  0.00000000000E+00  0.00000000000E+00  0.51723963003E+02  0.51739552073E+02  0.12700000000E+01 0. -1.
         -4   -1    0    0    0  501 -0.00000000000E+00 -0.00000000000E+00 -0.75484907551E+02  0.75495590388E+02  0.12700000000E+01 0. -1.
         25    2    1    2    0    0  0.00000000000E+00  0.00000000000E+00 -0.23760944548E+02  0.12723514246E+03  0.12499679592E+03 0.  0.
    9000005    1    3    3    0    0  0.49597296314E+02  0.38008977407E+02 -0.12582446581E+02  0.63748663728E+02  0.10000000000E+01 0.  0.
    9000005    1    3    3    0    0 -0.49597296314E+02 -0.38008977407E+02 -0.11178497967E+02  0.63486478733E+02  0.10000000000E+01 0.  0.
<mgrwt>
<rscale>  0 0.12499680E+03</rscale>
<asrwt>0</asrwt>
<pdfrwt beam="1">  1        4 0.79595536E-02 0.12499680E+03</pdfrwt>
<pdfrwt beam="2">  1       -4 0.11615084E-01 0.12499680E+03</pdfrwt>
<totfact> 0.10404794E+04</totfact>
</mgrwt>
</event>
<event>
 5    1  0.3269032E-002  0.1250127E+03  0.7818608E-02  0.1235049E+00
          4   -1    0    0  501    0  0.00000000000E+00  0.00000000000E+00  0.51219234356E+03  0.51219391806E+03  0.12700000000E+01 0. -1.
         -4   -1    0    0    0  501 -0.00000000000E+00 -0.00000000000E+00 -0.75736210596E+01  0.76793642937E+01  0.12700000000E+01 0. -1.
         25    2    1    2    0    0  0.00000000000E+00  0.00000000000E+00  0.50461872250E+03  0.51987328236E+03  0.12501269780E+03 0.  0.
    9000005    1    3    3    0    0 -0.21805102368E+02  0.54658169102E+02  0.16477522654E+03  0.17497100680E+03  0.10000000000E+01 0.  0.
    9000005    1    3    3    0    0  0.21805102368E+02 -0.54658169102E+02  0.33984349595E+03  0.34490227555E+03  0.10000000000E+01 0.  0.
<mgrwt>
<rscale>  0 0.12501270E+03</rscale>
<asrwt>0</asrwt>
<pdfrwt beam="1">  1        4 0.78807072E-01 0.12501270E+03</pdfrwt>
<pdfrwt beam="2">  1       -4 0.11734278E-02 0.12501270E+03</pdfrwt>
<totfact> 0.54339590E+03</totfact>
</mgrwt>
</event>
<event>
 5    1  0.3269032E-002  0.1249992E+03  0.7818608E-02  0.1235070E+00
          4   -1    0    0  501    0  0.00000000000E+00  0.00000000000E+00  0.36203206823E+01  0.38366159363E+01  0.12700000000E+01 0. -1.
         -4   -1    0    0    0  501 -0.00000000000E+00 -0.00000000000E+00 -0.10474529188E+04  0.10474536887E+04  0.12700000000E+01 0. -1.
         25    2    1    2    0    0  0.00000000000E+00  0.00000000000E+00 -0.10438325981E+04  0.10512903046E+04  0.12499924704E+03 0.  0.
    9000005    1    3    3    0    0  0.59690373225E+02  0.13755359838E+02 -0.62596466827E+03  0.62895541694E+03  0.10000000000E+01 0.  0.
    9000005    1    3    3    0    0 -0.59690373225E+02 -0.13755359838E+02 -0.41786792983E+03  0.42233488769E+03  0.10000000000E+01 0.  0.
<mgrwt>
<rscale>  0 0.12499925E+03</rscale>
<asrwt>0</asrwt>
<pdfrwt beam="1">  1        4 0.57367057E-03 0.12499925E+03</pdfrwt>
<pdfrwt beam="2">  1       -4 0.16116307E+00 0.12499925E+03</pdfrwt>
<totfact> 0.28955035E+03</totfact>
</mgrwt>
</event>
<event>
 5    1  0.3269032E-002  0.1249982E+03  0.7818608E-02  0.1235072E+00
          4   -1    0    0  501    0  0.00000000000E+00  0.00000000000E+00  0.56068497886E+02  0.56082879341E+02  0.12700000000E+01 0. -1.
         -4   -1    0    0    0  501 -0.00000000000E+00 -0.00000000000E+00 -0.69638118534E+02  0.69649698154E+02  0.12700000000E+01 0. -1.
         25    2    1    2    0    0  0.00000000000E+00  0.00000000000E+00 -0.13569620648E+02  0.12573257749E+03  0.12499818574E+03 0.  0.
    9000005    1    3    3    0    0 -0.20668811068E+02 -0.34215272151E+02 -0.55100882967E+02  0.68080774842E+02  0.10000000000E+01 0.  0.
    9000005    1    3    3    0    0  0.20668811068E+02  0.34215272151E+02  0.41531262319E+02  0.57651802653E+02  0.10000000000E+01 0.  0.
<mgrwt>
<rscale>  0 0.12499819E+03</rscale>
<asrwt>0</asrwt>
<pdfrwt beam="1">  1        4 0.86279197E-02 0.12499819E+03</pdfrwt>
<pdfrwt beam="2">  1       -4 0.10715554E-01 0.12499819E+03</pdfrwt>
<totfact> 0.10437255E+04</totfact>
</mgrwt>
</event>
<event>
 5    1  0.3269032E-002  0.1249956E+03  0.7818608E-02  0.1235076E+00
          4   -1    0    0  501    0  0.00000000000E+00  0.00000000000E+00  0.48133978399E+02  0.48150729761E+02  0.12700000000E+01 0.  1.
         -4   -1    0    0    0  501 -0.00000000000E+00 -0.00000000000E+00 -0.81112183980E+02  0.81122125774E+02  0.12700000000E+01 0.  1.
         25    2    1    2    0    0  0.00000000000E+00  0.00000000000E+00 -0.32978205581E+02  0.12927285554E+03  0.12499563646E+03 0.  0.
    9000005    1    3    3    0    0  0.33658402816E+02 -0.33890007960E+02  0.25183075431E+02  0.54005629409E+02  0.10000000000E+01 0.  0.
    9000005    1    3    3    0    0 -0.33658402816E+02  0.33890007960E+02 -0.58161281012E+02  0.75267226126E+02  0.10000000000E+01 0.  0.
<mgrwt>
<rscale>  0 0.12499564E+03</rscale>
<asrwt>0</asrwt>
<pdfrwt beam="1">  1        4 0.74072808E-02 0.12499564E+03</pdfrwt>
<pdfrwt beam="2">  1       -4 0.12480851E-01 0.12499564E+03</pdfrwt>
<totfact> 0.10361108E+04</totfact>
</mgrwt>
</event>
<event>
 5    1  0.3269032E-002  0.1249997E+03  0.7818608E-02  0.1235070E+00
         -4   -1    0    0    0  501 -0.00000000000E+00  0.00000000000E+00  0.48516307621E+02  0.48532927021E+02  0.12700000000E+01 0. -1.
          4   -1    0    0  501    0  0.00000000000E+00 -0.00000000000E+00 -0.80478351778E+02  0.80488371862E+02  0.12700000000E+01 0. -1.
         25    2    1    2    0    0  0.00000000000E+00  0.00000000000E+00 -0.31962044157E+02  0.12902129888E+03  0.12499969319E+03 0.  0.
    9000005    1    3    3    0    0  0.40131811354E+02  0.36335548102E+02 -0.48200634900E+02  0.72492313683E+02  0.10000000000E+01 0.  0.
    9000005    1    3    3    0    0 -0.40131811354E+02 -0.36335548102E+02  0.16238590743E+02  0.56528985200E+02  0.10000000000E+01 0.  0.
<mgrwt>
<rscale>  0 0.12499969E+03</rscale>
<asrwt>0</asrwt>
<pdfrwt beam="2">  1        4 0.12383334E-01 0.12499969E+03</pdfrwt>
<pdfrwt beam="1">  1       -4 0.74660965E-02 0.12499969E+03</pdfrwt>
<totfact> 0.10365561E+04</totfact>
</mgrwt>
</event>
<event>
 5    1  0.3269032E-002  0.1250036E+03  0.7818608E-02  0.1235064E+00
          4   -1    0    0  501    0  0.00000000000E+00  0.00000000000E+00  0.83180418975E+02  0.83190113601E+02  0.12700000000E+01 0.  1.
         -4   -1    0    0    0  501 -0.00000000000E+00 -0.00000000000E+00 -0.46942838823E+02  0.46960015085E+02  0.12700000000E+01 0.  1.
         25    2    1    2    0    0  0.00000000000E+00  0.00000000000E+00  0.36237580152E+02  0.13015012869E+03  0.12500357508E+03 0.  0.
    9000005    1    3    3    0    0 -0.73308936043E+01 -0.34734944968E+02 -0.35430369572E+02  0.50165421268E+02  0.10000000000E+01 0.  0.
    9000005    1    3    3    0    0  0.73308936043E+01  0.34734944968E+02  0.71667949724E+02  0.79984707418E+02  0.10000000000E+01 0.  0.
<mgrwt>
<rscale>  0 0.12500358E+03</rscale>
<asrwt>0</asrwt>
<pdfrwt beam="1">  1        4 0.12799055E-01 0.12500358E+03</pdfrwt>
<pdfrwt beam="2">  1       -4 0.72240422E-02 0.12500358E+03</pdfrwt>
<totfact> 0.10340463E+04</totfact>
</mgrwt>
</event>
<event>
 5    1  0.3269032E-002  0.1249997E+03  0.7818608E-02  0.1235070E+00
          4   -1    0    0  501    0  0.00000000000E+00  0.00000000000E+00  0.49387255698E+02  0.49403582110E+02  0.12700000000E+01 0. -1.
         -4   -1    0    0    0  501 -0.00000000000E+00 -0.00000000000E+00 -0.79059453986E+02  0.79069653880E+02  0.12700000000E+01 0. -1.
         25    2    1    2    0    0  0.00000000000E+00  0.00000000000E+00 -0.29672198289E+02  0.12847323599E+03  0.12499973206E+03 0.  0.
    9000005    1    3    3    0    0 -0.45002042606E+02  0.39521272490E+02  0.34954007355E+01  0.60002771971E+02  0.10000000000E+01 0.  0.
    9000005    1    3    3    0    0  0.45002042606E+02 -0.39521272490E+02 -0.33167599024E+02  0.68470464019E+02  0.10000000000E+01 0.  0.
<mgrwt>
<rscale>  0 0.12499973E+03</rscale>
<asrwt>0</asrwt>
<pdfrwt beam="1">  1        4 0.76000799E-02 0.12499973E+03</pdfrwt>
<pdfrwt beam="2">  1       -4 0.12165033E-01 0.12499973E+03</pdfrwt>
<totfact> 0.10377343E+04</totfact>
</mgrwt>
</event>
<event>
 5    1  0.3269032E-002  0.1250039E+03  0.7818608E-02  0.1235063E+00
          4   -1    0    0  501    0  0.00000000000E+00  0.00000000000E+00  0.17398000754E+03  0.17398464278E+03  0.12700000000E+01 0. -1.
         -4   -1    0    0    0  501 -0.00000000000E+00 -0.00000000000E+00 -0.22430797923E+02  0.22466721956E+02  0.12700000000E+01 0. -1.
         25    2    1    2    0    0  0.00000000000E+00  0.00000000000E+00  0.15154920961E+03  0.19645136473E+03  0.12500390302E+03 0.  0.
    9000005    1    3    3    0    0 -0.69187413574E+01  0.55523840168E+02  0.32031848964E+02  0.64481044943E+02  0.10000000000E+01 0.  0.
    9000005    1    3    3    0    0  0.69187413574E+01 -0.55523840168E+02  0.11951736065E+03  0.13197031979E+03  0.10000000000E+01 0.  0.
<mgrwt>
<rscale>  0 0.12500390E+03</rscale>
<asrwt>0</asrwt>
<pdfrwt beam="1">  1        4 0.26769275E-01 0.12500390E+03</pdfrwt>
<pdfrwt beam="2">  1       -4 0.34540119E-02 0.12500390E+03</pdfrwt>
<totfact> 0.90728829E+03</totfact>
</mgrwt>
</event>
<event>
 5    1  0.3269032E-002  0.1250056E+03  0.7818608E-02  0.1235061E+00
         -4   -1    0    0    0  501 -0.00000000000E+00  0.00000000000E+00  0.60415055789E+03  0.60415189274E+03  0.12700000000E+01 0. -1.
          4   -1    0    0  501    0  0.00000000000E+00 -0.00000000000E+00 -0.64025518906E+01  0.65272942872E+01  0.12700000000E+01 0. -1.
         25    2    1    2    0    0  0.00000000000E+00  0.00000000000E+00  0.59774800600E+03  0.61067918703E+03  0.12500556303E+03 0.  0.
    9000005    1    3    3    0    0 -0.50418720360E+02  0.28887368561E+02  0.18650657040E+03  0.19535155036E+03  0.10000000000E+01 0.  0.
    9000005    1    3    3    0    0  0.50418720360E+02 -0.28887368561E+02  0.41124143560E+03  0.41532763667E+03  0.10000000000E+01 0.  0.
<mgrwt>
<rscale>  0 0.12500556E+03</rscale>
<asrwt>0</asrwt>
<pdfrwt beam="2">  1        4 0.99470610E-03 0.12500556E+03</pdfrwt>
<pdfrwt beam="1">  1       -4 0.92955951E-01 0.12500556E+03</pdfrwt>
<totfact> 0.48194491E+03</totfact>
</mgrwt>
</event>
<event>
 5    1  0.3269032E-002  0.1250034E+03  0.7818608E-02  0.1235064E+00
         -4   -1    0    0    0  501 -0.00000000000E+00  0.00000000000E+00  0.18587798113E+02  0.18631133585E+02  0.12700000000E+01 0. -1.
          4   -1    0    0  501    0  0.00000000000E+00 -0.00000000000E+00 -0.20987283199E+03  0.20987667451E+03  0.12700000000E+01 0. -1.
         25    2    1    2    0    0  0.00000000000E+00  0.00000000000E+00 -0.19128503387E+03  0.22850780810E+03  0.12500341667E+03 0.  0.
    9000005    1    3    3    0    0 -0.16506270897E+02  0.59487995145E+02 -0.77901846389E+02  0.99403099630E+02  0.10000000000E+01 0.  0.
    9000005    1    3    3    0    0  0.16506270897E+02 -0.59487995145E+02 -0.11338318748E+03  0.12910470847E+03  0.10000000000E+01 0.  0.
<mgrwt>
<rscale>  0 0.12500342E+03</rscale>
<asrwt>0</asrwt>
<pdfrwt beam="2">  1        4 0.32291755E-01 0.12500342E+03</pdfrwt>
<pdfrwt beam="1">  1       -4 0.28632905E-02 0.12500342E+03</pdfrwt>
<totfact> 0.85532732E+03</totfact>
</mgrwt>
</event>
<event>
 5    1  0.3269032E-002  0.1250043E+03  0.7818608E-02  0.1235063E+00
          4   -1    0    0  501    0  0.00000000000E+00  0.00000000000E+00  0.25204818561E+03  0.25205138518E+03  0.12700000000E+01 0.  1.
         -4   -1    0    0    0  501 -0.00000000000E+00 -0.00000000000E+00 -0.15469779962E+02  0.15521823091E+02  0.12700000000E+01 0.  1.
         25    2    1    2    0    0  0.00000000000E+00  0.00000000000E+00  0.23657840565E+03  0.26757320827E+03  0.12500431898E+03 0.  0.
    9000005    1    3    3    0    0 -0.24164856213E+02  0.11676120415E+02 -0.25169975543E+01  0.26974197679E+02  0.10000000000E+01 0.  0.
    9000005    1    3    3    0    0  0.24164856213E+02 -0.11676120415E+02  0.23909540321E+03  0.24059901059E+03  0.10000000000E+01 0.  0.
<mgrwt>
<rscale>  0 0.12500432E+03</rscale>
<asrwt>0</asrwt>
<pdfrwt beam="1">  1        4 0.38780889E-01 0.12500432E+03</pdfrwt>
<pdfrwt beam="2">  1       -4 0.23842158E-02 0.12500432E+03</pdfrwt>
<totfact> 0.79847207E+03</totfact>
</mgrwt>
</event>
<event>
 5    1  0.3269032E-002  0.1250301E+03  0.7818608E-02  0.1235022E+00
         -4   -1    0    0    0  501 -0.00000000000E+00  0.00000000000E+00  0.29401638624E+01  0.32027275154E+01  0.12700000000E+01 0. -1.
          4   -1    0    0  501    0  0.00000000000E+00 -0.00000000000E+00 -0.12721446526E+04  0.12721452865E+04  0.12700000000E+01 0. -1.
         25    2    1    2    0    0  0.00000000000E+00  0.00000000000E+00 -0.12692044888E+04  0.12753480141E+04  0.12503008716E+03 0.  0.
    9000005    1    3    3    0    0  0.59358768773E+02  0.59646475936E+01 -0.44429291065E+03  0.44828141931E+03  0.10000000000E+01 0.  0.
    9000005    1    3    3    0    0 -0.59358768773E+02 -0.59646475936E+01 -0.82491157811E+03  0.82706659475E+03  0.10000000000E+01 0.  0.
<mgrwt>
<rscale>  0 0.12503009E+03</rscale>
<asrwt>0</asrwt>
<pdfrwt beam="2">  1        4 0.19573439E+00 0.12503009E+03</pdfrwt>
<pdfrwt beam="1">  1       -4 0.47257988E-03 0.12503009E+03</pdfrwt>
<totfact> 0.22803019E+03</totfact>
</mgrwt>
</event>
<event>
 5    1  0.3269032E-002  0.1250013E+03  0.7818608E-02  0.1235067E+00
          4   -1    0    0  501    0  0.00000000000E+00  0.00000000000E+00  0.46064271986E+01  0.47782916964E+01  0.12700000000E+01 0.  1.
         -4   -1    0    0    0  501 -0.00000000000E+00 -0.00000000000E+00 -0.83231519868E+03  0.83231616760E+03  0.12700000000E+01 0.  1.
         25    2    1    2    0    0  0.00000000000E+00  0.00000000000E+00 -0.82770877148E+03  0.83709445930E+03  0.12500129361E+03 0.  0.
    9000005    1    3    3    0    0 -0.60175305550E+02  0.15083273568E+02 -0.46430595651E+03  0.46843312627E+03  0.10000000000E+01 0.  0.
    9000005    1    3    3    0    0  0.60175305550E+02 -0.15083273568E+02 -0.36340281497E+03  0.36866133303E+03  0.10000000000E+01 0.  0.
<mgrwt>
<rscale>  0 0.12500129E+03</rscale>
<asrwt>0</asrwt>
<pdfrwt beam="1">  1        4 0.72197665E-03 0.12500129E+03</pdfrwt>
<pdfrwt beam="2">  1       -4 0.12806167E+00 0.12500129E+03</pdfrwt>
<totfact> 0.36660324E+03</totfact>
</mgrwt>
</event>
<event>
 5    1  0.3269032E-002  0.1250006E+03  0.7818608E-02  0.1235068E+00
          4   -1    0    0  501    0  0.00000000000E+00  0.00000000000E+00  0.28178925002E+03  0.28179211189E+03  0.12700000000E+01 0.  1.
         -4   -1    0    0    0  501 -0.00000000000E+00 -0.00000000000E+00 -0.13830411548E+02  0.13888599051E+02  0.12700000000E+01 0.  1.
         25    2    1    2    0    0  0.00000000000E+00  0.00000000000E+00  0.26795883847E+03  0.29568071095E+03  0.12500057484E+03 0.  0.
    9000005    1    3    3    0    0 -0.58922178634E+02 -0.11629205522E+02  0.17482852462E+03  0.18485960775E+03  0.10000000000E+01 0.  0.
    9000005    1    3    3    0    0  0.58922178634E+02  0.11629205522E+02  0.93130313854E+02  0.11082110320E+03  0.10000000000E+01 0.  0.
<mgrwt>
<rscale>  0 0.12500057E+03</rscale>
<asrwt>0</asrwt>
<pdfrwt beam="1">  1        4 0.43356885E-01 0.12500057E+03</pdfrwt>
<pdfrwt beam="2">  1       -4 0.21324519E-02 0.12500057E+03</pdfrwt>
<totfact> 0.76142885E+03</totfact>
</mgrwt>
</event>
<event>
 5    1  0.3269032E-002  0.1250027E+03  0.7818608E-02  0.1235065E+00
         -4   -1    0    0    0  501 -0.00000000000E+00  0.00000000000E+00  0.83157058771E+02  0.83166756119E+02  0.12700000000E+01 0. -1.
          4   -1    0    0  501    0  0.00000000000E+00 -0.00000000000E+00 -0.46955388693E+02  0.46972560366E+02  0.12700000000E+01 0. -1.
         25    2    1    2    0    0  0.00000000000E+00  0.00000000000E+00  0.36201670078E+02  0.13013931648E+03  0.12500272309E+03 0.  0.
    9000005    1    3    3    0    0  0.16326470581E+02  0.54662737574E+02 -0.84592866593E+01  0.57681262569E+02  0.10000000000E+01 0.  0.
    9000005    1    3    3    0    0 -0.16326470581E+02 -0.54662737574E+02  0.44660956737E+02  0.72458053916E+02  0.10000000000E+01 0.  0.
<mgrwt>
<rscale>  0 0.12500272E+03</rscale>
<asrwt>0</asrwt>
<pdfrwt beam="2">  1        4 0.72259728E-02 0.12500272E+03</pdfrwt>
<pdfrwt beam="1">  1       -4 0.12795461E-01 0.12500272E+03</pdfrwt>
<totfact> 0.10340893E+04</totfact>
</mgrwt>
</event>
<event>
 5    1  0.3269032E-002  0.1249944E+03  0.7818608E-02  0.1235078E+00
         -4   -1    0    0    0  501 -0.00000000000E+00  0.00000000000E+00  0.14188590792E+03  0.14189159159E+03  0.12700000000E+01 0. -1.
          4   -1    0    0  501    0  0.00000000000E+00 -0.00000000000E+00 -0.27507558354E+02  0.27536860144E+02  0.12700000000E+01 0. -1.
         25    2    1    2    0    0  0.00000000000E+00  0.00000000000E+00  0.11437834956E+03  0.16942845174E+03  0.12499437351E+03 0.  0.
    9000005    1    3    3    0    0  0.11378641734E+02  0.90796774627E+01 -0.25183773415E+02  0.29105608978E+02  0.10000000000E+01 0.  0.
    9000005    1    3    3    0    0 -0.11378641734E+02 -0.90796774627E+01  0.13956212298E+03  0.14032284276E+03  0.10000000000E+01 0.  0.
<mgrwt>
<rscale>  0 0.12499437E+03</rscale>
<asrwt>0</asrwt>
<pdfrwt beam="2">  1        4 0.42346232E-02 0.12499437E+03</pdfrwt>
<pdfrwt beam="1">  1       -4 0.21831292E-01 0.12499437E+03</pdfrwt>
<totfact> 0.95567297E+03</totfact>
</mgrwt>
</event>
<event>
 5    1  0.3269032E-002  0.1250023E+03  0.7818608E-02  0.1235066E+00
         -4   -1    0    0    0  501 -0.00000000000E+00  0.00000000000E+00  0.12166440397E+04  0.12166447025E+04  0.12700000000E+01 0.  1.
          4   -1    0    0  501    0  0.00000000000E+00 -0.00000000000E+00 -0.30845188110E+01  0.33357392427E+01  0.12700000000E+01 0.  1.
         25    2    1    2    0    0  0.00000000000E+00  0.00000000000E+00  0.12135595209E+04  0.12199804418E+04  0.12500227042E+03 0.  0.
    9000005    1    3    3    0    0 -0.22642896634E+02  0.52392959108E+02  0.35840268305E+03  0.36292038541E+03  0.10000000000E+01 0.  0.
    9000005    1    3    3    0    0  0.22642896634E+02 -0.52392959108E+02  0.85515683782E+03  0.85706005636E+03  0.10000000000E+01 0.  0.
<mgrwt>
<rscale>  0 0.12500227E+03</rscale>
<asrwt>0</asrwt>
<pdfrwt beam="2">  1        4 0.49391767E-03 0.12500227E+03</pdfrwt>
<pdfrwt beam="1">  1       -4 0.18719513E+00 0.12500227E+03</pdfrwt>
<totfact> 0.24194522E+03</totfact>
</mgrwt>
</event>
<event>
 5    1  0.3269032E-002  0.1250053E+03  0.7818608E-02  0.1235061E+00
         -4   -1    0    0    0  501 -0.00000000000E+00  0.00000000000E+00  0.83158987811E+02  0.83168684934E+02  0.12700000000E+01 0. -1.
          4   -1    0    0  501    0  0.00000000000E+00 -0.00000000000E+00 -0.46956200142E+02  0.46973371518E+02  0.12700000000E+01 0. -1.
         25    2    1    2    0    0  0.00000000000E+00  0.00000000000E+00  0.36202787669E+02  0.13014205645E+03  0.12500525198E+03 0.  0.
    9000005    1    3    3    0    0  0.51262078110E+02  0.33301341501E+02  0.45752691978E+01  0.61308344344E+02  0.10000000000E+01 0.  0.
    9000005    1    3    3    0    0 -0.51262078110E+02 -0.33301341501E+02  0.31627518471E+02  0.68833712108E+02  0.10000000000E+01 0.  0.
<mgrwt>
<rscale>  0 0.12500525E+03</rscale>
<asrwt>0</asrwt>
<pdfrwt beam="2">  1        4 0.72260977E-02 0.12500525E+03</pdfrwt>
<pdfrwt beam="1">  1       -4 0.12795757E-01 0.12500525E+03</pdfrwt>
<totfact> 0.10340244E+04</totfact>
</mgrwt>
</event>
<event>
 5    1  0.3269032E-002  0.1250016E+03  0.7818608E-02  0.1235067E+00
          4   -1    0    0  501    0  0.00000000000E+00  0.00000000000E+00  0.72154045188E+02  0.72165221104E+02  0.12700000000E+01 0.  1.
         -4   -1    0    0    0  501 -0.00000000000E+00 -0.00000000000E+00 -0.54116167626E+02  0.54131067776E+02  0.12700000000E+01 0.  1.
         25    2    1    2    0    0  0.00000000000E+00  0.00000000000E+00  0.18037877562E+02  0.12629628888E+03  0.12500155022E+03 0.  0.
    9000005    1    3    3    0    0 -0.13965834125E+02 -0.96157872822E+01 -0.51752540576E+02  0.54468645513E+02  0.10000000000E+01 0.  0.
    9000005    1    3    3    0    0  0.13965834125E+02  0.96157872822E+01  0.69790418138E+02  0.71827643368E+02  0.10000000000E+01 0.  0.
<mgrwt>
<rscale>  0 0.12500155E+03</rscale>
<asrwt>0</asrwt>
<pdfrwt beam="1">  1        4 0.11102628E-01 0.12500155E+03</pdfrwt>
<pdfrwt beam="2">  1       -4 0.83275702E-02 0.12500155E+03</pdfrwt>
<totfact> 0.10424110E+04</totfact>
</mgrwt>
</event>
<event>
 5    1  0.3269032E-002  0.1249961E+03  0.7818608E-02  0.1235075E+00
          4   -1    0    0  501    0  0.00000000000E+00  0.00000000000E+00  0.97087303891E+03  0.97087386956E+03  0.12700000000E+01 0.  1.
         -4   -1    0    0    0  501 -0.00000000000E+00 -0.00000000000E+00 -0.39221094538E+01  0.41226014321E+01  0.12700000000E+01 0.  1.
         25    2    1    2    0    0  0.00000000000E+00  0.00000000000E+00  0.96695092946E+03  0.97499647099E+03  0.12499607377E+03 0.  0.
    9000005    1    3    3    0    0 -0.29589703270E+02 -0.13967549556E+01  0.54286077945E+02  0.61850462590E+02  0.10000000000E+01 0.  0.
    9000005    1    3    3    0    0  0.29589703270E+02  0.13967549556E+01  0.91266485151E+03  0.91314600840E+03  0.10000000000E+01 0.  0.
<mgrwt>
<rscale>  0 0.12499607E+03</rscale>
<asrwt>0</asrwt>
<pdfrwt beam="1">  1        4 0.14938070E+00 0.12499607E+03</pdfrwt>
<pdfrwt beam="2">  1       -4 0.61888728E-03 0.12499607E+03</pdfrwt>
<totfact> 0.31447455E+03</totfact>
</mgrwt>
</event>
<event>
 5    1  0.3269032E-002  0.1249934E+03  0.7818608E-02  0.1235080E+00
          4   -1    0    0  501    0  0.00000000000E+00  0.00000000000E+00  0.53508473007E+02  0.53523542330E+02  0.12700000000E+01 0.  1.
         -4   -1    0    0    0  501 -0.00000000000E+00 -0.00000000000E+00 -0.72963850667E+02  0.72974902563E+02  0.12700000000E+01 0.  1.
         25    2    1    2    0    0  0.00000000000E+00  0.00000000000E+00 -0.19455377660E+02  0.12649844489E+03  0.12499337919E+03 0.  0.
    9000005    1    3    3    0    0 -0.52123156296E+02 -0.10979008053E+02 -0.42793323627E+02  0.68334695340E+02  0.10000000000E+01 0.  0.
    9000005    1    3    3    0    0  0.52123156296E+02  0.10979008053E+02  0.23337945967E+02  0.58163749553E+02  0.10000000000E+01 0.  0.
<mgrwt>
<rscale>  0 0.12499338E+03</rscale>
<asrwt>0</asrwt>
<pdfrwt beam="1">  1        4 0.82340821E-02 0.12499338E+03</pdfrwt>
<pdfrwt beam="2">  1       -4 0.11227217E-01 0.12499338E+03</pdfrwt>
<totfact> 0.10421619E+04</totfact>
</mgrwt>
</event>
<event>
 5    1  0.3269032E-002  0.1250000E+03  0.7818608E-02  0.1235069E+00
         -4   -1    0    0    0  501 -0.00000000000E+00  0.00000000000E+00  0.38179420460E+01  0.40236278987E+01  0.12700000000E+01 0.  1.
          4   -1    0    0  501    0  0.00000000000E+00 -0.00000000000E+00 -0.99608659800E+03  0.99608740762E+03  0.12700000000E+01 0.  1.
         25    2    1    2    0    0  0.00000000000E+00  0.00000000000E+00 -0.99226865595E+03  0.10001110355E+04  0.12499999109E+03 0.  0.
    9000005    1    3    3    0    0  0.50110733176E+02 -0.22371670859E+01 -0.79433883815E+03  0.79592165461E+03  0.10000000000E+01 0.  0.
    9000005    1    3    3    0    0 -0.50110733176E+02  0.22371670859E+01 -0.19792981781E+03  0.20418938090E+03  0.10000000000E+01 0.  0.
<mgrwt>
<rscale>  0 0.12499999E+03</rscale>
<asrwt>0</asrwt>
<pdfrwt beam="2">  1        4 0.15325977E+00 0.12499999E+03</pdfrwt>
<pdfrwt beam="1">  1       -4 0.60326076E-03 0.12499999E+03</pdfrwt>
<totfact> 0.30600865E+03</totfact>
</mgrwt>
</event>
<event>
 5    1  0.3269032E-002  0.1250043E+03  0.7818608E-02  0.1235063E+00
         -4   -1    0    0    0  501 -0.00000000000E+00  0.00000000000E+00  0.38000090617E+02  0.38021307012E+02  0.12700000000E+01 0. -1.
          4   -1    0    0  501    0  0.00000000000E+00 -0.00000000000E+00 -0.10274898487E+03  0.10275683331E+03  0.12700000000E+01 0. -1.
         25    2    1    2    0    0  0.00000000000E+00  0.00000000000E+00 -0.64748894255E+02  0.14077814032E+03  0.12500426187E+03 0.  0.
    9000005    1    3    3    0    0  0.56826995929E+02 -0.23062276417E+02 -0.45904647337E+02  0.76612092433E+02  0.10000000000E+01 0.  0.
    9000005    1    3    3    0    0 -0.56826995929E+02  0.23062276417E+02 -0.18844246918E+02  0.64166047890E+02  0.10000000000E+01 0.  0.
<mgrwt>
<rscale>  0 0.12500426E+03</rscale>
<asrwt>0</asrwt>
<pdfrwt beam="2">  1        4 0.15809772E-01 0.12500426E+03</pdfrwt>
<pdfrwt beam="1">  1       -4 0.58484036E-02 0.12500426E+03</pdfrwt>
<totfact> 0.10116513E+04</totfact>
</mgrwt>
</event>
<event>
 5    1  0.3269032E-002  0.1249980E+03  0.7818608E-02  0.1235072E+00
          4   -1    0    0  501    0  0.00000000000E+00  0.00000000000E+00  0.45515323678E+02  0.45533038439E+02  0.12700000000E+01 0.  1.
         -4   -1    0    0    0  501 -0.00000000000E+00 -0.00000000000E+00 -0.85780841861E+02  0.85790242629E+02  0.12700000000E+01 0.  1.
         25    2    1    2    0    0  0.00000000000E+00  0.00000000000E+00 -0.40265518183E+02  0.13132328107E+03  0.12499796877E+03 0.  0.
    9000005    1    3    3    0    0  0.30958610630E+02 -0.19697637001E+02 -0.73275953215E+02  0.81956072351E+02  0.10000000000E+01 0.  0.
    9000005    1    3    3    0    0 -0.30958610630E+02  0.19697637001E+02  0.33010435032E+02  0.49367208717E+02  0.10000000000E+01 0.  0.
<mgrwt>
<rscale>  0 0.12499797E+03</rscale>
<asrwt>0</asrwt>
<pdfrwt beam="1">  1        4 0.70044433E-02 0.12499797E+03</pdfrwt>
<pdfrwt beam="2">  1       -4 0.13199138E-01 0.12499797E+03</pdfrwt>
<totfact> 0.10316636E+04</totfact>
</mgrwt>
</event>
<event>
 5    1  0.3269032E-002  0.1250007E+03  0.7818608E-02  0.1235068E+00
         -4   -1    0    0    0  501 -0.00000000000E+00  0.00000000000E+00  0.80955595755E+01  0.81945704488E+01  0.12700000000E+01 0.  1.
          4   -1    0    0  501    0  0.00000000000E+00 -0.00000000000E+00 -0.47949047614E+03  0.47949215803E+03  0.12700000000E+01 0.  1.
         25    2    1    2    0    0  0.00000000000E+00  0.00000000000E+00 -0.47139491657E+03  0.48768672848E+03  0.12500071107E+03 0.  0.
    9000005    1    3    3    0    0  0.44748995467E+02  0.32342371346E+01 -0.40541647701E+03  0.40789269755E+03  0.10000000000E+01 0.  0.
    9000005    1    3    3    0    0 -0.44748995467E+02 -0.32342371346E+01 -0.65978439561E+02  0.79794030930E+02  0.10000000000E+01 0.  0.
<mgrwt>
<rscale>  0 0.12500071E+03</rscale>
<asrwt>0</asrwt>
<pdfrwt beam="2">  1        4 0.73775489E-01 0.12500071E+03</pdfrwt>
<pdfrwt beam="1">  1       -4 0.12532167E-02 0.12500071E+03</pdfrwt>
<totfact> 0.56831664E+03</totfact>
</mgrwt>
</event>
<event>
 5    1  0.3269032E-002  0.1249993E+03  0.7818608E-02  0.1235070E+00
          4   -1    0    0  501    0  0.00000000000E+00  0.00000000000E+00  0.10523396303E+02  0.10599753287E+02  0.12700000000E+01 0. -1.
         -4   -1    0    0    0  501 -0.00000000000E+00 -0.00000000000E+00 -0.36977343653E+03  0.36977561746E+03  0.12700000000E+01 0. -1.
         25    2    1    2    0    0  0.00000000000E+00  0.00000000000E+00 -0.35925004023E+03  0.38037537074E+03  0.12499932505E+03 0.  0.
    9000005    1    3    3    0    0  0.81186895534E+00 -0.16196380392E+02  0.40238085173E+01  0.16738366228E+02  0.10000000000E+01 0.  0.
    9000005    1    3    3    0    0 -0.81186895534E+00  0.16196380392E+02 -0.36327384875E+03  0.36363700452E+03  0.10000000000E+01 0.  0.
<mgrwt>
<rscale>  0 0.12499933E+03</rscale>
<asrwt>0</asrwt>
<pdfrwt beam="1">  1        4 0.16250257E-02 0.12499933E+03</pdfrwt>
<pdfrwt beam="2">  1       -4 0.56894252E-01 0.12499933E+03</pdfrwt>
<totfact> 0.66508265E+03</totfact>
</mgrwt>
</event>
<event>
 5    1  0.3269032E-002  0.1250027E+03  0.7818608E-02  0.1235065E+00
          4   -1    0    0  501    0  0.00000000000E+00  0.00000000000E+00  0.94637401754E+01  0.95485746637E+01  0.12700000000E+01 0.  1.
         -4   -1    0    0    0  501 -0.00000000000E+00 -0.00000000000E+00 -0.41084998187E+03  0.41085194475E+03  0.12700000000E+01 0.  1.
         25    2    1    2    0    0  0.00000000000E+00  0.00000000000E+00 -0.40138624169E+03  0.42040051941E+03  0.12500272677E+03 0.  0.
    9000005    1    3    3    0    0 -0.46955279514E+02  0.32388506547E+02 -0.11484386020E+03  0.12823387172E+03  0.10000000000E+01 0.  0.
    9000005    1    3    3    0    0  0.46955279514E+02 -0.32388506547E+02 -0.28654238150E+03  0.29216664769E+03  0.10000000000E+01 0.  0.
<mgrwt>
<rscale>  0 0.12500273E+03</rscale>
<asrwt>0</asrwt>
<pdfrwt beam="1">  1        4 0.14626371E-02 0.12500273E+03</pdfrwt>
<pdfrwt beam="2">  1       -4 0.63214353E-01 0.12500273E+03</pdfrwt>
<totfact> 0.62612110E+03</totfact>
</mgrwt>
</event>
<event>
 5    1  0.3269032E-002  0.1249997E+03  0.7818608E-02  0.1235070E+00
          4   -1    0    0  501    0  0.00000000000E+00  0.00000000000E+00  0.98134601337E+03  0.98134683515E+03  0.12700000000E+01 0.  1.
         -4   -1    0    0    0  501 -0.00000000000E+00 -0.00000000000E+00 -0.38783364094E+01  0.40809794541E+01  0.12700000000E+01 0.  1.
         25    2    1    2    0    0  0.00000000000E+00  0.00000000000E+00  0.97746767696E+03  0.98542781460E+03  0.12499967316E+03 0.  0.
    9000005    1    3    3    0    0 -0.17541500031E+02 -0.88099857615E+01  0.21018419026E+02  0.28776622645E+02  0.10000000000E+01 0.  0.
    9000005    1    3    3    0    0  0.17541500031E+02  0.88099857615E+01  0.95644925793E+03  0.95665119196E+03  0.10000000000E+01 0.  0.
<mgrwt>
<rscale>  0 0.12499967E+03</rscale>
<asrwt>0</asrwt>
<pdfrwt beam="1">  1        4 0.15099190E+00 0.12499967E+03</pdfrwt>
<pdfrwt beam="2">  1       -4 0.61231854E-03 0.12499967E+03</pdfrwt>
<totfact> 0.31090808E+03</totfact>
</mgrwt>
</event>
<event>
 4    1  0.3269032E-002  0.1250736E+03  0.7818608E-02  0.1234954E+00
          4   -1    0    0  501    0  0.00000000000E+00  0.00000000000E+00  0.61274761106E+01  0.62577043304E+01  0.12700000000E+01 0. -1.
         -4   -1    0    0    0  501 -0.00000000000E+00 -0.00000000000E+00 -0.63140606001E+03  0.63140733723E+03  0.12700000000E+01 0. -1.
    9000005    1    1    2    0    0 -0.41923342596E+02  0.20082366142E+02 -0.52585522454E+03  0.52790679600E+03  0.10000000000E+01 0.  0.
    9000005    1    1    2    0    0  0.41923342596E+02 -0.20082366142E+02 -0.99423359354E+02  0.10975824556E+03  0.10000000000E+01 0.  0.
<mgrwt>
<rscale>  0 0.12507357E+03</rscale>
<asrwt>0</asrwt>
<pdfrwt beam="1">  1        4 0.95280493E-03 0.12507357E+03</pdfrwt>
<pdfrwt beam="2">  1       -4 0.97149459E-01 0.12507357E+03</pdfrwt>
<totfact> 0.46498263E+03</totfact>
</mgrwt>
</event>
<event>
 5    1  0.3269032E-002  0.1249990E+03  0.7818608E-02  0.1235071E+00
         -4   -1    0    0    0  501 -0.00000000000E+00  0.00000000000E+00  0.65359696817E+03  0.65359820204E+03  0.12700000000E+01 0.  1.
          4   -1    0    0  501    0  0.00000000000E+00 -0.00000000000E+00 -0.59077211870E+01  0.60426872849E+01  0.12700000000E+01 0.  1.
         25    2    1    2    0    0  0.00000000000E+00  0.00000000000E+00  0.64768924699E+03  0.65964088932E+03  0.12499896881E+03 0.  0.
    9000005    1    3    3    0    0 -0.35198357052E+02 -0.44106622867E+02  0.18215804271E+03  0.19070099906E+03  0.10000000000E+01 0.  0.
    9000005    1    3    3    0    0  0.35198357052E+02  0.44106622867E+02  0.46553120428E+03  0.46893989026E+03  0.10000000000E+01 0.  0.
<mgrwt>
<rscale>  0 0.12499897E+03</rscale>
<asrwt>0</asrwt>
<pdfrwt beam="2">  1        4 0.91935712E-03 0.12499897E+03</pdfrwt>
<pdfrwt beam="1">  1       -4 0.10056386E+00 0.12499897E+03</pdfrwt>
<totfact> 0.45305387E+03</totfact>
</mgrwt>
</event>
<event>
 5    1  0.3269032E-002  0.1249871E+03  0.7818608E-02  0.1235089E+00
         -4   -1    0    0    0  501 -0.00000000000E+00  0.00000000000E+00  0.11070501215E+02  0.11143109851E+02  0.12700000000E+01 0. -1.
          4   -1    0    0  501    0  0.00000000000E+00 -0.00000000000E+00 -0.35155244185E+03  0.35155473581E+03  0.12700000000E+01 0. -1.
         25    2    1    2    0    0  0.00000000000E+00  0.00000000000E+00 -0.34048194063E+03  0.36269784566E+03  0.12498710073E+03 0.  0.
    9000005    1    3    3    0    0 -0.44867622731E+02 -0.12497855371E+02 -0.49362897265E+02  0.67874852374E+02  0.10000000000E+01 0.  0.
    9000005    1    3    3    0    0  0.44867622731E+02  0.12497855371E+02 -0.29111904337E+03  0.29482299328E+03  0.10000000000E+01 0.  0.
<mgrwt>
<rscale>  0 0.12498710E+03</rscale>
<asrwt>0</asrwt>
<pdfrwt beam="2">  1        4 0.54090744E-01 0.12498710E+03</pdfrwt>
<pdfrwt beam="1">  1       -4 0.17089160E-02 0.12498710E+03</pdfrwt>
<totfact> 0.68369368E+03</totfact>
</mgrwt>
</event>
<event>
 5    1  0.3269032E-002  0.1250118E+03  0.7818608E-02  0.1235051E+00
          4   -1    0    0  501    0  0.00000000000E+00  0.00000000000E+00  0.49851600494E+03  0.49851762264E+03  0.12700000000E+01 0.  1.
         -4   -1    0    0    0  501 -0.00000000000E+00 -0.00000000000E+00 -0.77841449849E+01  0.78870661938E+01  0.12700000000E+01 0.  1.
         25    2    1    2    0    0  0.00000000000E+00  0.00000000000E+00  0.49073185995E+03  0.50640468883E+03  0.12501180143E+03 0.  0.
    9000005    1    3    3    0    0 -0.82129603271E+01  0.37268917543E+02  0.44876729382E+02  0.58918127704E+02  0.10000000000E+01 0.  0.
    9000005    1    3    3    0    0  0.82129603271E+01 -0.37268917543E+02  0.44585513057E+03  0.44748656113E+03  0.10000000000E+01 0.  0.
<mgrwt>
<rscale>  0 0.12501180E+03</rscale>
<asrwt>0</asrwt>
<pdfrwt beam="1">  1        4 0.76702810E-01 0.12501180E+03</pdfrwt>
<pdfrwt beam="2">  1       -4 0.12056022E-02 0.12501180E+03</pdfrwt>
<totfact> 0.55356480E+03</totfact>
</mgrwt>
</event>
<event>
 5    1  0.3269032E-002  0.1250000E+03  0.7818608E-02  0.1235069E+00
         -4   -1    0    0    0  501 -0.00000000000E+00  0.00000000000E+00  0.14604554164E+04  0.14604559686E+04  0.12700000000E+01 0. -1.
          4   -1    0    0  501    0  0.00000000000E+00 -0.00000000000E+00 -0.25233386314E+01  0.28249137772E+01  0.12700000000E+01 0. -1.
         25    2    1    2    0    0  0.00000000000E+00  0.00000000000E+00  0.14579320777E+04  0.14632808823E+04  0.12499998927E+03 0.  0.
    9000005    1    3    3    0    0 -0.20955725051E+02 -0.22618430068E+02  0.13652642687E+04  0.13656127779E+04  0.10000000000E+01 0.  0.
    9000005    1    3    3    0    0  0.20955725051E+02  0.22618430068E+02  0.92667809023E+02  0.97668104417E+02  0.10000000000E+01 0.  0.
<mgrwt>
<rscale>  0 0.12499999E+03</rscale>
<asrwt>0</asrwt>
<pdfrwt beam="2">  1        4 0.41144647E-03 0.12499999E+03</pdfrwt>
<pdfrwt beam="1">  1       -4 0.22470871E+00 0.12499999E+03</pdfrwt>
<totfact> 0.18662352E+03</totfact>
</mgrwt>
</event>
<event>
 5    1  0.3269032E-002  0.1249803E+03  0.7818608E-02  0.1235100E+00
         -4   -1    0    0    0  501 -0.00000000000E+00  0.00000000000E+00  0.30851660305E+04  0.30851662919E+04  0.12700000000E+01 0. -1.
          4   -1    0    0  501    0  0.00000000000E+00 -0.00000000000E+00 -0.94684388489E+00  0.15841127934E+01  0.12700000000E+01 0. -1.
         25    2    1    2    0    0  0.00000000000E+00  0.00000000000E+00  0.30842191866E+04  0.30867504047E+04  0.12498027751E+03 0.  0.
    9000005    1    3    3    0    0 -0.55970446411E+02  0.18040579079E+02  0.10206012387E+04  0.10222944985E+04  0.10000000000E+01 0.  0.
    9000005    1    3    3    0    0  0.55970446411E+02 -0.18040579079E+02  0.20636179480E+04  0.20644559062E+04  0.10000000000E+01 0.  0.
<mgrwt>
<rscale>  0 0.12498028E+03</rscale>
<asrwt>0</asrwt>
<pdfrwt beam="2">  1        4 0.19470934E-03 0.12498028E+03</pdfrwt>
<pdfrwt beam="1">  1       -4 0.47468934E+00 0.12498028E+03</pdfrwt>
<totfact> 0.15117513E+02</totfact>
</mgrwt>
</event>
<event>
 5    1  0.3269032E-002  0.1249972E+03  0.7818608E-02  0.1235074E+00
         -4   -1    0    0    0  501 -0.00000000000E+00  0.00000000000E+00  0.24666140729E+02  0.24698813706E+02  0.12700000000E+01 0.  1.
          4   -1    0    0  501    0  0.00000000000E+00 -0.00000000000E+00 -0.15821781500E+03  0.15822291201E+03  0.12700000000E+01 0.  1.
         25    2    1    2    0    0  0.00000000000E+00  0.00000000000E+00 -0.13355167427E+03  0.18292172571E+03  0.12499723212E+03 0.  0.
    9000005    1    3    3    0    0  0.26171012835E+02 -0.55483729903E+02 -0.84196568646E+02  0.10417978868E+03  0.10000000000E+01 0.  0.
    9000005    1    3    3    0    0 -0.26171012835E+02  0.55483729903E+02 -0.49355105626E+02  0.78741937036E+02  0.10000000000E+01 0.  0.
<mgrwt>
<rscale>  0 0.12499723E+03</rscale>
<asrwt>0</asrwt>
<pdfrwt beam="2">  1        4 0.24344107E-01 0.12499723E+03</pdfrwt>
<pdfrwt beam="1">  1       -4 0.37976964E-02 0.12499723E+03</pdfrwt>
<totfact> 0.93099488E+03</totfact>
</mgrwt>
</event>
<event>
 5    1  0.3269032E-002  0.1249979E+03  0.7818608E-02  0.1235072E+00
         -4   -1    0    0    0  501 -0.00000000000E+00  0.00000000000E+00  0.26759414856E+02  0.26789534961E+02  0.12700000000E+01 0.  1.
          4   -1    0    0  501    0  0.00000000000E+00 -0.00000000000E+00 -0.14585686432E+03  0.14586239327E+03  0.12700000000E+01 0.  1.
         25    2    1    2    0    0  0.00000000000E+00  0.00000000000E+00 -0.11909744946E+03  0.17265192823E+03  0.12499794339E+03 0.  0.
    9000005    1    3    3    0    0  0.51314798567E+02  0.21625831635E+02 -0.20378108328E+02  0.59305585276E+02  0.10000000000E+01 0.  0.
    9000005    1    3    3    0    0 -0.51314798567E+02 -0.21625831635E+02 -0.98719341136E+02  0.11334634295E+03  0.10000000000E+01 0.  0.
<mgrwt>
<rscale>  0 0.12499794E+03</rscale>
<asrwt>0</asrwt>
<pdfrwt beam="2">  1        4 0.22442259E-01 0.12499794E+03</pdfrwt>
<pdfrwt beam="1">  1       -4 0.41195754E-02 0.12499794E+03</pdfrwt>
<totfact> 0.94961034E+03</totfact>
</mgrwt>
</event>
<event>
 5    1  0.3269032E-002  0.1250015E+03  0.7818608E-02  0.1235067E+00
          4   -1    0    0  501    0  0.00000000000E+00  0.00000000000E+00  0.26951684623E+03  0.26951983841E+03  0.12700000000E+01 0.  1.
         -4   -1    0    0    0  501 -0.00000000000E+00 -0.00000000000E+00 -0.14462986488E+02  0.14518638991E+02  0.12700000000E+01 0.  1.
         25    2    1    2    0    0  0.00000000000E+00  0.00000000000E+00  0.25505385974E+03  0.28403847741E+03  0.12500154111E+03 0.  0.
    9000005    1    3    3    0    0 -0.43634413273E+02  0.41019792341E+02  0.86957925038E+02  0.10559008529E+03  0.10000000000E+01 0.  0.
    9000005    1    3    3    0    0  0.43634413273E+02 -0.41019792341E+02  0.16809593470E+03  0.17844839211E+03  0.10000000000E+01 0.  0.
<mgrwt>
<rscale>  0 0.12500154E+03</rscale>
<asrwt>0</asrwt>
<pdfrwt beam="1">  1        4 0.41468635E-01 0.12500154E+03</pdfrwt>
<pdfrwt beam="2">  1       -4 0.22295863E-02 0.12500154E+03</pdfrwt>
<totfact> 0.77643007E+03</totfact>
</mgrwt>
</event>
<event>
 5    1  0.3269032E-002  0.1249999E+03  0.7818608E-02  0.1235069E+00
         -4   -1    0    0    0  501 -0.00000000000E+00  0.00000000000E+00  0.29305143940E+02  0.29332650091E+02  0.12700000000E+01 0.  1.
          4   -1    0    0  501    0  0.00000000000E+00 -0.00000000000E+00 -0.13320254026E+03  0.13320859444E+03  0.12700000000E+01 0.  1.
         25    2    1    2    0    0  0.00000000000E+00  0.00000000000E+00 -0.10389739632E+03  0.16254124453E+03  0.12499994884E+03 0.  0.
    9000005    1    3    3    0    0  0.20176845216E+02 -0.20865815131E+01  0.24911590902E+02  0.32141037110E+02  0.10000000000E+01 0.  0.
    9000005    1    3    3    0    0 -0.20176845216E+02  0.20865815131E+01 -0.12880898723E+03  0.13040020742E+03  0.10000000000E+01 0.  0.
<mgrwt>
<rscale>  0 0.12499995E+03</rscale>
<asrwt>0</asrwt>
<pdfrwt beam="2">  1        4 0.20495280E-01 0.12499995E+03</pdfrwt>
<pdfrwt beam="1">  1       -4 0.45110653E-02 0.12499995E+03</pdfrwt>
<totfact> 0.96855190E+03</totfact>
</mgrwt>
</event>
<event>
 5    1  0.3269032E-002  0.1249989E+03  0.7818608E-02  0.1235071E+00
          4   -1    0    0  501    0  0.00000000000E+00  0.00000000000E+00  0.82374103348E+02  0.82383892857E+02  0.12700000000E+01 0. -1.
         -4   -1    0    0    0  501 -0.00000000000E+00 -0.00000000000E+00 -0.47398915645E+02  0.47415926695E+02  0.12700000000E+01 0. -1.
         25    2    1    2    0    0  0.00000000000E+00  0.00000000000E+00  0.34975187703E+02  0.12979981955E+03  0.12499891760E+03 0.  0.
    9000005    1    3    3    0    0 -0.10530816572E+02 -0.35537466731E+02 -0.34757544471E+02  0.50822205156E+02  0.10000000000E+01 0.  0.
    9000005    1    3    3    0    0  0.10530816572E+02  0.35537466731E+02  0.69732732173E+02  0.78977614396E+02  0.10000000000E+01 0.  0.
<mgrwt>
<rscale>  0 0.12499892E+03</rscale>
<asrwt>0</asrwt>
<pdfrwt beam="1">  1        4 0.12675001E-01 0.12499892E+03</pdfrwt>
<pdfrwt beam="2">  1       -4 0.72942025E-02 0.12499892E+03</pdfrwt>
<totfact> 0.10349044E+04</totfact>
</mgrwt>
</event>
<event>
 5    1  0.3269032E-002  0.1249966E+03  0.7818608E-02  0.1235075E+00
          4   -1    0    0  501    0  0.00000000000E+00  0.00000000000E+00  0.38788360045E+03  0.38788567955E+03  0.12700000000E+01 0. -1.
         -4   -1    0    0    0  501 -0.00000000000E+00 -0.00000000000E+00 -0.10027974139E+02  0.10108074264E+02  0.12700000000E+01 0. -1.
         25    2    1    2    0    0  0.00000000000E+00  0.00000000000E+00  0.37785562631E+03  0.39799375381E+03  0.12499661491E+03 0.  0.
    9000005    1    3    3    0    0 -0.35700952140E+02  0.51205325472E+02  0.19820811497E+03  0.20780760376E+03  0.10000000000E+01 0.  0.
    9000005    1    3    3    0    0  0.35700952140E+02 -0.51205325472E+02  0.17964751134E+03  0.19018615005E+03  0.10000000000E+01 0.  0.
<mgrwt>
<rscale>  0 0.12499661E+03</rscale>
<asrwt>0</asrwt>
<pdfrwt beam="1">  1        4 0.59680716E-01 0.12499661E+03</pdfrwt>
<pdfrwt beam="2">  1       -4 0.15490869E-02 0.12499661E+03</pdfrwt>
<totfact> 0.64753224E+03</totfact>
</mgrwt>
</event>
<event>
 5    1  0.3269032E-002  0.1249498E+03  0.7818608E-02  0.1235148E+00
          4   -1    0    0  501    0  0.00000000000E+00  0.00000000000E+00  0.47895628335E+03  0.47895796712E+03  0.12700000000E+01 0. -1.
         -4   -1    0    0    0  501 -0.00000000000E+00 -0.00000000000E+00 -0.80980186652E+01  0.81969998354E+01  0.12700000000E+01 0. -1.
         25    2    1    2    0    0  0.00000000000E+00  0.00000000000E+00  0.47085826469E+03  0.48715496695E+03  0.12494981553E+03 0.  0.
    9000005    1    3    3    0    0  0.43395996759E+02  0.35962146582E+02  0.34045295152E+03  0.34508796085E+03  0.10000000000E+01 0.  0.
    9000005    1    3    3    0    0 -0.43395996759E+02 -0.35962146582E+02  0.13040531317E+03  0.14206700611E+03  0.10000000000E+01 0.  0.
<mgrwt>
<rscale>  0 0.12494982E+03</rscale>
<asrwt>0</asrwt>
<pdfrwt beam="1">  1        4 0.73693313E-01 0.12494982E+03</pdfrwt>
<pdfrwt beam="2">  1       -4 0.12535927E-02 0.12494982E+03</pdfrwt>
<totfact> 0.56937777E+03</totfact>
</mgrwt>
</event>
<event>
 5    1  0.3269032E-002  0.1250068E+03  0.7818608E-02  0.1235059E+00
          4   -1    0    0  501    0  0.00000000000E+00  0.00000000000E+00  0.68813742344E+02  0.68825460662E+02  0.12700000000E+01 0. -1.
         -4   -1    0    0    0  501 -0.00000000000E+00 -0.00000000000E+00 -0.56748031582E+02  0.56762240869E+02  0.12700000000E+01 0. -1.
         25    2    1    2    0    0  0.00000000000E+00  0.00000000000E+00  0.12065710762E+02  0.12558770153E+03  0.12500675742E+03 0.  0.
    9000005    1    3    3    0    0 -0.40078407986E+02 -0.28998526849E+02 -0.32334663266E+02  0.59107730413E+02  0.10000000000E+01 0.  0.
    9000005    1    3    3    0    0  0.40078407986E+02  0.28998526849E+02  0.44400374028E+02  0.66479971118E+02  0.10000000000E+01 0.  0.
<mgrwt>
<rscale>  0 0.12500676E+03</rscale>
<asrwt>0</asrwt>
<pdfrwt beam="1">  1        4 0.10588724E-01 0.12500676E+03</pdfrwt>
<pdfrwt beam="2">  1       -4 0.87324609E-02 0.12500676E+03</pdfrwt>
<totfact> 0.10438427E+04</totfact>
</mgrwt>
</event>
<event>
 5    1  0.3269032E-002  0.1250013E+03  0.7818608E-02  0.1235067E+00
         -4   -1    0    0    0  501 -0.00000000000E+00  0.00000000000E+00  0.13773698347E+03  0.13774283834E+03  0.12700000000E+01 0.  1.
          4   -1    0    0  501    0  0.00000000000E+00 -0.00000000000E+00 -0.28340136009E+02  0.28368577846E+02  0.12700000000E+01 0.  1.
         25    2    1    2    0    0  0.00000000000E+00  0.00000000000E+00  0.10939684746E+03  0.16611141619E+03  0.12500132941E+03 0.  0.
    9000005    1    3    3    0    0  0.59919298802E+02 -0.91089924367E+01  0.34455956358E+02  0.69724522520E+02  0.10000000000E+01 0.  0.
    9000005    1    3    3    0    0 -0.59919298802E+02  0.91089924367E+01  0.74940891102E+02  0.96386893670E+02  0.10000000000E+01 0.  0.
<mgrwt>
<rscale>  0 0.12500133E+03</rscale>
<asrwt>0</asrwt>
<pdfrwt beam="2">  1        4 0.43626590E-02 0.12500133E+03</pdfrwt>
<pdfrwt beam="1">  1       -4 0.21192944E-01 0.12500133E+03</pdfrwt>
<totfact> 0.96174448E+03</totfact>
</mgrwt>
</event>
<event>
 5    1  0.3269032E-002  0.1249995E+03  0.7818608E-02  0.1235070E+00
          4   -1    0    0  501    0  0.00000000000E+00  0.00000000000E+00  0.55264017525E+02  0.55278608276E+02  0.12700000000E+01 0.  1.
         -4   -1    0    0    0  501 -0.00000000000E+00 -0.00000000000E+00 -0.70653177050E+02  0.70664590335E+02  0.12700000000E+01 0.  1.
         25    2    1    2    0    0  0.00000000000E+00  0.00000000000E+00 -0.15389159526E+02  0.12594319861E+03  0.12499945218E+03 0.  0.
    9000005    1    3    3    0    0  0.48935653461E+02 -0.38830119095E+02 -0.93621991577E+01  0.63175367839E+02  0.10000000000E+01 0.  0.
    9000005    1    3    3    0    0 -0.48935653461E+02  0.38830119095E+02 -0.60269603679E+01  0.62767830772E+02  0.10000000000E+01 0.  0.
<mgrwt>
<rscale>  0 0.12499945E+03</rscale>
<asrwt>0</asrwt>
<pdfrwt beam="1">  1        4 0.85041568E-02 0.12499945E+03</pdfrwt>
<pdfrwt beam="2">  1       -4 0.10871720E-01 0.12499945E+03</pdfrwt>
<totfact> 0.10432331E+04</totfact>
</mgrwt>
</event>
<event>
 5    1  0.3269032E-002  0.1250023E+03  0.7818608E-02  0.1235066E+00
          4   -1    0    0  501    0  0.00000000000E+00  0.00000000000E+00  0.13572451043E+03  0.13573045211E+03  0.12700000000E+01 0.  1.
         -4   -1    0    0    0  501 -0.00000000000E+00 -0.00000000000E+00 -0.28761220472E+02  0.28789246309E+02  0.12700000000E+01 0.  1.
         25    2    1    2    0    0  0.00000000000E+00  0.00000000000E+00  0.10696328995E+03  0.16451969842E+03  0.12500234306E+03 0.  0.
    9000005    1    3    3    0    0 -0.46447697371E+01 -0.20632969423E+02 -0.23914391679E+02  0.31940435853E+02  0.10000000000E+01 0.  0.
    9000005    1    3    3    0    0  0.46447697371E+01  0.20632969423E+02  0.13087768163E+03  0.13257926257E+03  0.10000000000E+01 0.  0.
<mgrwt>
<rscale>  0 0.12500234E+03</rscale>
<asrwt>0</asrwt>
<pdfrwt beam="1">  1        4 0.20883307E-01 0.12500234E+03</pdfrwt>
<pdfrwt beam="2">  1       -4 0.44274160E-02 0.12500234E+03</pdfrwt>
<totfact> 0.96473352E+03</totfact>
</mgrwt>
</event>
<event>
 5    1  0.3269032E-002  0.1249991E+03  0.7818608E-02  0.1235071E+00
          4   -1    0    0  501    0  0.00000000000E+00  0.00000000000E+00  0.17385401190E+02  0.17431726092E+02  0.12700000000E+01 0. -1.
         -4   -1    0    0    0  501 -0.00000000000E+00 -0.00000000000E+00 -0.22433520186E+03  0.22433879667E+03  0.12700000000E+01 0. -1.
         25    2    1    2    0    0  0.00000000000E+00  0.00000000000E+00 -0.20694980067E+03  0.24177052276E+03  0.12499906272E+03 0.  0.
    9000005    1    3    3    0    0  0.61897994772E+02 -0.66844675013E+00 -0.12004380724E+03  0.13506785049E+03  0.10000000000E+01 0.  0.
    9000005    1    3    3    0    0 -0.61897994772E+02  0.66844675013E+00 -0.86905993424E+02  0.10670267228E+03  0.10000000000E+01 0.  0.
<mgrwt>
<rscale>  0 0.12499906E+03</rscale>
<asrwt>0</asrwt>
<pdfrwt beam="1">  1        4 0.26785172E-02 0.12499906E+03</pdfrwt>
<pdfrwt beam="2">  1       -4 0.34516946E-01 0.12499906E+03</pdfrwt>
<totfact> 0.83536130E+03</totfact>
</mgrwt>
</event>
<event>
 5    1  0.3269032E-002  0.1250000E+03  0.7818608E-02  0.1235069E+00
         -4   -1    0    0    0  501 -0.00000000000E+00  0.00000000000E+00  0.96776987125E+02  0.96785319842E+02  0.12700000000E+01 0. -1.
          4   -1    0    0  501    0  0.00000000000E+00 -0.00000000000E+00 -0.40343354112E+02  0.40363338824E+02  0.12700000000E+01 0. -1.
         25    2    1    2    0    0  0.00000000000E+00  0.00000000000E+00  0.56433633012E+02  0.13714865867E+03  0.12499999856E+03 0.  0.
    9000005    1    3    3    0    0 -0.56715310369E+02  0.13135152213E+02  0.53142369769E+02  0.78830642002E+02  0.10000000000E+01 0.  0.
    9000005    1    3    3    0    0  0.56715310369E+02 -0.13135152213E+02  0.32912632435E+01  0.58318016664E+02  0.10000000000E+01 0.  0.
<mgrwt>
<rscale>  0 0.12500000E+03</rscale>
<asrwt>0</asrwt>
<pdfrwt beam="2">  1        4 0.62088482E-02 0.12500000E+03</pdfrwt>
<pdfrwt beam="1">  1       -4 0.14890945E-01 0.12500000E+03</pdfrwt>
<totfact> 0.10192979E+04</totfact>
</mgrwt>
</event>
<event>
 5    1  0.3269032E-002  0.1250013E+03  0.7818608E-02  0.1235067E+00
         -4   -1    0    0    0  501 -0.00000000000E+00  0.00000000000E+00  0.72871292283E+03  0.72871402951E+03  0.12700000000E+01 0.  1.
          4   -1    0    0  501    0  0.00000000000E+00 -0.00000000000E+00 -0.52842397542E+01  0.54347115637E+01  0.12700000000E+01 0.  1.
         25    2    1    2    0    0  0.00000000000E+00  0.00000000000E+00  0.72342868308E+03  0.73414874107E+03  0.12500125807E+03 0.  0.
    9000005    1    3    3    0    0  0.30464677578E+02 -0.24775953735E+01  0.68184542113E+03  0.68253088822E+03  0.10000000000E+01 0.  0.
    9000005    1    3    3    0    0 -0.30464677578E+02  0.24775953735E+01  0.41583261945E+02  0.51617852849E+02  0.10000000000E+01 0.  0.
<mgrwt>
<rscale>  0 0.12500126E+03</rscale>
<asrwt>0</asrwt>
<pdfrwt beam="2">  1        4 0.82461986E-03 0.12500126E+03</pdfrwt>
<pdfrwt beam="1">  1       -4 0.11212134E+00 0.12500126E+03</pdfrwt>
<totfact> 0.41342884E+03</totfact>
</mgrwt>
</event>
<event>
 5    1  0.3269032E-002  0.1249969E+03  0.7818608E-02  0.1235074E+00
          4   -1    0    0  501    0  0.00000000000E+00  0.00000000000E+00  0.60931516136E+02  0.60944750050E+02  0.12700000000E+01 0.  1.
         -4   -1    0    0    0  501 -0.00000000000E+00 -0.00000000000E+00 -0.64079223682E+02  0.64091807649E+02  0.12700000000E+01 0.  1.
         25    2    1    2    0    0  0.00000000000E+00  0.00000000000E+00 -0.31477075467E+01  0.12503655770E+03  0.12499693076E+03 0.  0.
    9000005    1    3    3    0    0  0.18960188415E+02 -0.40960652382E+02  0.41657834174E+02  0.61429951460E+02  0.10000000000E+01 0.  0.
    9000005    1    3    3    0    0 -0.18960188415E+02  0.40960652382E+02 -0.44805541721E+02  0.63606606239E+02  0.10000000000E+01 0.  0.
<mgrwt>
<rscale>  0 0.12499693E+03</rscale>
<asrwt>0</asrwt>
<pdfrwt beam="1">  1        4 0.93760654E-02 0.12499693E+03</pdfrwt>
<pdfrwt beam="2">  1       -4 0.98603281E-02 0.12499693E+03</pdfrwt>
<totfact> 0.10452794E+04</totfact>
</mgrwt>
</event>
<event>
 5    1  0.3269032E-002  0.1249968E+03  0.7818608E-02  0.1235074E+00
          4   -1    0    0  501    0  0.00000000000E+00  0.00000000000E+00  0.23219148167E+03  0.23219495485E+03  0.12700000000E+01 0. -1.
         -4   -1    0    0    0  501 -0.00000000000E+00 -0.00000000000E+00 -0.16794954227E+02  0.16842903178E+02  0.12700000000E+01 0. -1.
         25    2    1    2    0    0  0.00000000000E+00  0.00000000000E+00  0.21539652744E+03  0.24903785803E+03  0.12499676275E+03 0.  0.
    9000005    1    3    3    0    0  0.39141454342E+02  0.28344986442E+02  0.28765917813E+02  0.56249175390E+02  0.10000000000E+01 0.  0.
    9000005    1    3    3    0    0 -0.39141454342E+02 -0.28344986442E+02  0.18663060963E+03  0.19278868264E+03  0.10000000000E+01 0.  0.
<mgrwt>
<rscale>  0 0.12499676E+03</rscale>
<asrwt>0</asrwt>
<pdfrwt beam="1">  1        4 0.35725723E-01 0.12499676E+03</pdfrwt>
<pdfrwt beam="2">  1       -4 0.25877946E-02 0.12499676E+03</pdfrwt>
<totfact> 0.82475433E+03</totfact>
</mgrwt>
</event>
<event>
 5    1  0.3269032E-002  0.1250000E+03  0.7818608E-02  0.1235069E+00
         -4   -1    0    0    0  501 -0.00000000000E+00  0.00000000000E+00  0.15063930715E+02  0.15117371087E+02  0.12700000000E+01 0.  1.
          4   -1    0    0  501    0  0.00000000000E+00 -0.00000000000E+00 -0.25879750810E+03  0.25880062422E+03  0.12700000000E+01 0.  1.
         25    2    1    2    0    0  0.00000000000E+00  0.00000000000E+00 -0.24373357739E+03  0.27391799531E+03  0.12500004564E+03 0.  0.
    9000005    1    3    3    0    0 -0.81953109992E+01  0.35204919685E+02 -0.23357593863E+03  0.23635834785E+03  0.10000000000E+01 0.  0.
    9000005    1    3    3    0    0  0.81953109992E+01 -0.35204919685E+02 -0.10157638759E+02  0.37559647463E+02  0.10000000000E+01 0.  0.
<mgrwt>
<rscale>  0 0.12500005E+03</rscale>
<asrwt>0</asrwt>
<pdfrwt beam="2">  1        4 0.39819349E-01 0.12500005E+03</pdfrwt>
<pdfrwt beam="1">  1       -4 0.23218785E-02 0.12500005E+03</pdfrwt>
<totfact> 0.78991429E+03</totfact>
</mgrwt>
</event>
<event>
 5    1  0.3269032E-002  0.1249874E+03  0.7818608E-02  0.1235089E+00
         -4   -1    0    0    0  501 -0.00000000000E+00  0.00000000000E+00  0.30542802245E+02  0.30569194771E+02  0.12700000000E+01 0. -1.
          4   -1    0    0  501    0  0.00000000000E+00 -0.00000000000E+00 -0.12778372085E+03  0.12779003175E+03  0.12700000000E+01 0. -1.
         25    2    1    2    0    0  0.00000000000E+00  0.00000000000E+00 -0.97240918609E+02  0.15835922652E+03  0.12498739286E+03 0.  0.
    9000005    1    3    3    0    0  0.36124286966E+02 -0.45545850569E+02 -0.77653144489E+02  0.97007213453E+02  0.10000000000E+01 0.  0.
    9000005    1    3    3    0    0 -0.36124286966E+02  0.45545850569E+02 -0.19587774121E+02  0.61352013072E+02  0.10000000000E+01 0.  0.
<mgrwt>
<rscale>  0 0.12498739E+03</rscale>
<asrwt>0</asrwt>
<pdfrwt beam="2">  1        4 0.19661549E-01 0.12498739E+03</pdfrwt>
<pdfrwt beam="1">  1       -4 0.47014084E-02 0.12498739E+03</pdfrwt>
<totfact> 0.97687733E+03</totfact>
</mgrwt>
</event>
<event>
 5    1  0.3269032E-002  0.1250017E+03  0.7818608E-02  0.1235067E+00
          4   -1    0    0  501    0  0.00000000000E+00  0.00000000000E+00  0.40130697931E+02  0.40150788490E+02  0.12700000000E+01 0.  1.
         -4   -1    0    0    0  501 -0.00000000000E+00 -0.00000000000E+00 -0.97292186937E+02  0.97300475533E+02  0.12700000000E+01 0.  1.
         25    2    1    2    0    0  0.00000000000E+00  0.00000000000E+00 -0.57161489006E+02  0.13745126402E+03  0.12500165661E+03 0.  0.
    9000005    1    3    3    0    0 -0.87735564255E+01 -0.41797847316E+02  0.21584416569E+02  0.47863580844E+02  0.10000000000E+01 0.  0.
    9000005    1    3    3    0    0  0.87735564255E+01  0.41797847316E+02 -0.78745905575E+02  0.89587683180E+02  0.10000000000E+01 0.  0.
<mgrwt>
<rscale>  0 0.12500166E+03</rscale>
<asrwt>0</asrwt>
<pdfrwt beam="1">  1        4 0.61761366E-02 0.12500166E+03</pdfrwt>
<pdfrwt beam="2">  1       -4 0.14970212E-01 0.12500166E+03</pdfrwt>
<totfact> 0.10186278E+04</totfact>
</mgrwt>
</event>
<event>
 5    1  0.3269032E-002  0.1250211E+03  0.7818608E-02  0.1235036E+00
          4   -1    0    0  501    0  0.00000000000E+00  0.00000000000E+00  0.87006654062E+02  0.87015922399E+02  0.12700000000E+01 0. -1.
         -4   -1    0    0    0  501 -0.00000000000E+00 -0.00000000000E+00 -0.44890537243E+02  0.44908498460E+02  0.12700000000E+01 0. -1.
         25    2    1    2    0    0  0.00000000000E+00  0.00000000000E+00  0.42116116819E+02  0.13192442086E+03  0.12502114031E+03 0.  0.
    9000005    1    3    3    0    0  0.44366736793E+02  0.41681562177E+02  0.36011320519E+02  0.70735953833E+02  0.10000000000E+01 0.  0.
    9000005    1    3    3    0    0 -0.44366736793E+02 -0.41681562177E+02  0.61047963003E+01  0.61188467026E+02  0.10000000000E+01 0.  0.
<mgrwt>
<rscale>  0 0.12502114E+03</rscale>
<asrwt>0</asrwt>
<pdfrwt beam="1">  1        4 0.13387734E-01 0.12502114E+03</pdfrwt>
<pdfrwt beam="2">  1       -4 0.69083311E-02 0.12502114E+03</pdfrwt>
<totfact> 0.10298400E+04</totfact>
</mgrwt>
</event>
<event>
 5    1  0.3269032E-002  0.1249999E+03  0.7818608E-02  0.1235069E+00
         -4   -1    0    0    0  501 -0.00000000000E+00  0.00000000000E+00  0.23301400665E+03  0.23301746757E+03  0.12700000000E+01 0. -1.
          4   -1    0    0  501    0  0.00000000000E+00 -0.00000000000E+00 -0.16736352968E+02  0.16784469329E+02  0.12700000000E+01 0. -1.
         25    2    1    2    0    0  0.00000000000E+00  0.00000000000E+00  0.21627765368E+03  0.24980193690E+03  0.12499993680E+03 0.  0.
    9000005    1    3    3    0    0  0.62053318747E+02 -0.70228901876E+01  0.10353348668E+03  0.12091368086E+03  0.10000000000E+01 0.  0.
    9000005    1    3    3    0    0 -0.62053318747E+02  0.70228901876E+01  0.11274416700E+03  0.12888825605E+03  0.10000000000E+01 0.  0.
<mgrwt>
<rscale>  0 0.12499994E+03</rscale>
<asrwt>0</asrwt>
<pdfrwt beam="2">  1        4 0.25787909E-02 0.12499994E+03</pdfrwt>
<pdfrwt beam="1">  1       -4 0.35852277E-01 0.12499994E+03</pdfrwt>
<totfact> 0.82358977E+03</totfact>
</mgrwt>
</event>
<event>
 5    1  0.3269032E-002  0.1249959E+03  0.7818608E-02  0.1235076E+00
         -4   -1    0    0    0  501 -0.00000000000E+00  0.00000000000E+00  0.25860685977E+03  0.25860997819E+03  0.12700000000E+01 0. -1.
          4   -1    0    0  501    0  0.00000000000E+00 -0.00000000000E+00 -0.15074065060E+02  0.15127469631E+02  0.12700000000E+01 0. -1.
         25    2    1    2    0    0  0.00000000000E+00  0.00000000000E+00  0.24353279471E+03  0.27373744782E+03  0.12499587290E+03 0.  0.
    9000005    1    3    3    0    0 -0.21520969743E+02 -0.20722633960E+02  0.24196398479E+03  0.24380350619E+03  0.10000000000E+01 0.  0.
    9000005    1    3    3    0    0  0.21520969743E+02  0.20722633960E+02  0.15688099202E+01  0.29933941629E+02  0.10000000000E+01 0.  0.
<mgrwt>
<rscale>  0 0.12499587E+03</rscale>
<asrwt>0</asrwt>
<pdfrwt beam="2">  1        4 0.23234347E-02 0.12499587E+03</pdfrwt>
<pdfrwt beam="1">  1       -4 0.39790021E-01 0.12499587E+03</pdfrwt>
<totfact> 0.79023119E+03</totfact>
</mgrwt>
</event>
<event>
 5    1  0.3269032E-002  0.1249992E+03  0.7818608E-02  0.1235070E+00
         -4   -1    0    0    0  501 -0.00000000000E+00  0.00000000000E+00  0.33063491327E+02  0.33087873288E+02  0.12700000000E+01 0.  1.
          4   -1    0    0  501    0  0.00000000000E+00 -0.00000000000E+00 -0.11807111372E+03  0.11807794373E+03  0.12700000000E+01 0.  1.
         25    2    1    2    0    0  0.00000000000E+00  0.00000000000E+00 -0.85007622398E+02  0.15116581702E+03  0.12499923348E+03 0.  0.
    9000005    1    3    3    0    0  0.38497183434E+01 -0.38577100420E+02 -0.10177584650E+03  0.10891435139E+03  0.10000000000E+01 0.  0.
    9000005    1    3    3    0    0 -0.38497183434E+01  0.38577100420E+02  0.16768224104E+02  0.42251465628E+02  0.10000000000E+01 0.  0.
<mgrwt>
<rscale>  0 0.12499923E+03</rscale>
<asrwt>0</asrwt>
<pdfrwt beam="2">  1        4 0.18167187E-01 0.12499923E+03</pdfrwt>
<pdfrwt beam="1">  1       -4 0.50890920E-02 0.12499923E+03</pdfrwt>
<totfact> 0.99073525E+03</totfact>
</mgrwt>
</event>
<event>
 5    1  0.3269032E-002  0.1250029E+03  0.7818608E-02  0.1235065E+00
         -4   -1    0    0    0  501 -0.00000000000E+00  0.00000000000E+00  0.20502799135E+02  0.20542095131E+02  0.12700000000E+01 0.  1.
          4   -1    0    0  501    0  0.00000000000E+00 -0.00000000000E+00 -0.19030772064E+03  0.19031195820E+03  0.12700000000E+01 0.  1.
         25    2    1    2    0    0  0.00000000000E+00  0.00000000000E+00 -0.16980492150E+03  0.21085405333E+03  0.12500288173E+03 0.  0.
    9000005    1    3    3    0    0  0.10005082528E+02 -0.61520391403E+02 -0.77252173213E+02  0.99266099454E+02  0.10000000000E+01 0.  0.
    9000005    1    3    3    0    0 -0.10005082528E+02  0.61520391403E+02 -0.92552748291E+02  0.11158795388E+03  0.10000000000E+01 0.  0.
<mgrwt>
<rscale>  0 0.12500288E+03</rscale>
<asrwt>0</asrwt>
<pdfrwt beam="2">  1        4 0.29281458E-01 0.12500288E+03</pdfrwt>
<pdfrwt beam="1">  1       -4 0.31576257E-02 0.12500288E+03</pdfrwt>
<totfact> 0.88330903E+03</totfact>
</mgrwt>
</event>
<event>
 5    1  0.3269032E-002  0.1249945E+03  0.7818608E-02  0.1235078E+00
          4   -1    0    0  501    0  0.00000000000E+00  0.00000000000E+00  0.56208462997E+02  0.56222808649E+02  0.12700000000E+01 0.  1.
         -4   -1    0    0    0  501 -0.00000000000E+00 -0.00000000000E+00 -0.69460670626E+02  0.69472279823E+02  0.12700000000E+01 0.  1.
         25    2    1    2    0    0  0.00000000000E+00  0.00000000000E+00 -0.13252207630E+02  0.12569508847E+03  0.12499453692E+03 0.  0.
    9000005    1    3    3    0    0  0.38236379347E+02 -0.41013347793E+02 -0.34363173420E+02  0.65771901981E+02  0.10000000000E+01 0.  0.
    9000005    1    3    3    0    0 -0.38236379347E+02  0.41013347793E+02  0.21110965790E+02  0.59923186492E+02  0.10000000000E+01 0.  0.
<mgrwt>
<rscale>  0 0.12499454E+03</rscale>
<asrwt>0</asrwt>
<pdfrwt beam="1">  1        4 0.86494524E-02 0.12499454E+03</pdfrwt>
<pdfrwt beam="2">  1       -4 0.10688253E-01 0.12499454E+03</pdfrwt>
<totfact> 0.10438939E+04</totfact>
</mgrwt>
</event>
<event>
 5    1  0.3269032E-002  0.1250041E+03  0.7818608E-02  0.1235063E+00
          4   -1    0    0  501    0  0.00000000000E+00  0.00000000000E+00  0.15641867850E+04  0.15641873006E+04  0.12700000000E+01 0. -1.
         -4   -1    0    0    0  501 -0.00000000000E+00 -0.00000000000E+00 -0.23354668037E+01  0.26584403682E+01  0.12700000000E+01 0. -1.
         25    2    1    2    0    0  0.00000000000E+00  0.00000000000E+00  0.15618513182E+04  0.15668457409E+04  0.12500414292E+03 0.  0.
    9000005    1    3    3    0    0  0.17548861965E+02  0.46300177579E+02  0.30300023739E+03  0.30702086714E+03  0.10000000000E+01 0.  0.
    9000005    1    3    3    0    0 -0.17548861965E+02 -0.46300177579E+02  0.12588510808E+04  0.12598248738E+04  0.10000000000E+01 0.  0.
<mgrwt>
<rscale>  0 0.12500414E+03</rscale>
<asrwt>0</asrwt>
<pdfrwt beam="1">  1        4 0.24066935E+00 0.12500414E+03</pdfrwt>
<pdfrwt beam="2">  1       -4 0.38418581E-03 0.12500414E+03</pdfrwt>
<totfact> 0.16651664E+03</totfact>
</mgrwt>
</event>
<event>
 5    1  0.3269032E-002  0.1249927E+03  0.7818608E-02  0.1235081E+00
         -4   -1    0    0    0  501 -0.00000000000E+00  0.00000000000E+00  0.41735292693E+03  0.41735485923E+03  0.12700000000E+01 0.  1.
          4   -1    0    0  501    0  0.00000000000E+00 -0.00000000000E+00 -0.93134433690E+01  0.93996344284E+01  0.12700000000E+01 0.  1.
         25    2    1    2    0    0  0.00000000000E+00  0.00000000000E+00  0.40803948356E+03  0.42675449365E+03  0.12499271062E+03 0.  0.
    9000005    1    3    3    0    0 -0.51990028029E+02 -0.24537440251E+02  0.28763333614E+03  0.29332402740E+03  0.10000000000E+01 0.  0.
    9000005    1    3    3    0    0  0.51990028029E+02  0.24537440251E+02  0.12040614742E+03  0.13343046626E+03  0.10000000000E+01 0.  0.
<mgrwt>
<rscale>  0 0.12499271E+03</rscale>
<asrwt>0</asrwt>
<pdfrwt beam="2">  1        4 0.14396167E-02 0.12499271E+03</pdfrwt>
<pdfrwt beam="1">  1       -4 0.64214897E-01 0.12499271E+03</pdfrwt>
<totfact> 0.62041267E+03</totfact>
</mgrwt>
</event>
<event>
 5    1  0.3269032E-002  0.1249989E+03  0.7818608E-02  0.1235071E+00
          4   -1    0    0  501    0  0.00000000000E+00  0.00000000000E+00  0.92169293150E+02  0.92178042395E+02  0.12700000000E+01 0. -1.
         -4   -1    0    0    0  501 -0.00000000000E+00 -0.00000000000E+00 -0.42360223229E+02  0.42379256860E+02  0.12700000000E+01 0. -1.
         25    2    1    2    0    0  0.00000000000E+00  0.00000000000E+00  0.49809069921E+02  0.13455729925E+03  0.12499889334E+03 0.  0.
    9000005    1    3    3    0    0  0.44500844617E+02 -0.32690883679E+02 -0.65931774663E+01  0.55619142716E+02  0.10000000000E+01 0.  0.
    9000005    1    3    3    0    0 -0.44500844617E+02  0.32690883679E+02  0.56402247387E+02  0.78938156539E+02  0.10000000000E+01 0.  0.
<mgrwt>
<rscale>  0 0.12499889E+03</rscale>
<asrwt>0</asrwt>
<pdfrwt beam="1">  1        4 0.14182028E-01 0.12499889E+03</pdfrwt>
<pdfrwt beam="2">  1       -4 0.65190946E-02 0.12499889E+03</pdfrwt>
<totfact> 0.10247666E+04</totfact>
</mgrwt>
</event>
<event>
 5    1  0.3269032E-002  0.1250157E+03  0.7818608E-02  0.1235045E+00
         -4   -1    0    0    0  501 -0.00000000000E+00  0.00000000000E+00  0.28292014561E+02  0.28320504725E+02  0.12700000000E+01 0. -1.
          4   -1    0    0  501    0  0.00000000000E+00 -0.00000000000E+00 -0.13800267855E+03  0.13800852215E+03  0.12700000000E+01 0. -1.
         25    2    1    2    0    0  0.00000000000E+00  0.00000000000E+00 -0.10971066399E+03  0.16632902688E+03  0.12501566058E+03 0.  0.
    9000005    1    3    3    0    0 -0.59597515883E+02 -0.17658811910E+02 -0.46178563589E+02  0.77441315024E+02  0.10000000000E+01 0.  0.
    9000005    1    3    3    0    0  0.59597515883E+02  0.17658811910E+02 -0.63532100399E+02  0.88887711854E+02  0.10000000000E+01 0.  0.
<mgrwt>
<rscale>  0 0.12501566E+03</rscale>
<asrwt>0</asrwt>
<pdfrwt beam="2">  1        4 0.21233822E-01 0.12501566E+03</pdfrwt>
<pdfrwt beam="1">  1       -4 0.43552588E-02 0.12501566E+03</pdfrwt>
<totfact> 0.96102477E+03</totfact>
</mgrwt>
</event>
<event>
 5    1  0.3269032E-002  0.1250006E+03  0.7818608E-02  0.1235068E+00
          4   -1    0    0  501    0  0.00000000000E+00  0.00000000000E+00  0.22382874664E+03  0.22383234959E+03  0.12700000000E+01 0.  1.
         -4   -1    0    0    0  501 -0.00000000000E+00 -0.00000000000E+00 -0.17425275354E+02  0.17471494532E+02  0.12700000000E+01 0.  1.
         25    2    1    2    0    0  0.00000000000E+00  0.00000000000E+00  0.20640347128E+03  0.24130384412E+03  0.12500060891E+03 0.  0.
    9000005    1    3    3    0    0  0.41599175669E+02  0.46481174976E+02  0.11050092747E+03  0.12689541369E+03  0.10000000000E+01 0.  0.
    9000005    1    3    3    0    0 -0.41599175669E+02 -0.46481174976E+02  0.95902543812E+02  0.11440843043E+03  0.10000000000E+01 0.  0.
<mgrwt>
<rscale>  0 0.12500061E+03</rscale>
<asrwt>0</asrwt>
<pdfrwt beam="1">  1        4 0.34439024E-01 0.12500061E+03</pdfrwt>
<pdfrwt beam="2">  1       -4 0.26846441E-02 0.12500061E+03</pdfrwt>
<totfact> 0.83602430E+03</totfact>
</mgrwt>
</event>
<event>
 5    1  0.3269032E-002  0.1250038E+03  0.7818608E-02  0.1235063E+00
         -4   -1    0    0    0  501 -0.00000000000E+00  0.00000000000E+00  0.14127116135E+03  0.14127686976E+03  0.12700000000E+01 0. -1.
          4   -1    0    0  501    0  0.00000000000E+00 -0.00000000000E+00 -0.27631534365E+02  0.27660704824E+02  0.12700000000E+01 0. -1.
         25    2    1    2    0    0  0.00000000000E+00  0.00000000000E+00  0.11363962698E+03  0.16893757458E+03  0.12500375708E+03 0.  0.
    9000005    1    3    3    0    0  0.18511161878E+01  0.62153418606E+02  0.48378786000E+02  0.78790741908E+02  0.10000000000E+01 0.  0.
    9000005    1    3    3    0    0 -0.18511161878E+01 -0.62153418606E+02  0.65260840985E+02  0.90146832676E+02  0.10000000000E+01 0.  0.
<mgrwt>
<rscale>  0 0.12500376E+03</rscale>
<asrwt>0</asrwt>
<pdfrwt beam="2">  1        4 0.42536883E-02 0.12500376E+03</pdfrwt>
<pdfrwt beam="1">  1       -4 0.21736707E-01 0.12500376E+03</pdfrwt>
<totfact> 0.95638762E+03</totfact>
</mgrwt>
</event>
<event>
 5    1  0.3269032E-002  0.1249983E+03  0.7818608E-02  0.1235072E+00
         -4   -1    0    0    0  501 -0.00000000000E+00  0.00000000000E+00  0.16833900458E+03  0.16834379514E+03  0.12700000000E+01 0. -1.
          4   -1    0    0  501    0  0.00000000000E+00 -0.00000000000E+00 -0.23181547809E+02  0.23216310190E+02  0.12700000000E+01 0. -1.
         25    2    1    2    0    0  0.00000000000E+00  0.00000000000E+00  0.14515745677E+03  0.19156010533E+03  0.12499834678E+03 0.  0.
    9000005    1    3    3    0    0 -0.47837758963E+02  0.27958348993E+02  0.28294319428E+02  0.62222897497E+02  0.10000000000E+01 0.  0.
    9000005    1    3    3    0    0  0.47837758963E+02 -0.27958348993E+02  0.11686313734E+03  0.12933720783E+03  0.10000000000E+01 0.  0.
<mgrwt>
<rscale>  0 0.12499835E+03</rscale>
<asrwt>0</asrwt>
<pdfrwt beam="2">  1        4 0.35694345E-02 0.12499835E+03</pdfrwt>
<pdfrwt beam="1">  1       -4 0.25901351E-01 0.12499835E+03</pdfrwt>
<totfact> 0.91579959E+03</totfact>
</mgrwt>
</event>
<event>
 5    1  0.3269032E-002  0.1249720E+03  0.7818608E-02  0.1235113E+00
         -4   -1    0    0    0  501 -0.00000000000E+00  0.00000000000E+00  0.16795037083E+02  0.16842985799E+02  0.12700000000E+01 0.  1.
          4   -1    0    0  501    0  0.00000000000E+00 -0.00000000000E+00 -0.23209828788E+03  0.23210176246E+03  0.12700000000E+01 0.  1.
         25    2    1    2    0    0  0.00000000000E+00  0.00000000000E+00 -0.21530325080E+03  0.24894474826E+03  0.12497198839E+03 0.  0.
    9000005    1    3    3    0    0 -0.59752710934E+02  0.86786265302E+01 -0.75668045747E+02  0.96810940340E+02  0.10000000000E+01 0.  0.
    9000005    1    3    3    0    0  0.59752710934E+02 -0.86786265302E+01 -0.13963520505E+03  0.15213380792E+03  0.10000000000E+01 0.  0.
<mgrwt>
<rscale>  0 0.12497199E+03</rscale>
<asrwt>0</asrwt>
<pdfrwt beam="2">  1        4 0.35711382E-01 0.12497199E+03</pdfrwt>
<pdfrwt beam="1">  1       -4 0.25878077E-02 0.12497199E+03</pdfrwt>
<totfact> 0.82534480E+03</totfact>
</mgrwt>
</event>
<event>
 5    1  0.3269032E-002  0.1249977E+03  0.7818608E-02  0.1235073E+00
         -4   -1    0    0    0  501 -0.00000000000E+00  0.00000000000E+00  0.17472631059E+02  0.17518725300E+02  0.12700000000E+01 0. -1.
          4   -1    0    0  501    0  0.00000000000E+00 -0.00000000000E+00 -0.22321314303E+03  0.22321675591E+03  0.12700000000E+01 0. -1.
         25    2    1    2    0    0  0.00000000000E+00  0.00000000000E+00 -0.20574051197E+03  0.24073548121E+03  0.12499765458E+03 0.  0.
    9000005    1    3    3    0    0 -0.36611466094E+01  0.36059969759E+02 -0.20091032849E+03  0.20415603226E+03  0.10000000000E+01 0.  0.
    9000005    1    3    3    0    0  0.36611466094E+01 -0.36059969759E+02 -0.48301834800E+01  0.36579448956E+02  0.10000000000E+01 0.  0.
<mgrwt>
<rscale>  0 0.12499765E+03</rscale>
<asrwt>0</asrwt>
<pdfrwt beam="2">  1        4 0.34344305E-01 0.12499765E+03</pdfrwt>
<pdfrwt beam="1">  1       -4 0.26919209E-02 0.12499765E+03</pdfrwt>
<totfact> 0.83692329E+03</totfact>
</mgrwt>
</event>
<event>
 5    1  0.3269032E-002  0.1249999E+03  0.7818608E-02  0.1235069E+00
         -4   -1    0    0    0  501 -0.00000000000E+00  0.00000000000E+00  0.18487950760E+02  0.18531519725E+02  0.12700000000E+01 0. -1.
          4   -1    0    0  501    0  0.00000000000E+00 -0.00000000000E+00 -0.21099171819E+03  0.21099554035E+03  0.12700000000E+01 0. -1.
         25    2    1    2    0    0  0.00000000000E+00  0.00000000000E+00 -0.19250376743E+03  0.22952706007E+03  0.12499988332E+03 0.  0.
    9000005    1    3    3    0    0  0.17093953257E+02 -0.26731416036E+02  0.26054188579E+01  0.31852159246E+02  0.10000000000E+01 0.  0.
    9000005    1    3    3    0    0 -0.17093953257E+02  0.26731416036E+02 -0.19510918629E+03  0.19767490082E+03  0.10000000000E+01 0.  0.
<mgrwt>
<rscale>  0 0.12499988E+03</rscale>
<asrwt>0</asrwt>
<pdfrwt beam="2">  1        4 0.32463908E-01 0.12499988E+03</pdfrwt>
<pdfrwt beam="1">  1       -4 0.28479457E-02 0.12499988E+03</pdfrwt>
<totfact> 0.85382493E+03</totfact>
</mgrwt>
</event>
<event>
 5    1  0.3269032E-002  0.1250061E+03  0.7818608E-02  0.1235060E+00
          4   -1    0    0  501    0  0.00000000000E+00  0.00000000000E+00  0.38171639154E+02  0.38192760252E+02  0.12700000000E+01 0. -1.
         -4   -1    0    0    0  501 -0.00000000000E+00 -0.00000000000E+00 -0.10229043967E+03  0.10229832329E+03  0.12700000000E+01 0. -1.
         25    2    1    2    0    0  0.00000000000E+00  0.00000000000E+00 -0.64118800515E+02  0.14049108354E+03  0.12500609575E+03 0.  0.
    9000005    1    3    3    0    0  0.43184670929E+02  0.13147819615E+02  0.16512888989E+02  0.48077608787E+02  0.10000000000E+01 0.  0.
    9000005    1    3    3    0    0 -0.43184670929E+02 -0.13147819615E+02 -0.80631689504E+02  0.92413474754E+02  0.10000000000E+01 0.  0.
<mgrwt>
<rscale>  0 0.12500610E+03</rscale>
<asrwt>0</asrwt>
<pdfrwt beam="1">  1        4 0.58747910E-02 0.12500610E+03</pdfrwt>
<pdfrwt beam="2">  1       -4 0.15739222E-01 0.12500610E+03</pdfrwt>
<totfact> 0.10122028E+04</totfact>
</mgrwt>
</event>
<event>
 5    1  0.3269032E-002  0.1249973E+03  0.7818608E-02  0.1235073E+00
          4   -1    0    0  501    0  0.00000000000E+00  0.00000000000E+00  0.23865531202E+02  0.23899298725E+02  0.12700000000E+01 0.  1.
         -4   -1    0    0    0  501 -0.00000000000E+00 -0.00000000000E+00 -0.16351847338E+03  0.16352340517E+03  0.12700000000E+01 0.  1.
         25    2    1    2    0    0  0.00000000000E+00  0.00000000000E+00 -0.13965294218E+03  0.18742270389E+03  0.12499730267E+03 0.  0.
    9000005    1    3    3    0    0 -0.54250624685E+02 -0.28448635841E+02 -0.88350531428E+02  0.10751405287E+03  0.10000000000E+01 0.  0.
    9000005    1    3    3    0    0  0.54250624685E+02  0.28448635841E+02 -0.51302410752E+02  0.79908651026E+02  0.10000000000E+01 0.  0.
<mgrwt>
<rscale>  0 0.12499730E+03</rscale>
<asrwt>0</asrwt>
<pdfrwt beam="1">  1        4 0.36745972E-02 0.12499730E+03</pdfrwt>
<pdfrwt beam="2">  1       -4 0.25159664E-01 0.12499730E+03</pdfrwt>
<totfact> 0.92303278E+03</totfact>
</mgrwt>
</event>
<event>
 5    1  0.3269032E-002  0.1250141E+03  0.7818608E-02  0.1235047E+00
         -4   -1    0    0    0  501 -0.00000000000E+00  0.00000000000E+00  0.53677914002E+02  0.53692935770E+02  0.12700000000E+01 0. -1.
          4   -1    0    0  501    0  0.00000000000E+00 -0.00000000000E+00 -0.72757640473E+02  0.72768723688E+02  0.12700000000E+01 0. -1.
         25    2    1    2    0    0  0.00000000000E+00  0.00000000000E+00 -0.19079726471E+02  0.12646165946E+03  0.12501406061E+03 0.  0.
    9000005    1    3    3    0    0  0.50347509910E+02  0.29847081928E+02  0.12632168134E+02  0.59885655424E+02  0.10000000000E+01 0.  0.
    9000005    1    3    3    0    0 -0.50347509910E+02 -0.29847081928E+02 -0.31711894605E+02  0.66576004034E+02  0.10000000000E+01 0.  0.
<mgrwt>
<rscale>  0 0.12501406E+03</rscale>
<asrwt>0</asrwt>
<pdfrwt beam="2">  1        4 0.11195491E-01 0.12501406E+03</pdfrwt>
<pdfrwt beam="1">  1       -4 0.82601487E-02 0.12501406E+03</pdfrwt>
<totfact> 0.10417558E+04</totfact>
</mgrwt>
</event>
<event>
 5    1  0.3269032E-002  0.1250252E+03  0.7818608E-02  0.1235030E+00
          4   -1    0    0  501    0  0.00000000000E+00  0.00000000000E+00  0.36975891492E+03  0.36976109593E+03  0.12700000000E+01 0. -1.
         -4   -1    0    0    0  501 -0.00000000000E+00 -0.00000000000E+00 -0.10528210793E+02  0.10604533111E+02  0.12700000000E+01 0. -1.
         25    2    1    2    0    0  0.00000000000E+00  0.00000000000E+00  0.35923070413E+03  0.38036562904E+03  0.12502524932E+03 0.  0.
    9000005    1    3    3    0    0  0.29145435937E+02 -0.15526028228E+02  0.18163105230E+02  0.37701623043E+02  0.10000000000E+01 0.  0.
    9000005    1    3    3    0    0 -0.29145435937E+02  0.15526028228E+02  0.34106759890E+03  0.34266400600E+03  0.10000000000E+01 0.  0.
<mgrwt>
<rscale>  0 0.12502525E+03</rscale>
<asrwt>0</asrwt>
<pdfrwt beam="1">  1        4 0.56892031E-01 0.12502525E+03</pdfrwt>
<pdfrwt beam="2">  1       -4 0.16257633E-02 0.12502525E+03</pdfrwt>
<totfact> 0.66471164E+03</totfact>
</mgrwt>
</event>
<event>
 5    1  0.3269032E-002  0.1249992E+03  0.7818608E-02  0.1235070E+00
         -4   -1    0    0    0  501 -0.00000000000E+00  0.00000000000E+00  0.32769425088E+02  0.32794025684E+02  0.12700000000E+01 0.  1.
          4   -1    0    0  501    0  0.00000000000E+00 -0.00000000000E+00 -0.11912990951E+03  0.11913667882E+03  0.12700000000E+01 0.  1.
         25    2    1    2    0    0  0.00000000000E+00  0.00000000000E+00 -0.86360484423E+02  0.15193070450E+03  0.12499922280E+03 0.  0.
    9000005    1    3    3    0    0 -0.17463965254E+02 -0.27687830895E+02  0.21520186078E+02  0.39188320593E+02  0.10000000000E+01 0.  0.
    9000005    1    3    3    0    0  0.17463965254E+02  0.27687830895E+02 -0.10788067050E+03  0.11274238391E+03  0.10000000000E+01 0.  0.
<mgrwt>
<rscale>  0 0.12499922E+03</rscale>
<asrwt>0</asrwt>
<pdfrwt beam="2">  1        4 0.18330091E-01 0.12499922E+03</pdfrwt>
<pdfrwt beam="1">  1       -4 0.50438631E-02 0.12499922E+03</pdfrwt>
<totfact> 0.98921954E+03</totfact>
</mgrwt>
</event>
<event>
 5    1  0.3269032E-002  0.1249993E+03  0.7818608E-02  0.1235070E+00
         -4   -1    0    0    0  501 -0.00000000000E+00  0.00000000000E+00  0.17547978302E+02  0.17593875142E+02  0.12700000000E+01 0.  1.
          4   -1    0    0  501    0  0.00000000000E+00 -0.00000000000E+00 -0.22226302890E+03  0.22226665723E+03  0.12700000000E+01 0.  1.
         25    2    1    2    0    0  0.00000000000E+00  0.00000000000E+00 -0.20471505060E+03  0.23986053237E+03  0.12499929219E+03 0.  0.
    9000005    1    3    3    0    0 -0.21998710383E+02  0.46327948913E+02 -0.33839703569E+02  0.61451994652E+02  0.10000000000E+01 0.  0.
    9000005    1    3    3    0    0  0.21998710383E+02 -0.46327948913E+02 -0.17087534703E+03  0.17840853772E+03  0.10000000000E+01 0.  0.
<mgrwt>
<rscale>  0 0.12499929E+03</rscale>
<asrwt>0</asrwt>
<pdfrwt beam="2">  1        4 0.34198120E-01 0.12499929E+03</pdfrwt>
<pdfrwt beam="1">  1       -4 0.27034988E-02 0.12499929E+03</pdfrwt>
<totfact> 0.83819467E+03</totfact>
</mgrwt>
</event>
<event>
 5    1  0.3269032E-002  0.1250008E+03  0.7818608E-02  0.1235068E+00
          4   -1    0    0  501    0  0.00000000000E+00  0.00000000000E+00  0.91523084303E+01  0.92400026841E+01  0.12700000000E+01 0. -1.
         -4   -1    0    0    0  501 -0.00000000000E+00 -0.00000000000E+00 -0.42468651779E+03  0.42468841672E+03  0.12700000000E+01 0. -1.
         25    2    1    2    0    0  0.00000000000E+00  0.00000000000E+00 -0.41553420936E+03  0.43392841940E+03  0.12500077606E+03 0.  0.
    9000005    1    3    3    0    0  0.14546306132E+01  0.59077599277E+02 -0.13721810989E+03  0.14940578425E+03  0.10000000000E+01 0.  0.
    9000005    1    3    3    0    0 -0.14546306132E+01 -0.59077599277E+02 -0.27831609948E+03  0.28452263515E+03  0.10000000000E+01 0.  0.
<mgrwt>
<rscale>  0 0.12500078E+03</rscale>
<asrwt>0</asrwt>
<pdfrwt beam="1">  1        4 0.14149396E-02 0.12500078E+03</pdfrwt>
<pdfrwt beam="2">  1       -4 0.65343264E-01 0.12500078E+03</pdfrwt>
<totfact> 0.61380468E+03</totfact>
</mgrwt>
</event>
<event>
 5    1  0.3269032E-002  0.1249992E+03  0.7818608E-02  0.1235070E+00
         -4   -1    0    0    0  501 -0.00000000000E+00  0.00000000000E+00  0.17203116824E+02  0.17249931259E+02  0.12700000000E+01 0. -1.
          4   -1    0    0  501    0  0.00000000000E+00 -0.00000000000E+00 -0.22670652197E+03  0.22671007919E+03  0.12700000000E+01 0. -1.
         25    2    1    2    0    0  0.00000000000E+00  0.00000000000E+00 -0.20950340515E+03  0.24396001044E+03  0.12499923971E+03 0.  0.
    9000005    1    3    3    0    0 -0.40588308811E+02 -0.47516159556E+02 -0.10490600777E+03  0.12211251654E+03  0.10000000000E+01 0.  0.
    9000005    1    3    3    0    0  0.40588308811E+02  0.47516159556E+02 -0.10459739738E+03  0.12184749390E+03  0.10000000000E+01 0.  0.
<mgrwt>
<rscale>  0 0.12499924E+03</rscale>
<asrwt>0</asrwt>
<pdfrwt beam="2">  1        4 0.34881799E-01 0.12499924E+03</pdfrwt>
<pdfrwt beam="1">  1       -4 0.26505083E-02 0.12499924E+03</pdfrwt>
<totfact> 0.83212518E+03</totfact>
</mgrwt>
</event>
<event>
 5    1  0.3269032E-002  0.1249983E+03  0.7818608E-02  0.1235072E+00
          4   -1    0    0  501    0  0.00000000000E+00  0.00000000000E+00  0.51504289071E+02  0.51519944611E+02  0.12700000000E+01 0. -1.
         -4   -1    0    0    0  501 -0.00000000000E+00 -0.00000000000E+00 -0.75808641573E+02  0.75819278796E+02  0.12700000000E+01 0. -1.
         25    2    1    2    0    0  0.00000000000E+00  0.00000000000E+00 -0.24304352502E+02  0.12733922341E+03  0.12499830506E+03 0.  0.
    9000005    1    3    3    0    0 -0.19745316908E+02 -0.57931078343E+02 -0.25008207342E+02  0.66123353002E+02  0.10000000000E+01 0.  0.
    9000005    1    3    3    0    0  0.19745316908E+02  0.57931078343E+02  0.70385483932E+00  0.61215870405E+02  0.10000000000E+01 0.  0.
<mgrwt>
<rscale>  0 0.12499831E+03</rscale>
<asrwt>0</asrwt>
<pdfrwt beam="1">  1        4 0.79257593E-02 0.12499831E+03</pdfrwt>
<pdfrwt beam="2">  1       -4 0.11664890E-01 0.12499831E+03</pdfrwt>
<totfact> 0.10402182E+04</totfact>
</mgrwt>
</event>
<event>
 5    1  0.3269032E-002  0.1249973E+03  0.7818608E-02  0.1235073E+00
         -4   -1    0    0    0  501 -0.00000000000E+00  0.00000000000E+00  0.34227543278E+03  0.34227778892E+03  0.12700000000E+01 0.  1.
          4   -1    0    0  501    0  0.00000000000E+00 -0.00000000000E+00 -0.11374370304E+02  0.11445051324E+02  0.12700000000E+01 0.  1.
         25    2    1    2    0    0  0.00000000000E+00  0.00000000000E+00  0.33090106248E+03  0.35372284024E+03  0.12499733821E+03 0.  0.
    9000005    1    3    3    0    0  0.21762991856E+02  0.49962353394E+02  0.25199095456E+03  0.25781835806E+03  0.10000000000E+01 0.  0.
    9000005    1    3    3    0    0 -0.21762991856E+02 -0.49962353394E+02  0.78910107917E+02  0.95904482183E+02  0.10000000000E+01 0.  0.
<mgrwt>
<rscale>  0 0.12499734E+03</rscale>
<asrwt>0</asrwt>
<pdfrwt beam="2">  1        4 0.17555219E-02 0.12499734E+03</pdfrwt>
<pdfrwt beam="1">  1       -4 0.52663362E-01 0.12499734E+03</pdfrwt>
<totfact> 0.69321022E+03</totfact>
</mgrwt>
</event>
<event>
 5    1  0.3269032E-002  0.1250002E+03  0.7818608E-02  0.1235069E+00
         -4   -1    0    0    0  501 -0.00000000000E+00  0.00000000000E+00  0.54338098225E+03  0.54338246638E+03  0.12700000000E+01 0.  1.
          4   -1    0    0  501    0  0.00000000000E+00 -0.00000000000E+00 -0.71312077815E+01  0.72434124846E+01  0.12700000000E+01 0.  1.
         25    2    1    2    0    0  0.00000000000E+00  0.00000000000E+00  0.53624977447E+03  0.55062587887E+03  0.12500015144E+03 0.  0.
    9000005    1    3    3    0    0 -0.48576809348E+02 -0.37767199099E+02  0.31621647799E+03  0.32214892315E+03  0.10000000000E+01 0.  0.
    9000005    1    3    3    0    0  0.48576809348E+02  0.37767199099E+02  0.22003329648E+03  0.22847695572E+03  0.10000000000E+01 0.  0.
<mgrwt>
<rscale>  0 0.12500015E+03</rscale>
<asrwt>0</asrwt>
<pdfrwt beam="2">  1        4 0.11058540E-02 0.12500015E+03</pdfrwt>
<pdfrwt beam="1">  1       -4 0.83605836E-01 0.12500015E+03</pdfrwt>
<totfact> 0.52140152E+03</totfact>
</mgrwt>
</event>
<event>
 5    1  0.3269032E-002  0.1249920E+03  0.7818608E-02  0.1235082E+00
          4   -1    0    0  501    0  0.00000000000E+00  0.00000000000E+00  0.19508176266E+03  0.19508589652E+03  0.12700000000E+01 0. -1.
         -4   -1    0    0    0  501 -0.00000000000E+00 -0.00000000000E+00 -0.19996588768E+02  0.20036877560E+02  0.12700000000E+01 0. -1.
         25    2    1    2    0    0  0.00000000000E+00  0.00000000000E+00  0.17508517389E+03  0.21512277408E+03  0.12499195899E+03 0.  0.
    9000005    1    3    3    0    0  0.49051430045E+02 -0.32882846536E+02  0.12270612268E+03  0.13618045722E+03  0.10000000000E+01 0.  0.
    9000005    1    3    3    0    0 -0.49051430045E+02  0.32882846536E+02  0.52379051210E+02  0.78942316861E+02  0.10000000000E+01 0.  0.
<mgrwt>
<rscale>  0 0.12499196E+03</rscale>
<asrwt>0</asrwt>
<pdfrwt beam="1">  1        4 0.30015996E-01 0.12499196E+03</pdfrwt>
<pdfrwt beam="2">  1       -4 0.30798154E-02 0.12499196E+03</pdfrwt>
<totfact> 0.87661789E+03</totfact>
</mgrwt>
</event>
<event>
 5    1  0.3269032E-002  0.1250002E+03  0.7818608E-02  0.1235069E+00
          4   -1    0    0  501    0  0.00000000000E+00  0.00000000000E+00  0.86445082038E+01  0.87373006178E+01  0.12700000000E+01 0. -1.
         -4   -1    0    0    0  501 -0.00000000000E+00 -0.00000000000E+00 -0.44937157624E+03  0.44937337086E+03  0.12700000000E+01 0. -1.
         25    2    1    2    0    0  0.00000000000E+00  0.00000000000E+00 -0.44072706804E+03  0.45811067147E+03  0.12500015527E+03 0.  0.
    9000005    1    3    3    0    0  0.44836701244E+02 -0.37339704592E+02 -0.13835889698E+03  0.15016247098E+03  0.10000000000E+01 0.  0.
    9000005    1    3    3    0    0 -0.44836701244E+02  0.37339704592E+02 -0.30236817106E+03  0.30794820049E+03  0.10000000000E+01 0.  0.
<mgrwt>
<rscale>  0 0.12500016E+03</rscale>
<asrwt>0</asrwt>
<pdfrwt beam="1">  1        4 0.13372006E-02 0.12500016E+03</pdfrwt>
<pdfrwt beam="2">  1       -4 0.69141346E-01 0.12500016E+03</pdfrwt>
<totfact> 0.59267357E+03</totfact>
</mgrwt>
</event>
<event>
 5    1  0.3269032E-002  0.1249986E+03  0.7818608E-02  0.1235072E+00
         -4   -1    0    0    0  501 -0.00000000000E+00  0.00000000000E+00  0.21071248425E+03  0.21071631147E+03  0.12700000000E+01 0. -1.
          4   -1    0    0  501    0  0.00000000000E+00 -0.00000000000E+00 -0.18512113691E+02  0.18555625921E+02  0.12700000000E+01 0. -1.
         25    2    1    2    0    0  0.00000000000E+00  0.00000000000E+00  0.19220037056E+03  0.22927193739E+03  0.12499855532E+03 0.  0.
    9000005    1    3    3    0    0  0.14399592919E+02 -0.49796344897E+02  0.16011694695E+03  0.16830169619E+03  0.10000000000E+01 0.  0.
    9000005    1    3    3    0    0 -0.14399592919E+02  0.49796344897E+02  0.32083423617E+02  0.60970241203E+02  0.10000000000E+01 0.  0.
<mgrwt>
<rscale>  0 0.12499856E+03</rscale>
<asrwt>0</asrwt>
<pdfrwt beam="2">  1        4 0.28516590E-02 0.12499856E+03</pdfrwt>
<pdfrwt beam="1">  1       -4 0.32420946E-01 0.12499856E+03</pdfrwt>
<totfact> 0.85424270E+03</totfact>
</mgrwt>
</event>
<event>
 5    1  0.3269032E-002  0.1250014E+03  0.7818608E-02  0.1235067E+00
         -4   -1    0    0    0  501 -0.00000000000E+00  0.00000000000E+00  0.95325008149E+02  0.95333467778E+02  0.12700000000E+01 0. -1.
          4   -1    0    0  501    0  0.00000000000E+00 -0.00000000000E+00 -0.40959056203E+02  0.40978740647E+02  0.12700000000E+01 0. -1.
         25    2    1    2    0    0  0.00000000000E+00  0.00000000000E+00  0.54365951946E+02  0.13631220843E+03  0.12500144573E+03 0.  0.
    9000005    1    3    3    0    0  0.59797069451E+02 -0.24864933509E+01  0.46795591295E+02  0.75978283271E+02  0.10000000000E+01 0.  0.
    9000005    1    3    3    0    0 -0.59797069451E+02  0.24864933509E+01  0.75703606514E+01  0.60333925155E+02  0.10000000000E+01 0.  0.
<mgrwt>
<rscale>  0 0.12500145E+03</rscale>
<asrwt>0</asrwt>
<pdfrwt beam="2">  1        4 0.63035583E-02 0.12500145E+03</pdfrwt>
<pdfrwt beam="1">  1       -4 0.14667550E-01 0.12500145E+03</pdfrwt>
<totfact> 0.10210154E+04</totfact>
</mgrwt>
</event>
<event>
 4    1  0.3269032E-002  0.1254377E+03  0.7818608E-02  0.1234387E+00
          4   -1    0    0  501    0  0.00000000000E+00  0.00000000000E+00  0.57917263817E+01  0.59293333926E+01  0.12700000000E+01 0. -1.
         -4   -1    0    0    0  501 -0.00000000000E+00 -0.00000000000E+00 -0.67107352817E+03  0.67107472990E+03  0.12700000000E+01 0. -1.
    9000005    1    1    2    0    0  0.55627693061E+02  0.24740501555E+02 -0.41379981526E+03  0.41825568707E+03  0.10000000000E+01 0.  0.
    9000005    1    1    2    0    0 -0.55627693061E+02 -0.24740501555E+02 -0.25148198652E+03  0.25874837622E+03  0.10000000000E+01 0.  0.
<mgrwt>
<rscale>  0 0.12543774E+03</rscale>
<asrwt>0</asrwt>
<pdfrwt beam="1">  1        4 0.90171296E-03 0.12543774E+03</pdfrwt>
<pdfrwt beam="2">  1       -4 0.10325270E+00 0.12543774E+03</pdfrwt>
<totfact> 0.43906737E+03</totfact>
</mgrwt>
</event>
<event>
 5    1  0.3269032E-002  0.1250082E+03  0.7818608E-02  0.1235056E+00
         -4   -1    0    0    0  501 -0.00000000000E+00  0.00000000000E+00  0.36743647132E+02  0.36765588592E+02  0.12700000000E+01 0. -1.
          4   -1    0    0  501    0  0.00000000000E+00 -0.00000000000E+00 -0.10626733472E+03  0.10627492333E+03  0.12700000000E+01 0. -1.
         25    2    1    2    0    0  0.00000000000E+00  0.00000000000E+00 -0.69523687590E+02  0.14304051192E+03  0.12500817939E+03 0.  0.
    9000005    1    3    3    0    0 -0.14237837523E+02 -0.59246239141E+02 -0.50655311389E+02  0.79245147748E+02  0.10000000000E+01 0.  0.
    9000005    1    3    3    0    0  0.14237837523E+02  0.59246239141E+02 -0.18868376201E+02  0.63795364174E+02  0.10000000000E+01 0.  0.
<mgrwt>
<rscale>  0 0.12500818E+03</rscale>
<asrwt>0</asrwt>
<pdfrwt beam="2">  1        4 0.16351092E-01 0.12500818E+03</pdfrwt>
<pdfrwt beam="1">  1       -4 0.56551404E-02 0.12500818E+03</pdfrwt>
<totfact> 0.10069099E+04</totfact>
</mgrwt>
</event>
<event>
 5    1  0.3269032E-002  0.1249996E+03  0.7818608E-02  0.1235070E+00
         -4   -1    0    0    0  501 -0.00000000000E+00  0.00000000000E+00  0.91101733834E+01  0.91982693522E+01  0.12700000000E+01 0. -1.
          4   -1    0    0  501    0  0.00000000000E+00 -0.00000000000E+00 -0.42662376946E+03  0.42662565976E+03  0.12700000000E+01 0. -1.
         25    2    1    2    0    0  0.00000000000E+00  0.00000000000E+00 -0.41751359608E+03  0.43582392912E+03  0.12499957712E+03 0.  0.
    9000005    1    3    3    0    0  0.32149514184E+02  0.19816915482E+02 -0.38235050353E+03  0.38421245288E+03  0.10000000000E+01 0.  0.
    9000005    1    3    3    0    0 -0.32149514184E+02 -0.19816915482E+02 -0.35163092551E+02  0.51611476236E+02  0.10000000000E+01 0.  0.
<mgrwt>
<rscale>  0 0.12499958E+03</rscale>
<asrwt>0</asrwt>
<pdfrwt beam="2">  1        4 0.65641333E-01 0.12499958E+03</pdfrwt>
<pdfrwt beam="1">  1       -4 0.14084875E-02 0.12499958E+03</pdfrwt>
<totfact> 0.61212190E+03</totfact>
</mgrwt>
</event>
<event>
 5    1  0.3269032E-002  0.1249961E+03  0.7818608E-02  0.1235075E+00
          4   -1    0    0  501    0  0.00000000000E+00  0.00000000000E+00  0.13532834055E+03  0.13533429963E+03  0.12700000000E+01 0.  1.
         -4   -1    0    0    0  501 -0.00000000000E+00 -0.00000000000E+00 -0.28842603990E+02  0.28870550825E+02  0.12700000000E+01 0.  1.
         25    2    1    2    0    0  0.00000000000E+00  0.00000000000E+00  0.10648573656E+03  0.16420485046E+03  0.12499608323E+03 0.  0.
    9000005    1    3    3    0    0 -0.48286285040E+02 -0.17700690477E+02  0.99876202355E+02  0.11234382744E+03  0.10000000000E+01 0.  0.
    9000005    1    3    3    0    0  0.48286285040E+02  0.17700690477E+02  0.66095342097E+01  0.51861023021E+02  0.10000000000E+01 0.  0.
<mgrwt>
<rscale>  0 0.12499608E+03</rscale>
<asrwt>0</asrwt>
<pdfrwt beam="1">  1        4 0.20822353E-01 0.12499608E+03</pdfrwt>
<pdfrwt beam="2">  1       -4 0.44399319E-02 0.12499608E+03</pdfrwt>
<totfact> 0.96546689E+03</totfact>
</mgrwt>
</event>
<event>
 5    1  0.3269032E-002  0.1250117E+03  0.7818608E-02  0.1235051E+00
          4   -1    0    0  501    0  0.00000000000E+00  0.00000000000E+00  0.10631123982E+03  0.10631882530E+03  0.12700000000E+01 0. -1.
         -4   -1    0    0    0  501 -0.00000000000E+00 -0.00000000000E+00 -0.36730560948E+02  0.36752510222E+02  0.12700000000E+01 0. -1.
         25    2    1    2    0    0  0.00000000000E+00  0.00000000000E+00  0.69580678874E+02  0.14307133552E+03  0.12501174415E+03 0.  0.
    9000005    1    3    3    0    0 -0.43110545909E+02 -0.36676651500E+02  0.44612428260E+01  0.56785549406E+02  0.10000000000E+01 0.  0.
    9000005    1    3    3    0    0  0.43110545909E+02  0.36676651500E+02  0.65119436048E+02  0.86285786112E+02  0.10000000000E+01 0.  0.
<mgrwt>
<rscale>  0 0.12501174E+03</rscale>
<asrwt>0</asrwt>
<pdfrwt beam="1">  1        4 0.16357847E-01 0.12501174E+03</pdfrwt>
<pdfrwt beam="2">  1       -4 0.56531274E-02 0.12501174E+03</pdfrwt>
<totfact> 0.10067659E+04</totfact>
</mgrwt>
</event>
<event>
 5    1  0.3269032E-002  0.1250033E+03  0.7818608E-02  0.1235064E+00
          4   -1    0    0  501    0  0.00000000000E+00  0.00000000000E+00  0.81986961268E+01  0.82964762507E+01  0.12700000000E+01 0. -1.
         -4   -1    0    0    0  501 -0.00000000000E+00 -0.00000000000E+00 -0.47355006138E+03  0.47355176436E+03  0.12700000000E+01 0. -1.
         25    2    1    2    0    0  0.00000000000E+00  0.00000000000E+00 -0.46535136525E+03  0.48184824061E+03  0.12500333532E+03 0.  0.
    9000005    1    3    3    0    0  0.48374563619E+02 -0.39558700535E+02 -0.23003510690E+03  0.23837394908E+03  0.10000000000E+01 0.  0.
    9000005    1    3    3    0    0 -0.48374563619E+02  0.39558700535E+02 -0.23531625834E+03  0.24347429153E+03  0.10000000000E+01 0.  0.
<mgrwt>
<rscale>  0 0.12500334E+03</rscale>
<asrwt>0</asrwt>
<pdfrwt beam="1">  1        4 0.12689908E-02 0.12500334E+03</pdfrwt>
<pdfrwt beam="2">  1       -4 0.72861487E-01 0.12500334E+03</pdfrwt>
<totfact> 0.57296551E+03</totfact>
</mgrwt>
</event>
<event>
 5    1  0.3269032E-002  0.1250015E+03  0.7818608E-02  0.1235067E+00
         -4   -1    0    0    0  501 -0.00000000000E+00  0.00000000000E+00  0.84076636516E+03  0.84076732434E+03  0.12700000000E+01 0.  1.
          4   -1    0    0  501    0  0.00000000000E+00 -0.00000000000E+00 -0.45584033772E+01  0.47320123995E+01  0.12700000000E+01 0.  1.
         25    2    1    2    0    0  0.00000000000E+00  0.00000000000E+00  0.83620796178E+03  0.84549933674E+03  0.12500149233E+03 0.  0.
    9000005    1    3    3    0    0  0.26282431641E+02 -0.37735257655E+01  0.35459047009E+02  0.44309702374E+02  0.10000000000E+01 0.  0.
    9000005    1    3    3    0    0 -0.26282431641E+02  0.37735257655E+01  0.80074891477E+03  0.80118963437E+03  0.10000000000E+01 0.  0.
<mgrwt>
<rscale>  0 0.12500149E+03</rscale>
<asrwt>0</asrwt>
<pdfrwt beam="2">  1        4 0.71472085E-03 0.12500149E+03</pdfrwt>
<pdfrwt beam="1">  1       -4 0.12936215E+00 0.12500149E+03</pdfrwt>
<totfact> 0.36311007E+03</totfact>
</mgrwt>
</event>
<event>
 5    1  0.3269032E-002  0.1250002E+03  0.7818608E-02  0.1235069E+00
          4   -1    0    0  501    0  0.00000000000E+00  0.00000000000E+00  0.14417832728E+03  0.14418392059E+03  0.12700000000E+01 0. -1.
         -4   -1    0    0    0  501 -0.00000000000E+00 -0.00000000000E+00 -0.27072247848E+02  0.27102020285E+02  0.12700000000E+01 0. -1.
         25    2    1    2    0    0  0.00000000000E+00  0.00000000000E+00  0.11710607943E+03  0.17128594088E+03  0.12500015881E+03 0.  0.
    9000005    1    3    3    0    0 -0.24045325986E+02  0.56561712041E+02  0.74047267437E+02  0.96236182310E+02  0.10000000000E+01 0.  0.
    9000005    1    3    3    0    0  0.24045325986E+02 -0.56561712041E+02  0.43058811997E+02  0.75049758569E+02  0.10000000000E+01 0.  0.
<mgrwt>
<rscale>  0 0.12500016E+03</rscale>
<asrwt>0</asrwt>
<pdfrwt beam="1">  1        4 0.22184002E-01 0.12500016E+03</pdfrwt>
<pdfrwt beam="2">  1       -4 0.41676816E-02 0.12500016E+03</pdfrwt>
<totfact> 0.95209157E+03</totfact>
</mgrwt>
</event>
<event>
 4    1  0.3269032E-002  0.1250708E+03  0.7818608E-02  0.1234959E+00
         -4   -1    0    0    0  501 -0.00000000000E+00  0.00000000000E+00  0.46751103681E+02  0.46768350360E+02  0.12700000000E+01 0. -1.
          4   -1    0    0  501    0  0.00000000000E+00 -0.00000000000E+00 -0.83611341682E+02  0.83620986348E+02  0.12700000000E+01 0. -1.
    9000005    1    1    2    0    0 -0.28137843267E+02 -0.40356024020E+02 -0.58663029830E+02  0.76568256917E+02  0.10000000000E+01 0.  0.
    9000005    1    1    2    0    0  0.28137843267E+02  0.40356024020E+02  0.21802791829E+02  0.53821079792E+02  0.10000000000E+01 0.  0.
<mgrwt>
<rscale>  0 0.12507079E+03</rscale>
<asrwt>0</asrwt>
<pdfrwt beam="2">  1        4 0.12865352E-01 0.12507079E+03</pdfrwt>
<pdfrwt beam="1">  1       -4 0.71945461E-02 0.12507079E+03</pdfrwt>
<totfact> 0.10319688E+04</totfact>
</mgrwt>
</event>
<event>
 5    1  0.3269032E-002  0.1250122E+03  0.7818608E-02  0.1235050E+00
          4   -1    0    0  501    0  0.00000000000E+00  0.00000000000E+00  0.29723007692E+02  0.29750127500E+02  0.12700000000E+01 0. -1.
         -4   -1    0    0    0  501 -0.00000000000E+00 -0.00000000000E+00 -0.13135724957E+03  0.13136338879E+03  0.12700000000E+01 0. -1.
         25    2    1    2    0    0  0.00000000000E+00  0.00000000000E+00 -0.10163424187E+03  0.16111351629E+03  0.12501218344E+03 0.  0.
    9000005    1    3    3    0    0 -0.21709085303E+02  0.36215290564E+01 -0.12620386615E+03  0.12811251184E+03  0.10000000000E+01 0.  0.
    9000005    1    3    3    0    0  0.21709085303E+02 -0.36215290564E+01  0.24569624279E+02  0.33001004448E+02  0.10000000000E+01 0.  0.
<mgrwt>
<rscale>  0 0.12501218E+03</rscale>
<asrwt>0</asrwt>
<pdfrwt beam="1">  1        4 0.45753289E-02 0.12501218E+03</pdfrwt>
<pdfrwt beam="2">  1       -4 0.20211366E-01 0.12501218E+03</pdfrwt>
<totfact> 0.97101946E+03</totfact>
</mgrwt>
</event>
<event>
 5    1  0.3269032E-002  0.1249972E+03  0.7818608E-02  0.1235074E+00
         -4   -1    0    0    0  501 -0.00000000000E+00  0.00000000000E+00  0.68912030544E+02  0.68923732152E+02  0.12700000000E+01 0.  1.
          4   -1    0    0  501    0  0.00000000000E+00 -0.00000000000E+00 -0.56658431460E+02  0.56672663212E+02  0.12700000000E+01 0.  1.
         25    2    1    2    0    0  0.00000000000E+00  0.00000000000E+00  0.12253599084E+02  0.12559639536E+03  0.12499721532E+03 0.  0.
    9000005    1    3    3    0    0  0.32473664457E+02 -0.28491794752E+02  0.51495811966E+02  0.67224548354E+02  0.10000000000E+01 0.  0.
    9000005    1    3    3    0    0 -0.32473664457E+02  0.28491794752E+02 -0.39242212882E+02  0.58371847009E+02  0.10000000000E+01 0.  0.
<mgrwt>
<rscale>  0 0.12499722E+03</rscale>
<asrwt>0</asrwt>
<pdfrwt beam="2">  1        4 0.87186767E-02 0.12499722E+03</pdfrwt>
<pdfrwt beam="1">  1       -4 0.10603846E-01 0.12499722E+03</pdfrwt>
<totfact> 0.10440482E+04</totfact>
</mgrwt>
</event>
<event>
 5    1  0.3269032E-002  0.1249988E+03  0.7818608E-02  0.1235071E+00
          4   -1    0    0  501    0  0.00000000000E+00  0.00000000000E+00  0.17706574411E+03  0.17707029857E+03  0.12700000000E+01 0. -1.
         -4   -1    0    0    0  501 -0.00000000000E+00 -0.00000000000E+00 -0.22037473687E+02  0.22074037838E+02  0.12700000000E+01 0. -1.
         25    2    1    2    0    0  0.00000000000E+00  0.00000000000E+00  0.15502827042E+03  0.19914433641E+03  0.12499880837E+03 0.  0.
    9000005    1    3    3    0    0  0.40517009575E+00 -0.16813072019E+02 -0.18372087665E+02  0.24927437868E+02  0.10000000000E+01 0.  0.
    9000005    1    3    3    0    0 -0.40517009575E+00  0.16813072019E+02  0.17340035808E+03  0.17421689854E+03  0.10000000000E+01 0.  0.
<mgrwt>
<rscale>  0 0.12499881E+03</rscale>
<asrwt>0</asrwt>
<pdfrwt beam="1">  1        4 0.27244046E-01 0.12499881E+03</pdfrwt>
<pdfrwt beam="2">  1       -4 0.33935437E-02 0.12499881E+03</pdfrwt>
<totfact> 0.90282430E+03</totfact>
</mgrwt>
</event>
<event>
 5    1  0.3269032E-002  0.1249989E+03  0.7818608E-02  0.1235071E+00
         -4   -1    0    0    0  501 -0.00000000000E+00  0.00000000000E+00  0.11448968706E+02  0.11519192004E+02  0.12700000000E+01 0. -1.
          4   -1    0    0  501    0  0.00000000000E+00 -0.00000000000E+00 -0.34006764923E+03  0.34007002066E+03  0.12700000000E+01 0. -1.
         25    2    1    2    0    0  0.00000000000E+00  0.00000000000E+00 -0.32861868053E+03  0.35158921267E+03  0.12499894909E+03 0.  0.
    9000005    1    3    3    0    0 -0.36233596992E+02  0.30629933101E+02 -0.49912924022E+02  0.68872101298E+02  0.10000000000E+01 0.  0.
    9000005    1    3    3    0    0  0.36233596992E+02 -0.30629933101E+02 -0.27870575651E+03  0.28271711137E+03  0.10000000000E+01 0.  0.
<mgrwt>
<rscale>  0 0.12499895E+03</rscale>
<asrwt>0</asrwt>
<pdfrwt beam="2">  1        4 0.52323676E-01 0.12499895E+03</pdfrwt>
<pdfrwt beam="1">  1       -4 0.17669643E-02 0.12499895E+03</pdfrwt>
<totfact> 0.69551697E+03</totfact>
</mgrwt>
</event>
<event>
 5    1  0.3269032E-002  0.1249955E+03  0.7818608E-02  0.1235076E+00
         -4   -1    0    0    0  501 -0.00000000000E+00  0.00000000000E+00  0.15602859914E+04  0.15602865082E+04  0.12700000000E+01 0.  1.
          4   -1    0    0  501    0  0.00000000000E+00 -0.00000000000E+00 -0.23417447986E+01  0.26639573386E+01  0.12700000000E+01 0.  1.
         25    2    1    2    0    0  0.00000000000E+00  0.00000000000E+00  0.15579442466E+04  0.15629504656E+04  0.12499552951E+03 0.  0.
    9000005    1    3    3    0    0 -0.53717734134E+02  0.41714676382E+01  0.38316913637E+03  0.38694002528E+03  0.10000000000E+01 0.  0.
    9000005    1    3    3    0    0  0.53717734134E+02 -0.41714676382E+01  0.11747751102E+04  0.11760104403E+04  0.10000000000E+01 0.  0.
<mgrwt>
<rscale>  0 0.12499553E+03</rscale>
<asrwt>0</asrwt>
<pdfrwt beam="2">  1        4 0.38509433E-03 0.12499553E+03</pdfrwt>
<pdfrwt beam="1">  1       -4 0.24006847E+00 0.12499553E+03</pdfrwt>
<totfact> 0.16727335E+03</totfact>
</mgrwt>
</event>
<event>
 5    1  0.3269032E-002  0.1249963E+03  0.7818608E-02  0.1235075E+00
         -4   -1    0    0    0  501 -0.00000000000E+00  0.00000000000E+00  0.45527403763E+03  0.45527580898E+03  0.12700000000E+01 0. -1.
          4   -1    0    0  501    0  0.00000000000E+00 -0.00000000000E+00 -0.85306905181E+01  0.86247075727E+01  0.12700000000E+01 0. -1.
         25    2    1    2    0    0  0.00000000000E+00  0.00000000000E+00  0.44674334712E+03  0.46390051655E+03  0.12499628421E+03 0.  0.
    9000005    1    3    3    0    0  0.33022328857E+02  0.27965968034E+01  0.41999158667E+03  0.42129826493E+03  0.10000000000E+01 0.  0.
    9000005    1    3    3    0    0 -0.33022328857E+02 -0.27965968034E+01  0.26751760449E+02  0.42602251630E+02  0.10000000000E+01 0.  0.
<mgrwt>
<rscale>  0 0.12499628E+03</rscale>
<asrwt>0</asrwt>
<pdfrwt beam="2">  1        4 0.13197821E-02 0.12499628E+03</pdfrwt>
<pdfrwt beam="1">  1       -4 0.70049537E-01 0.12499628E+03</pdfrwt>
<totfact> 0.58783031E+03</totfact>
</mgrwt>
</event>
<event>
 5    1  0.3269032E-002  0.1249985E+03  0.7818608E-02  0.1235072E+00
          4   -1    0    0  501    0  0.00000000000E+00  0.00000000000E+00  0.23100439773E+03  0.23100788877E+03  0.12700000000E+01 0. -1.
         -4   -1    0    0    0  501 -0.00000000000E+00 -0.00000000000E+00 -0.16881984468E+02  0.16929686931E+02  0.12700000000E+01 0. -1.
         25    2    1    2    0    0  0.00000000000E+00  0.00000000000E+00  0.21412241327E+03  0.24793757570E+03  0.12499853431E+03 0.  0.
    9000005    1    3    3    0    0 -0.19509934167E+00 -0.62490519057E+02  0.10752790146E+03  0.12437183213E+03  0.10000000000E+01 0.  0.
    9000005    1    3    3    0    0  0.19509934167E+00  0.62490519057E+02  0.10659451181E+03  0.12356574357E+03  0.10000000000E+01 0.  0.
<mgrwt>
<rscale>  0 0.12499853E+03</rscale>
<asrwt>0</asrwt>
<pdfrwt beam="1">  1        4 0.35543073E-01 0.12499853E+03</pdfrwt>
<pdfrwt beam="2">  1       -4 0.26011665E-02 0.12499853E+03</pdfrwt>
<totfact> 0.82631928E+03</totfact>
</mgrwt>
</event>
<event>
 5    1  0.3269032E-002  0.1250031E+03  0.7818608E-02  0.1235064E+00
          4   -1    0    0  501    0  0.00000000000E+00  0.00000000000E+00  0.42301277209E+02  0.42320337351E+02  0.12700000000E+01 0.  1.
         -4   -1    0    0    0  501 -0.00000000000E+00 -0.00000000000E+00 -0.92303854438E+02  0.92312590929E+02  0.12700000000E+01 0.  1.
         25    2    1    2    0    0  0.00000000000E+00  0.00000000000E+00 -0.50002577229E+02  0.13463292828E+03  0.12500307055E+03 0.  0.
    9000005    1    3    3    0    0  0.40677510861E+00  0.97310609951E+01  0.41484116253E+02  0.42623830370E+02  0.10000000000E+01 0.  0.
    9000005    1    3    3    0    0 -0.40677510861E+00 -0.97310609951E+01 -0.91486693482E+02  0.92009097911E+02  0.10000000000E+01 0.  0.
<mgrwt>
<rscale>  0 0.12500307E+03</rscale>
<asrwt>0</asrwt>
<pdfrwt beam="1">  1        4 0.65100270E-02 0.12500307E+03</pdfrwt>
<pdfrwt beam="2">  1       -4 0.14202731E-01 0.12500307E+03</pdfrwt>
<totfact> 0.10245104E+04</totfact>
</mgrwt>
</event>
<event>
 5    1  0.3269032E-002  0.1250013E+03  0.7818608E-02  0.1235067E+00
         -4   -1    0    0    0  501 -0.00000000000E+00  0.00000000000E+00  0.37938191537E+03  0.37938404106E+03  0.12700000000E+01 0. -1.
          4   -1    0    0  501    0  0.00000000000E+00 -0.00000000000E+00 -0.10255237087E+02  0.10333575746E+02  0.12700000000E+01 0. -1.
         25    2    1    2    0    0  0.00000000000E+00  0.00000000000E+00  0.36912667829E+03  0.38971761681E+03  0.12500126490E+03 0.  0.
    9000005    1    3    3    0    0  0.10428795522E+02  0.20427893810E+02  0.33262389711E+01  0.23197467260E+02  0.10000000000E+01 0.  0.
    9000005    1    3    3    0    0 -0.10428795522E+02 -0.20427893810E+02  0.36580043931E+03  0.36652014955E+03  0.10000000000E+01 0.  0.
<mgrwt>
<rscale>  0 0.12500126E+03</rscale>
<asrwt>0</asrwt>
<pdfrwt beam="2">  1        4 0.15839183E-02 0.12500126E+03</pdfrwt>
<pdfrwt beam="1">  1       -4 0.58372638E-01 0.12500126E+03</pdfrwt>
<totfact> 0.65563446E+03</totfact>
</mgrwt>
</event>
<event>
 5    1  0.3269032E-002  0.1249989E+03  0.7818608E-02  0.1235071E+00
         -4   -1    0    0    0  501 -0.00000000000E+00  0.00000000000E+00  0.12055111298E+03  0.12055780249E+03  0.12700000000E+01 0.  1.
          4   -1    0    0  501    0  0.00000000000E+00 -0.00000000000E+00 -0.32382684819E+02  0.32407578992E+02  0.12700000000E+01 0.  1.
         25    2    1    2    0    0  0.00000000000E+00  0.00000000000E+00  0.88168428163E+02  0.15296538148E+03  0.12499894482E+03 0.  0.
    9000005    1    3    3    0    0 -0.27543435207E+02 -0.23016618225E+02 -0.18515203100E+02  0.40400721322E+02  0.10000000000E+01 0.  0.
    9000005    1    3    3    0    0  0.27543435207E+02  0.23016618225E+02  0.10668363126E+03  0.11256466016E+03  0.10000000000E+01 0.  0.
<mgrwt>
<rscale>  0 0.12499894E+03</rscale>
<asrwt>0</asrwt>
<pdfrwt beam="2">  1        4 0.49843811E-02 0.12499894E+03</pdfrwt>
<pdfrwt beam="1">  1       -4 0.18548754E-01 0.12499894E+03</pdfrwt>
<totfact> 0.98718188E+03</totfact>
</mgrwt>
</event>
<event>
 5    1  0.3269032E-002  0.1250082E+03  0.7818608E-02  0.1235056E+00
         -4   -1    0    0    0  501 -0.00000000000E+00  0.00000000000E+00  0.10428442696E+03  0.10429215985E+03  0.12700000000E+01 0.  1.
          4   -1    0    0  501    0  0.00000000000E+00 -0.00000000000E+00 -0.37442672676E+02  0.37464204744E+02  0.12700000000E+01 0.  1.
         25    2    1    2    0    0  0.00000000000E+00  0.00000000000E+00  0.66841754285E+02  0.14175636460E+03  0.12500818688E+03 0.  0.
    9000005    1    3    3    0    0 -0.42646838046E+02 -0.29092363382E+02  0.73362672027E+02  0.89711760932E+02  0.10000000000E+01 0.  0.
    9000005    1    3    3    0    0  0.42646838046E+02  0.29092363382E+02 -0.65209177419E+01  0.52044603665E+02  0.10000000000E+01 0.  0.
<mgrwt>
<rscale>  0 0.12500819E+03</rscale>
<asrwt>0</asrwt>
<pdfrwt beam="2">  1        4 0.57626623E-02 0.12500819E+03</pdfrwt>
<pdfrwt beam="1">  1       -4 0.16046009E-01 0.12500819E+03</pdfrwt>
<totfact> 0.10095451E+04</totfact>
</mgrwt>
</event>
<event>
 5    1  0.3269032E-002  0.1250137E+03  0.7818608E-02  0.1235048E+00
         -4   -1    0    0    0  501 -0.00000000000E+00  0.00000000000E+00  0.60233171741E+03  0.60233305629E+03  0.12700000000E+01 0.  1.
          4   -1    0    0  501    0  0.00000000000E+00 -0.00000000000E+00 -0.64231102840E+01  0.65474610133E+01  0.12700000000E+01 0.  1.
         25    2    1    2    0    0  0.00000000000E+00  0.00000000000E+00  0.59590860713E+03  0.60888051731E+03  0.12501366447E+03 0.  0.
    9000005    1    3    3    0    0  0.69595189791E+01  0.38727592996E+02  0.53445477327E+03  0.53590219819E+03  0.10000000000E+01 0.  0.
    9000005    1    3    3    0    0 -0.69595189791E+01 -0.38727592996E+02  0.61453833864E+02  0.72978319111E+02  0.10000000000E+01 0.  0.
<mgrwt>
<rscale>  0 0.12501366E+03</rscale>
<asrwt>0</asrwt>
<pdfrwt beam="2">  1        4 0.99783863E-03 0.12501366E+03</pdfrwt>
<pdfrwt beam="1">  1       -4 0.92676144E-01 0.12501366E+03</pdfrwt>
<totfact> 0.48297309E+03</totfact>
</mgrwt>
</event>
<event>
 5    1  0.3269032E-002  0.1250230E+03  0.7818608E-02  0.1235033E+00
         -4   -1    0    0    0  501 -0.00000000000E+00  0.00000000000E+00  0.10245646061E+02  0.10324057497E+02  0.12700000000E+01 0. -1.
          4   -1    0    0  501    0  0.00000000000E+00 -0.00000000000E+00 -0.37986653141E+03  0.37986865439E+03  0.12700000000E+01 0. -1.
         25    2    1    2    0    0  0.00000000000E+00  0.00000000000E+00 -0.36962088535E+03  0.39019271189E+03  0.12502301197E+03 0.  0.
    9000005    1    3    3    0    0 -0.55206389036E+02  0.16534755215E+02 -0.10928917308E+03  0.12355673544E+03  0.10000000000E+01 0.  0.
    9000005    1    3    3    0    0  0.55206389036E+02 -0.16534755215E+02 -0.26033171227E+03  0.26663597644E+03  0.10000000000E+01 0.  0.
<mgrwt>
<rscale>  0 0.12502301E+03</rscale>
<asrwt>0</asrwt>
<pdfrwt beam="2">  1        4 0.58447189E-01 0.12502301E+03</pdfrwt>
<pdfrwt beam="1">  1       -4 0.15824485E-02 0.12502301E+03</pdfrwt>
<totfact> 0.65484659E+03</totfact>
</mgrwt>
</event>
<event>
 5    1  0.3269032E-002  0.1249927E+03  0.7818608E-02  0.1235081E+00
          4   -1    0    0  501    0  0.00000000000E+00  0.00000000000E+00  0.12281266070E+03  0.12281922703E+03  0.12700000000E+01 0.  1.
         -4   -1    0    0    0  501 -0.00000000000E+00 -0.00000000000E+00 -0.31782736070E+02  0.31808099788E+02  0.12700000000E+01 0.  1.
         25    2    1    2    0    0  0.00000000000E+00  0.00000000000E+00  0.91029924628E+02  0.15462732682E+03  0.12499265187E+03 0.  0.
    9000005    1    3    3    0    0 -0.24833426986E+02  0.45233138542E+02  0.89113522869E+02  0.10298036646E+03  0.10000000000E+01 0.  0.
    9000005    1    3    3    0    0  0.24833426986E+02 -0.45233138542E+02  0.19164017591E+01  0.51646960355E+02  0.10000000000E+01 0.  0.
<mgrwt>
<rscale>  0 0.12499265E+03</rscale>
<asrwt>0</asrwt>
<pdfrwt beam="1">  1        4 0.18896712E-01 0.12499265E+03</pdfrwt>
<pdfrwt beam="2">  1       -4 0.48921078E-02 0.12499265E+03</pdfrwt>
<totfact> 0.98404971E+03</totfact>
</mgrwt>
</event>
<event>
 5    1  0.3269032E-002  0.1249956E+03  0.7818608E-02  0.1235076E+00
          4   -1    0    0  501    0  0.00000000000E+00  0.00000000000E+00  0.49854662707E+03  0.49854824467E+03  0.12700000000E+01 0. -1.
         -4   -1    0    0    0  501 -0.00000000000E+00 -0.00000000000E+00 -0.77816145085E+01  0.78845687491E+01  0.12700000000E+01 0. -1.
         25    2    1    2    0    0  0.00000000000E+00  0.00000000000E+00  0.49076501256E+03  0.50643281342E+03  0.12499558773E+03 0.  0.
    9000005    1    3    3    0    0  0.37169334250E+02  0.30522486725E+02  0.40703053009E+03  0.40986343339E+03  0.10000000000E+01 0.  0.
    9000005    1    3    3    0    0 -0.37169334250E+02 -0.30522486725E+02  0.83734482472E+02  0.96569380029E+02  0.10000000000E+01 0.  0.
<mgrwt>
<rscale>  0 0.12499559E+03</rscale>
<asrwt>0</asrwt>
<pdfrwt beam="1">  1        4 0.76707513E-01 0.12499559E+03</pdfrwt>
<pdfrwt beam="2">  1       -4 0.12052156E-02 0.12499559E+03</pdfrwt>
<totfact> 0.55374067E+03</totfact>
</mgrwt>
</event>
<event>
 5    1  0.3269032E-002  0.1249974E+03  0.7818608E-02  0.1235073E+00
          4   -1    0    0  501    0  0.00000000000E+00  0.00000000000E+00  0.15019256013E+02  0.15072854779E+02  0.12700000000E+01 0. -1.
         -4   -1    0    0    0  501 -0.00000000000E+00 -0.00000000000E+00 -0.25955342338E+03  0.25955653043E+03  0.12700000000E+01 0. -1.
         25    2    1    2    0    0  0.00000000000E+00  0.00000000000E+00 -0.24453416737E+03  0.27462938521E+03  0.12499736081E+03 0.  0.
    9000005    1    3    3    0    0  0.38622982346E+02 -0.48308317023E+02 -0.10265798773E+03  0.11985445634E+03  0.10000000000E+01 0.  0.
    9000005    1    3    3    0    0 -0.38622982346E+02  0.48308317023E+02 -0.14187617964E+03  0.15477492887E+03  0.10000000000E+01 0.  0.
<mgrwt>
<rscale>  0 0.12499736E+03</rscale>
<asrwt>0</asrwt>
<pdfrwt beam="1">  1        4 0.23150170E-02 0.12499736E+03</pdfrwt>
<pdfrwt beam="2">  1       -4 0.39935654E-01 0.12499736E+03</pdfrwt>
<totfact> 0.78900273E+03</totfact>
</mgrwt>
</event>
<event>
 5    1  0.3269032E-002  0.1249974E+03  0.7818608E-02  0.1235073E+00
         -4   -1    0    0    0  501 -0.00000000000E+00  0.00000000000E+00  0.94644050643E+02  0.94652571133E+02  0.12700000000E+01 0. -1.
          4   -1    0    0  501    0  0.00000000000E+00 -0.00000000000E+00 -0.41251199557E+02  0.41270744662E+02  0.12700000000E+01 0. -1.
         25    2    1    2    0    0  0.00000000000E+00  0.00000000000E+00  0.53392851086E+02  0.13592331579E+03  0.12499740489E+03 0.  0.
    9000005    1    3    3    0    0 -0.48264573357E+02  0.39663958488E+02  0.25015626204E+02  0.67301413051E+02  0.10000000000E+01 0.  0.
    9000005    1    3    3    0    0  0.48264573357E+02 -0.39663958488E+02  0.28377224881E+02  0.68621902744E+02  0.10000000000E+01 0.  0.
<mgrwt>
<rscale>  0 0.12499740E+03</rscale>
<asrwt>0</asrwt>
<pdfrwt beam="2">  1        4 0.63484974E-02 0.12499740E+03</pdfrwt>
<pdfrwt beam="1">  1       -4 0.14562782E-01 0.12499740E+03</pdfrwt>
<totfact> 0.10219244E+04</totfact>
</mgrwt>
</event>
<event>
 5    1  0.3269032E-002  0.1250032E+03  0.7818608E-02  0.1235064E+00
          4   -1    0    0  501    0  0.00000000000E+00  0.00000000000E+00  0.45088830307E+02  0.45106712565E+02  0.12700000000E+01 0.  1.
         -4   -1    0    0    0  501 -0.00000000000E+00 -0.00000000000E+00 -0.86599216159E+02  0.86608528098E+02  0.12700000000E+01 0.  1.
         25    2    1    2    0    0  0.00000000000E+00  0.00000000000E+00 -0.41510385852E+02  0.13171524066E+03  0.12500316992E+03 0.  0.
    9000005    1    3    3    0    0 -0.50367081881E+02 -0.32430375177E+02 -0.19983542339E+01  0.59946355944E+02  0.10000000000E+01 0.  0.
    9000005    1    3    3    0    0  0.50367081881E+02  0.32430375177E+02 -0.39512031618E+02  0.71768884720E+02  0.10000000000E+01 0.  0.
<mgrwt>
<rscale>  0 0.12500317E+03</rscale>
<asrwt>0</asrwt>
<pdfrwt beam="1">  1        4 0.69388350E-02 0.12500317E+03</pdfrwt>
<pdfrwt beam="2">  1       -4 0.13325048E-01 0.12500317E+03</pdfrwt>
<totfact> 0.10307043E+04</totfact>
</mgrwt>
</event>
<event>
 5    1  0.3269032E-002  0.1250037E+03  0.7818608E-02  0.1235064E+00
         -4   -1    0    0    0  501 -0.00000000000E+00  0.00000000000E+00  0.27149559734E+03  0.27149856772E+03  0.12700000000E+01 0.  1.
          4   -1    0    0  501    0  0.00000000000E+00 -0.00000000000E+00 -0.14357665011E+02  0.14413724174E+02  0.12700000000E+01 0.  1.
         25    2    1    2    0    0  0.00000000000E+00  0.00000000000E+00  0.25713793233E+03  0.28591229190E+03  0.12500368961E+03 0.  0.
    9000005    1    3    3    0    0 -0.11261712276E+02 -0.51234607461E+02  0.50881547891E+02  0.73087229260E+02  0.10000000000E+01 0.  0.
    9000005    1    3    3    0    0  0.11261712276E+02  0.51234607461E+02  0.20625638444E+03  0.21282506264E+03  0.10000000000E+01 0.  0.
<mgrwt>
<rscale>  0 0.12500369E+03</rscale>
<asrwt>0</asrwt>
<pdfrwt beam="2">  1        4 0.22134122E-02 0.12500369E+03</pdfrwt>
<pdfrwt beam="1">  1       -4 0.41773095E-01 0.12500369E+03</pdfrwt>
<totfact> 0.77394306E+03</totfact>
</mgrwt>
</event>
<event>
 5    1  0.3269032E-002  0.1250042E+03  0.7818608E-02  0.1235063E+00
          4   -1    0    0  501    0  0.00000000000E+00  0.00000000000E+00  0.19524849794E+02  0.19566109973E+02  0.12700000000E+01 0.  1.
         -4   -1    0    0    0  501 -0.00000000000E+00 -0.00000000000E+00 -0.19982456714E+03  0.19982860289E+03  0.12700000000E+01 0.  1.
         25    2    1    2    0    0  0.00000000000E+00  0.00000000000E+00 -0.18029971734E+03  0.21939471286E+03  0.12500420776E+03 0.  0.
    9000005    1    3    3    0    0 -0.36110475135E+02 -0.94791376889E+01 -0.17810976574E+03  0.18198326603E+03  0.10000000000E+01 0.  0.
    9000005    1    3    3    0    0  0.36110475135E+02  0.94791376889E+01 -0.21899516093E+01  0.37411446829E+02  0.10000000000E+01 0.  0.
<mgrwt>
<rscale>  0 0.12500421E+03</rscale>
<asrwt>0</asrwt>
<pdfrwt beam="1">  1        4 0.30073075E-02 0.12500421E+03</pdfrwt>
<pdfrwt beam="2">  1       -4 0.30745724E-01 0.12500421E+03</pdfrwt>
<totfact> 0.86956046E+03</totfact>
</mgrwt>
</event>
<event>
 5    1  0.3269032E-002  0.1250005E+03  0.7818608E-02  0.1235068E+00
          4   -1    0    0  501    0  0.00000000000E+00  0.00000000000E+00  0.78879505401E+03  0.78879607639E+03  0.12700000000E+01 0.  1.
         -4   -1    0    0    0  501 -0.00000000000E+00 -0.00000000000E+00 -0.48697488563E+01  0.50326289276E+01  0.12700000000E+01 0.  1.
         25    2    1    2    0    0  0.00000000000E+00  0.00000000000E+00  0.78392530515E+03  0.79382870532E+03  0.12500051731E+03 0.  0.
    9000005    1    3    3    0    0 -0.33444235721E+02  0.16430455864E+02  0.73367018349E+02  0.82293354314E+02  0.10000000000E+01 0.  0.
    9000005    1    3    3    0    0  0.33444235721E+02 -0.16430455864E+02  0.71055828680E+03  0.71153535100E+03  0.10000000000E+01 0.  0.
<mgrwt>
<rscale>  0 0.12500052E+03</rscale>
<asrwt>0</asrwt>
<pdfrwt beam="1">  1        4 0.12136567E+00 0.12500052E+03</pdfrwt>
<pdfrwt beam="2">  1       -4 0.76180018E-03 0.12500052E+03</pdfrwt>
<totfact> 0.38541289E+03</totfact>
</mgrwt>
</event>
<event>
 5    1  0.3269032E-002  0.1250010E+03  0.7818608E-02  0.1235068E+00
         -4   -1    0    0    0  501 -0.00000000000E+00  0.00000000000E+00  0.26181909782E+01  0.29099525767E+01  0.12700000000E+01 0. -1.
          4   -1    0    0  501    0  0.00000000000E+00 -0.00000000000E+00 -0.14129533625E+04  0.14129539333E+04  0.12700000000E+01 0. -1.
         25    2    1    2    0    0  0.00000000000E+00  0.00000000000E+00 -0.14103351716E+04  0.14158638859E+04  0.12500098868E+03 0.  0.
    9000005    1    3    3    0    0 -0.11442700532E+01  0.20405044061E+02 -0.36248371916E+02  0.41624747971E+02  0.10000000000E+01 0.  0.
    9000005    1    3    3    0    0  0.11442700532E+01 -0.20405044061E+02 -0.13740867996E+04  0.13742391379E+04  0.10000000000E+01 0.  0.
<mgrwt>
<rscale>  0 0.12500099E+03</rscale>
<asrwt>0</asrwt>
<pdfrwt beam="2">  1        4 0.21739935E+00 0.12500099E+03</pdfrwt>
<pdfrwt beam="1">  1       -4 0.42528684E-03 0.12500099E+03</pdfrwt>
<totfact> 0.19642688E+03</totfact>
</mgrwt>
</event>
<event>
 5    1  0.3269032E-002  0.1250073E+03  0.7818608E-02  0.1235058E+00
          4   -1    0    0  501    0  0.00000000000E+00  0.00000000000E+00  0.17486584078E+03  0.17487045255E+03  0.12700000000E+01 0.  1.
         -4   -1    0    0    0  501 -0.00000000000E+00 -0.00000000000E+00 -0.22318212792E+02  0.22354317754E+02  0.12700000000E+01 0.  1.
         25    2    1    2    0    0  0.00000000000E+00  0.00000000000E+00  0.15254762799E+03  0.19722477030E+03  0.12500732464E+03 0.  0.
    9000005    1    3    3    0    0  0.57338408576E+02  0.73433263872E+01  0.11374524682E+03  0.12759544943E+03  0.10000000000E+01 0.  0.
    9000005    1    3    3    0    0 -0.57338408576E+02 -0.73433263872E+01  0.38802381172E+02  0.69629320872E+02  0.10000000000E+01 0.  0.
<mgrwt>
<rscale>  0 0.12500732E+03</rscale>
<asrwt>0</asrwt>
<pdfrwt beam="1">  1        4 0.26905568E-01 0.12500732E+03</pdfrwt>
<pdfrwt beam="2">  1       -4 0.34367034E-02 0.12500732E+03</pdfrwt>
<totfact> 0.90590349E+03</totfact>
</mgrwt>
</event>
<event>
 5    1  0.3269032E-002  0.1250001E+03  0.7818608E-02  0.1235069E+00
         -4   -1    0    0    0  501 -0.00000000000E+00  0.00000000000E+00  0.23922137746E+01  0.27084288330E+01  0.12700000000E+01 0.  1.
          4   -1    0    0  501    0  0.00000000000E+00 -0.00000000000E+00 -0.15313559743E+04  0.15313565009E+04  0.12700000000E+01 0.  1.
         25    2    1    2    0    0  0.00000000000E+00  0.00000000000E+00 -0.15289637605E+04  0.15340649298E+04  0.12500011085E+03 0.  0.
    9000005    1    3    3    0    0 -0.22042521158E+02 -0.20510629223E+02 -0.92434753554E+02  0.97220071563E+02  0.10000000000E+01 0.  0.
    9000005    1    3    3    0    0  0.22042521158E+02  0.20510629223E+02 -0.14365290070E+04  0.14368448582E+04  0.10000000000E+01 0.  0.
<mgrwt>
<rscale>  0 0.12500011E+03</rscale>
<asrwt>0</asrwt>
<pdfrwt beam="2">  1        4 0.23561686E+00 0.12500011E+03</pdfrwt>
<pdfrwt beam="1">  1       -4 0.39239886E-03 0.12500011E+03</pdfrwt>
<totfact> 0.17270462E+03</totfact>
</mgrwt>
</event>
<event>
 5    1  0.3269032E-002  0.1249986E+03  0.7818608E-02  0.1235072E+00
          4   -1    0    0  501    0  0.00000000000E+00  0.00000000000E+00  0.70071902271E+02  0.70083410219E+02  0.12700000000E+01 0.  1.
         -4   -1    0    0    0  501 -0.00000000000E+00 -0.00000000000E+00 -0.55721699911E+02  0.55736170850E+02  0.12700000000E+01 0.  1.
         25    2    1    2    0    0  0.00000000000E+00  0.00000000000E+00  0.14350202360E+02  0.12581958107E+03  0.12499855468E+03 0.  0.
    9000005    1    3    3    0    0  0.27783837898E+01 -0.46523609145E+02  0.49077779065E+02  0.67688950519E+02  0.10000000000E+01 0.  0.
    9000005    1    3    3    0    0 -0.27783837898E+01  0.46523609145E+02 -0.34727576705E+02  0.58130630550E+02  0.10000000000E+01 0.  0.
<mgrwt>
<rscale>  0 0.12499855E+03</rscale>
<asrwt>0</asrwt>
<pdfrwt beam="1">  1        4 0.10782291E-01 0.12499855E+03</pdfrwt>
<pdfrwt beam="2">  1       -4 0.85745676E-02 0.12499855E+03</pdfrwt>
<totfact> 0.10435255E+04</totfact>
</mgrwt>
</event>
<event>
 5    1  0.3269032E-002  0.1249899E+03  0.7818608E-02  0.1235085E+00
          4   -1    0    0  501    0  0.00000000000E+00  0.00000000000E+00  0.17710400588E+03  0.17710855937E+03  0.12700000000E+01 0. -1.
         -4   -1    0    0    0  501 -0.00000000000E+00 -0.00000000000E+00 -0.22029552933E+02  0.22066130210E+02  0.12700000000E+01 0. -1.
         25    2    1    2    0    0  0.00000000000E+00  0.00000000000E+00  0.15507445295E+03  0.19917468958E+03  0.12498988363E+03 0.  0.
    9000005    1    3    3    0    0 -0.74513848930E+01  0.58183202418E+02  0.11185579297E+03  0.12630727058E+03  0.10000000000E+01 0.  0.
    9000005    1    3    3    0    0  0.74513848930E+01 -0.58183202418E+02  0.43218659980E+02  0.72867418994E+02  0.10000000000E+01 0.  0.
<mgrwt>
<rscale>  0 0.12498988E+03</rscale>
<asrwt>0</asrwt>
<pdfrwt beam="1">  1        4 0.27249935E-01 0.12498988E+03</pdfrwt>
<pdfrwt beam="2">  1       -4 0.33923257E-02 0.12498988E+03</pdfrwt>
<totfact> 0.90295328E+03</totfact>
</mgrwt>
</event>
<event>
 5    1  0.3269032E-002  0.1249997E+03  0.7818608E-02  0.1235070E+00
         -4   -1    0    0    0  501 -0.00000000000E+00  0.00000000000E+00  0.14669597882E+03  0.14670147614E+03  0.12700000000E+01 0.  1.
          4   -1    0    0  501    0  0.00000000000E+00 -0.00000000000E+00 -0.26606940981E+02  0.26637233497E+02  0.12700000000E+01 0.  1.
         25    2    1    2    0    0  0.00000000000E+00  0.00000000000E+00  0.12008903784E+03  0.17333870964E+03  0.12499972500E+03 0.  0.
    9000005    1    3    3    0    0 -0.79430562915E+00 -0.55649877657E+02  0.20634225952E+02  0.59365908444E+02  0.10000000000E+01 0.  0.
    9000005    1    3    3    0    0  0.79430562915E+00  0.55649877657E+02  0.99454811888E+02  0.11397280120E+03  0.10000000000E+01 0.  0.
<mgrwt>
<rscale>  0 0.12499973E+03</rscale>
<asrwt>0</asrwt>
<pdfrwt beam="2">  1        4 0.40961287E-02 0.12499973E+03</pdfrwt>
<pdfrwt beam="1">  1       -4 0.22571364E-01 0.12499973E+03</pdfrwt>
<totfact> 0.94830571E+03</totfact>
</mgrwt>
</event>
<event>
 5    1  0.3269032E-002  0.1249962E+03  0.7818608E-02  0.1235075E+00
         -4   -1    0    0    0  501 -0.00000000000E+00  0.00000000000E+00  0.66637208545E+02  0.66649309544E+02  0.12700000000E+01 0. -1.
          4   -1    0    0  501    0  0.00000000000E+00 -0.00000000000E+00 -0.58591772338E+02  0.58605534600E+02  0.12700000000E+01 0. -1.
         25    2    1    2    0    0  0.00000000000E+00  0.00000000000E+00  0.80454362067E+01  0.12525484414E+03  0.12499618769E+03 0.  0.
    9000005    1    3    3    0    0 -0.79169834207E+01  0.32028961752E+01 -0.58009132666E+02  0.58642959023E+02  0.10000000000E+01 0.  0.
    9000005    1    3    3    0    0  0.79169834207E+01 -0.32028961752E+01  0.66054568872E+02  0.66611885120E+02  0.10000000000E+01 0.  0.
<mgrwt>
<rscale>  0 0.12499619E+03</rscale>
<asrwt>0</asrwt>
<pdfrwt beam="2">  1        4 0.90161083E-02 0.12499619E+03</pdfrwt>
<pdfrwt beam="1">  1       -4 0.10253868E-01 0.12499619E+03</pdfrwt>
<totfact> 0.10448230E+04</totfact>
</mgrwt>
</event>
<event>
 5    1  0.3269032E-002  0.1249986E+03  0.7818608E-02  0.1235071E+00
         -4   -1    0    0    0  501 -0.00000000000E+00  0.00000000000E+00  0.22666735888E+02  0.22702286576E+02  0.12700000000E+01 0. -1.
          4   -1    0    0  501    0  0.00000000000E+00 -0.00000000000E+00 -0.17215737803E+03  0.17216206234E+03  0.12700000000E+01 0. -1.
         25    2    1    2    0    0  0.00000000000E+00  0.00000000000E+00 -0.14949064214E+03  0.19486434891E+03  0.12499864956E+03 0.  0.
    9000005    1    3    3    0    0  0.66155084647E+01  0.33584286818E+02 -0.15625070863E+03  0.15995922361E+03  0.10000000000E+01 0.  0.
    9000005    1    3    3    0    0 -0.66155084647E+01 -0.33584286818E+02  0.67600664873E+01  0.34905125301E+02  0.10000000000E+01 0.  0.
<mgrwt>
<rscale>  0 0.12499865E+03</rscale>
<asrwt>0</asrwt>
<pdfrwt beam="2">  1        4 0.26488845E-01 0.12499865E+03</pdfrwt>
<pdfrwt beam="1">  1       -4 0.34902852E-02 0.12499865E+03</pdfrwt>
<totfact> 0.91010507E+03</totfact>
</mgrwt>
</event>
<event>
 5    1  0.3269032E-002  0.1250043E+03  0.7818608E-02  0.1235063E+00
          4   -1    0    0  501    0  0.00000000000E+00  0.00000000000E+00  0.83053318382E+01  0.84018710382E+01  0.12700000000E+01 0. -1.
         -4   -1    0    0    0  501 -0.00000000000E+00 -0.00000000000E+00 -0.46754750238E+03  0.46754922722E+03  0.12700000000E+01 0. -1.
         25    2    1    2    0    0  0.00000000000E+00  0.00000000000E+00 -0.45924217054E+03  0.47595109826E+03  0.12500430687E+03 0.  0.
    9000005    1    3    3    0    0  0.38793965358E+02  0.16424176497E+02 -0.40537624170E+03  0.40756057544E+03  0.10000000000E+01 0.  0.
    9000005    1    3    3    0    0 -0.38793965358E+02 -0.16424176497E+02 -0.53865928838E+02  0.68390522818E+02  0.10000000000E+01 0.  0.
<mgrwt>
<rscale>  0 0.12500431E+03</rscale>
<asrwt>0</asrwt>
<pdfrwt beam="1">  1        4 0.12853025E-02 0.12500431E+03</pdfrwt>
<pdfrwt beam="2">  1       -4 0.71937924E-01 0.12500431E+03</pdfrwt>
<totfact> 0.57774301E+03</totfact>
</mgrwt>
</event>
<event>
 5    1  0.3269032E-002  0.1250052E+03  0.7818608E-02  0.1235061E+00
         -4   -1    0    0    0  501 -0.00000000000E+00  0.00000000000E+00  0.49965347870E+02  0.49981485450E+02  0.12700000000E+01 0.  1.
          4   -1    0    0  501    0  0.00000000000E+00 -0.00000000000E+00 -0.78151787175E+02  0.78162105516E+02  0.12700000000E+01 0.  1.
         25    2    1    2    0    0  0.00000000000E+00  0.00000000000E+00 -0.28186439306E+02  0.12814359097E+03  0.12500521807E+03 0.  0.
    9000005    1    3    3    0    0 -0.71272550204E+01  0.61874548699E+02 -0.19352182494E+02  0.65228555925E+02  0.10000000000E+01 0.  0.
    9000005    1    3    3    0    0  0.71272550204E+01 -0.61874548699E+02 -0.88342568116E+01  0.62915035041E+02  0.10000000000E+01 0.  0.
<mgrwt>
<rscale>  0 0.12500522E+03</rscale>
<asrwt>0</asrwt>
<pdfrwt beam="2">  1        4 0.12025387E-01 0.12500522E+03</pdfrwt>
<pdfrwt beam="1">  1       -4 0.76890117E-02 0.12500522E+03</pdfrwt>
<totfact> 0.10383165E+04</totfact>
</mgrwt>
</event>
<event>
 5    1  0.3269032E-002  0.1250065E+03  0.7818608E-02  0.1235059E+00
          4   -1    0    0  501    0  0.00000000000E+00  0.00000000000E+00  0.15664550191E+02  0.15715948355E+02  0.12700000000E+01 0. -1.
         -4   -1    0    0    0  501 -0.00000000000E+00 -0.00000000000E+00 -0.24893329786E+03  0.24893653746E+03  0.12700000000E+01 0. -1.
         25    2    1    2    0    0  0.00000000000E+00  0.00000000000E+00 -0.23326874767E+03  0.26465248582E+03  0.12500651827E+03 0.  0.
    9000005    1    3    3    0    0 -0.17719802159E+02  0.54503859969E+02 -0.16939226915E+03  0.17882785854E+03  0.10000000000E+01 0.  0.
    9000005    1    3    3    0    0  0.17719802159E+02 -0.54503859969E+02 -0.63876478515E+02  0.85824627279E+02  0.10000000000E+01 0.  0.
<mgrwt>
<rscale>  0 0.12500652E+03</rscale>
<asrwt>0</asrwt>
<pdfrwt beam="1">  1        4 0.24141339E-02 0.12500652E+03</pdfrwt>
<pdfrwt beam="2">  1       -4 0.38301630E-01 0.12500652E+03</pdfrwt>
<totfact> 0.80245913E+03</totfact>
</mgrwt>
</event>
<event>
 5    1  0.3269032E-002  0.1249993E+03  0.7818608E-02  0.1235070E+00
          4   -1    0    0  501    0  0.00000000000E+00  0.00000000000E+00  0.32401046970E+02  0.32425927045E+02  0.12700000000E+01 0.  1.
         -4   -1    0    0    0  501 -0.00000000000E+00 -0.00000000000E+00 -0.12048352200E+03  0.12049021526E+03  0.12700000000E+01 0.  1.
         25    2    1    2    0    0  0.00000000000E+00  0.00000000000E+00 -0.88082475031E+02  0.15291614231E+03  0.12499929668E+03 0.  0.
    9000005    1    3    3    0    0 -0.99631072600E+01  0.38526391444E+02  0.14903500963E+02  0.42504831312E+02  0.10000000000E+01 0.  0.
    9000005    1    3    3    0    0  0.99631072600E+01 -0.38526391444E+02 -0.10298597599E+03  0.11041131099E+03  0.10000000000E+01 0.  0.
<mgrwt>
<rscale>  0 0.12499930E+03</rscale>
<asrwt>0</asrwt>
<pdfrwt beam="1">  1        4 0.49872052E-02 0.12499930E+03</pdfrwt>
<pdfrwt beam="2">  1       -4 0.18538355E-01 0.12499930E+03</pdfrwt>
<totfact> 0.98727115E+03</totfact>
</mgrwt>
</event>
<event>
 5    1  0.3269032E-002  0.1250019E+03  0.7818608E-02  0.1235066E+00
         -4   -1    0    0    0  501 -0.00000000000E+00  0.00000000000E+00  0.29941024949E+02  0.29967947460E+02  0.12700000000E+01 0.  1.
          4   -1    0    0  501    0  0.00000000000E+00 -0.00000000000E+00 -0.13038015721E+03  0.13038634244E+03  0.12700000000E+01 0.  1.
         25    2    1    2    0    0  0.00000000000E+00  0.00000000000E+00 -0.10043913226E+03  0.16035428990E+03  0.12500191598E+03 0.  0.
    9000005    1    3    3    0    0 -0.48547561386E+02 -0.38989672555E+02 -0.43394140138E+02  0.75901987331E+02  0.10000000000E+01 0.  0.
    9000005    1    3    3    0    0  0.48547561386E+02  0.38989672555E+02 -0.57044992123E+02  0.84452302566E+02  0.10000000000E+01 0.  0.
<mgrwt>
<rscale>  0 0.12500192E+03</rscale>
<asrwt>0</asrwt>
<pdfrwt beam="2">  1        4 0.20061032E-01 0.12500192E+03</pdfrwt>
<pdfrwt beam="1">  1       -4 0.46088583E-02 0.12500192E+03</pdfrwt>
<totfact> 0.97270335E+03</totfact>
</mgrwt>
</event>
<event>
 5    1  0.3269032E-002  0.1250015E+03  0.7818608E-02  0.1235067E+00
          4   -1    0    0  501    0  0.00000000000E+00  0.00000000000E+00  0.42664905420E+03  0.42665094439E+03  0.12700000000E+01 0.  1.
         -4   -1    0    0    0  501 -0.00000000000E+00 -0.00000000000E+00 -0.91099053038E+01  0.91980038402E+01  0.12700000000E+01 0.  1.
         25    2    1    2    0    0  0.00000000000E+00  0.00000000000E+00  0.41753914890E+03  0.43584894823E+03  0.12500145924E+03 0.  0.
    9000005    1    3    3    0    0 -0.98229431692E+01  0.59720166978E+02  0.26305019489E+03  0.26992479247E+03  0.10000000000E+01 0.  0.
    9000005    1    3    3    0    0  0.98229431692E+01 -0.59720166978E+02  0.15448895401E+03  0.16592415577E+03  0.10000000000E+01 0.  0.
<mgrwt>
<rscale>  0 0.12500146E+03</rscale>
<asrwt>0</asrwt>
<pdfrwt beam="1">  1        4 0.65645235E-01 0.12500146E+03</pdfrwt>
<pdfrwt beam="2">  1       -4 0.14084462E-02 0.12500146E+03</pdfrwt>
<totfact> 0.61207406E+03</totfact>
</mgrwt>
</event>
<event>
 5    1  0.3269032E-002  0.1249885E+03  0.7818608E-02  0.1235087E+00
         -4   -1    0    0    0  501 -0.00000000000E+00  0.00000000000E+00  0.41345088552E+03  0.41345283605E+03  0.12700000000E+01 0. -1.
          4   -1    0    0  501    0  0.00000000000E+00 -0.00000000000E+00 -0.94015070230E+01  0.94868980338E+01  0.12700000000E+01 0. -1.
         25    2    1    2    0    0  0.00000000000E+00  0.00000000000E+00  0.40404937850E+03  0.42293973409E+03  0.12498847308E+03 0.  0.
    9000005    1    3    3    0    0 -0.59249087004E+02 -0.18864612725E+02  0.18111008087E+03  0.19148939740E+03  0.10000000000E+01 0.  0.
    9000005    1    3    3    0    0  0.59249087004E+02  0.18864612725E+02  0.22293929763E+03  0.23145033669E+03  0.10000000000E+01 0.  0.
<mgrwt>
<rscale>  0 0.12498847E+03</rscale>
<asrwt>0</asrwt>
<pdfrwt beam="2">  1        4 0.14531045E-02 0.12498847E+03</pdfrwt>
<pdfrwt beam="1">  1       -4 0.63614537E-01 0.12498847E+03</pdfrwt>
<totfact> 0.62397082E+03</totfact>
</mgrwt>
</event>
<event>
 5    1  0.3269032E-002  0.1250008E+03  0.7818608E-02  0.1235068E+00
          4   -1    0    0  501    0  0.00000000000E+00  0.00000000000E+00  0.22606881500E+02  0.22642526165E+02  0.12700000000E+01 0.  1.
         -4   -1    0    0    0  501 -0.00000000000E+00 -0.00000000000E+00 -0.17261835841E+03  0.17262303021E+03  0.12700000000E+01 0.  1.
         25    2    1    2    0    0  0.00000000000E+00  0.00000000000E+00 -0.15001147691E+03  0.19526555637E+03  0.12500077721E+03 0.  0.
    9000005    1    3    3    0    0  0.39409793813E+02  0.31745772406E+02 -0.17729727154E+02  0.53630859950E+02  0.10000000000E+01 0.  0.
    9000005    1    3    3    0    0 -0.39409793813E+02 -0.31745772406E+02 -0.13228174975E+03  0.14163469642E+03  0.10000000000E+01 0.  0.
<mgrwt>
<rscale>  0 0.12500078E+03</rscale>
<asrwt>0</asrwt>
<pdfrwt beam="1">  1        4 0.34810831E-02 0.12500078E+03</pdfrwt>
<pdfrwt beam="2">  1       -4 0.26559771E-01 0.12500078E+03</pdfrwt>
<totfact> 0.90937529E+03</totfact>
</mgrwt>
</event>
<event>
 5    1  0.3269032E-002  0.1249993E+03  0.7818608E-02  0.1235070E+00
         -4   -1    0    0    0  501 -0.00000000000E+00  0.00000000000E+00  0.15746887236E+02  0.15798017522E+02  0.12700000000E+01 0. -1.
          4   -1    0    0  501    0  0.00000000000E+00 -0.00000000000E+00 -0.24760726723E+03  0.24761052418E+03  0.12700000000E+01 0. -1.
         25    2    1    2    0    0  0.00000000000E+00  0.00000000000E+00 -0.23186038000E+03  0.26340854170E+03  0.12499929612E+03 0.  0.
    9000005    1    3    3    0    0  0.27667831057E+02 -0.54585386947E+02 -0.14259645871E+03  0.15517674883E+03  0.10000000000E+01 0.  0.
    9000005    1    3    3    0    0 -0.27667831057E+02  0.54585386947E+02 -0.89263921291E+02  0.10823179287E+03  0.10000000000E+01 0.  0.
<mgrwt>
<rscale>  0 0.12499930E+03</rscale>
<asrwt>0</asrwt>
<pdfrwt beam="2">  1        4 0.38097607E-01 0.12499930E+03</pdfrwt>
<pdfrwt beam="1">  1       -4 0.24267818E-02 0.12499930E+03</pdfrwt>
<totfact> 0.80431349E+03</totfact>
</mgrwt>
</event>
<event>
 5    1  0.3269032E-002  0.1249970E+03  0.7818608E-02  0.1235074E+00
         -4   -1    0    0    0  501 -0.00000000000E+00  0.00000000000E+00  0.92343119553E+02  0.92351852330E+02  0.12700000000E+01 0.  1.
          4   -1    0    0  501    0  0.00000000000E+00 -0.00000000000E+00 -0.42279150681E+02  0.42298220794E+02  0.12700000000E+01 0.  1.
         25    2    1    2    0    0  0.00000000000E+00  0.00000000000E+00  0.50063968872E+02  0.13465007312E+03  0.12499696481E+03 0.  0.
    9000005    1    3    3    0    0 -0.20629390138E+02  0.58856366117E+02  0.29261623470E+02  0.68897650018E+02  0.10000000000E+01 0.  0.
    9000005    1    3    3    0    0  0.20629390138E+02 -0.58856366117E+02  0.20802345402E+02  0.65752423105E+02  0.10000000000E+01 0.  0.
<mgrwt>
<rscale>  0 0.12499696E+03</rscale>
<asrwt>0</asrwt>
<pdfrwt beam="2">  1        4 0.65066234E-02 0.12499696E+03</pdfrwt>
<pdfrwt beam="1">  1       -4 0.14208772E-01 0.12499696E+03</pdfrwt>
<totfact> 0.10246153E+04</totfact>
</mgrwt>
</event>
<event>
 5    1  0.3269032E-002  0.1250009E+03  0.7818608E-02  0.1235068E+00
          4   -1    0    0  501    0  0.00000000000E+00  0.00000000000E+00  0.32555349141E+01  0.34944824477E+01  0.12700000000E+01 0.  1.
         -4   -1    0    0    0  501 -0.00000000000E+00 -0.00000000000E+00 -0.11571823272E+04  0.11571830241E+04  0.12700000000E+01 0.  1.
         25    2    1    2    0    0  0.00000000000E+00  0.00000000000E+00 -0.11539267922E+04  0.11606775065E+04  0.12500092907E+03 0.  0.
    9000005    1    3    3    0    0  0.22396310429E+02 -0.31221999457E+02 -0.10345814535E+04  0.10352952197E+04  0.10000000000E+01 0.  0.
    9000005    1    3    3    0    0 -0.22396310429E+02  0.31221999457E+02 -0.11934533872E+03  0.12538228681E+03  0.10000000000E+01 0.  0.
<mgrwt>
<rscale>  0 0.12500093E+03</rscale>
<asrwt>0</asrwt>
<pdfrwt beam="1">  1        4 0.51928664E-03 0.12500093E+03</pdfrwt>
<pdfrwt beam="2">  1       -4 0.17804617E+00 0.12500093E+03</pdfrwt>
<totfact> 0.25765356E+03</totfact>
</mgrwt>
</event>
<event>
 5    1  0.3269032E-002  0.1249994E+03  0.7818608E-02  0.1235070E+00
         -4   -1    0    0    0  501 -0.00000000000E+00  0.00000000000E+00  0.51738669330E+01  0.53274570894E+01  0.12700000000E+01 0.  1.
          4   -1    0    0  501    0  0.00000000000E+00 -0.00000000000E+00 -0.74379241474E+03  0.74379349898E+03  0.12700000000E+01 0.  1.
         25    2    1    2    0    0  0.00000000000E+00  0.00000000000E+00 -0.73861854780E+03  0.74912095607E+03  0.12499939063E+03 0.  0.
    9000005    1    3    3    0    0 -0.56550336146E+02 -0.20444970627E+01 -0.21039974067E+03  0.21787879970E+03  0.10000000000E+01 0.  0.
    9000005    1    3    3    0    0  0.56550336146E+02  0.20444970627E+01 -0.52821880713E+03  0.53124215636E+03  0.10000000000E+01 0.  0.
<mgrwt>
<rscale>  0 0.12499939E+03</rscale>
<asrwt>0</asrwt>
<pdfrwt beam="2">  1        4 0.11444142E+00 0.12499939E+03</pdfrwt>
<pdfrwt beam="1">  1       -4 0.80787815E-03 0.12499939E+03</pdfrwt>
<totfact> 0.40616781E+03</totfact>
</mgrwt>
</event>
<event>
 5    1  0.3269032E-002  0.1249987E+03  0.7818608E-02  0.1235071E+00
         -4   -1    0    0    0  501 -0.00000000000E+00  0.00000000000E+00  0.18401565518E+04  0.18401569900E+04  0.12700000000E+01 0. -1.
          4   -1    0    0  501    0  0.00000000000E+00 -0.00000000000E+00 -0.19323053129E+01  0.23122940605E+01  0.12700000000E+01 0. -1.
         25    2    1    2    0    0  0.00000000000E+00  0.00000000000E+00  0.18382242464E+04  0.18424692841E+04  0.12499873007E+03 0.  0.
    9000005    1    3    3    0    0 -0.25720290792E+02 -0.51334209210E+02  0.55553027649E+03  0.55849048559E+03  0.10000000000E+01 0.  0.
    9000005    1    3    3    0    0  0.25720290792E+02  0.51334209210E+02  0.12826939700E+04  0.12839787985E+04  0.10000000000E+01 0.  0.
<mgrwt>
<rscale>  0 0.12499873E+03</rscale>
<asrwt>0</asrwt>
<pdfrwt beam="2">  1        4 0.32654162E-03 0.12499873E+03</pdfrwt>
<pdfrwt beam="1">  1       -4 0.28313005E+00 0.12499873E+03</pdfrwt>
<totfact> 0.12060835E+03</totfact>
</mgrwt>
</event>
<event>
 5    1  0.3269032E-002  0.1249992E+03  0.7818608E-02  0.1235071E+00
         -4   -1    0    0    0  501 -0.00000000000E+00  0.00000000000E+00  0.86529821704E+02  0.86539141111E+02  0.12700000000E+01 0. -1.
          4   -1    0    0  501    0  0.00000000000E+00 -0.00000000000E+00 -0.45122115239E+02  0.45139984311E+02  0.12700000000E+01 0. -1.
         25    2    1    2    0    0  0.00000000000E+00  0.00000000000E+00  0.41407706466E+02  0.13167912542E+03  0.12499917567E+03 0.  0.
    9000005    1    3    3    0    0  0.30585773050E+00 -0.59213039180E+02  0.41744214436E+02  0.72455896908E+02  0.10000000000E+01 0.  0.
    9000005    1    3    3    0    0 -0.30585773050E+00  0.59213039180E+02 -0.33650797024E+00  0.59223228513E+02  0.10000000000E+01 0.  0.
<mgrwt>
<rscale>  0 0.12499918E+03</rscale>
<asrwt>0</asrwt>
<pdfrwt beam="2">  1        4 0.69439553E-02 0.12499918E+03</pdfrwt>
<pdfrwt beam="1">  1       -4 0.13314372E-01 0.12499918E+03</pdfrwt>
<totfact> 0.10308744E+04</totfact>
</mgrwt>
</event>
<event>
 5    1  0.3269032E-002  0.1249749E+03  0.7818608E-02  0.1235108E+00
          4   -1    0    0  501    0  0.00000000000E+00  0.00000000000E+00  0.13762910981E+03  0.13763496927E+03  0.12700000000E+01 0. -1.
         -4   -1    0    0    0  501 -0.00000000000E+00 -0.00000000000E+00 -0.28350384828E+02  0.28378816393E+02  0.12700000000E+01 0. -1.
         25    2    1    2    0    0  0.00000000000E+00  0.00000000000E+00  0.10927872498E+03  0.16601378567E+03  0.12497494668E+03 0.  0.
    9000005    1    3    3    0    0  0.48908399220E+02  0.28476181177E+02  0.89803973592E+02  0.10615402998E+03  0.10000000000E+01 0.  0.
    9000005    1    3    3    0    0 -0.48908399220E+02 -0.28476181177E+02  0.19474751388E+02  0.59859755682E+02  0.10000000000E+01 0.  0.
<mgrwt>
<rscale>  0 0.12497495E+03</rscale>
<asrwt>0</asrwt>
<pdfrwt beam="1">  1        4 0.21176347E-01 0.12497495E+03</pdfrwt>
<pdfrwt beam="2">  1       -4 0.43642355E-02 0.12497495E+03</pdfrwt>
<totfact> 0.96249896E+03</totfact>
</mgrwt>
</event>
<event>
 5    1  0.3269032E-002  0.1250030E+03  0.7818608E-02  0.1235065E+00
          4   -1    0    0  501    0  0.00000000000E+00  0.00000000000E+00  0.55817709046E+02  0.55832155100E+02  0.12700000000E+01 0.  1.
         -4   -1    0    0    0  501 -0.00000000000E+00 -0.00000000000E+00 -0.69956348059E+02  0.69967875012E+02  0.12700000000E+01 0.  1.
         25    2    1    2    0    0  0.00000000000E+00  0.00000000000E+00 -0.14138639013E+02  0.12580003011E+03  0.12500298582E+03 0.  0.
    9000005    1    3    3    0    0  0.19170906587E+02  0.36459507258E+02  0.40226264437E+02  0.57584474291E+02  0.10000000000E+01 0.  0.
    9000005    1    3    3    0    0 -0.19170906587E+02 -0.36459507258E+02 -0.54364903450E+02  0.68215555821E+02  0.10000000000E+01 0.  0.
<mgrwt>
<rscale>  0 0.12500299E+03</rscale>
<asrwt>0</asrwt>
<pdfrwt beam="1">  1        4 0.85893378E-02 0.12500299E+03</pdfrwt>
<pdfrwt beam="2">  1       -4 0.10764513E-01 0.12500299E+03</pdfrwt>
<totfact> 0.10434642E+04</totfact>
</mgrwt>
</event>
<event>
 5    1  0.3269032E-002  0.1249999E+03  0.7818608E-02  0.1235069E+00
         -4   -1    0    0    0  501 -0.00000000000E+00  0.00000000000E+00  0.35446355579E+02  0.35469099563E+02  0.12700000000E+01 0.  1.
          4   -1    0    0  501    0  0.00000000000E+00 -0.00000000000E+00 -0.11013989475E+03  0.11014721656E+03  0.12700000000E+01 0.  1.
         25    2    1    2    0    0  0.00000000000E+00  0.00000000000E+00 -0.74693539172E+02  0.14561631612E+03  0.12499994691E+03 0.  0.
    9000005    1    3    3    0    0  0.48048233681E+02 -0.39213764545E+02 -0.46286777853E+02  0.77393913803E+02  0.10000000000E+01 0.  0.
    9000005    1    3    3    0    0 -0.48048233681E+02  0.39213764545E+02 -0.28406761319E+02  0.68222402320E+02  0.10000000000E+01 0.  0.
<mgrwt>
<rscale>  0 0.12499995E+03</rscale>
<asrwt>0</asrwt>
<pdfrwt beam="2">  1        4 0.16946912E-01 0.12499995E+03</pdfrwt>
<pdfrwt beam="1">  1       -4 0.54555983E-02 0.12499995E+03</pdfrwt>
<totfact> 0.10018493E+04</totfact>
</mgrwt>
</event>
<event>
 5    1  0.3269032E-002  0.1250010E+03  0.7818608E-02  0.1235068E+00
         -4   -1    0    0    0  501 -0.00000000000E+00  0.00000000000E+00  0.11503300385E+02  0.11573194017E+02  0.12700000000E+01 0. -1.
          4   -1    0    0  501    0  0.00000000000E+00 -0.00000000000E+00 -0.33848247530E+03  0.33848485783E+03  0.12700000000E+01 0. -1.
         25    2    1    2    0    0  0.00000000000E+00  0.00000000000E+00 -0.32697917491E+03  0.35005805185E+03  0.12500103536E+03 0.  0.
    9000005    1    3    3    0    0 -0.17949763645E+02  0.56039990879E+02 -0.10457106495E+03  0.11999492580E+03  0.10000000000E+01 0.  0.
    9000005    1    3    3    0    0  0.17949763645E+02 -0.56039990879E+02 -0.22240810996E+03  0.23006312605E+03  0.10000000000E+01 0.  0.
<mgrwt>
<rscale>  0 0.12500104E+03</rscale>
<asrwt>0</asrwt>
<pdfrwt beam="2">  1        4 0.52079779E-01 0.12500104E+03</pdfrwt>
<pdfrwt beam="1">  1       -4 0.17752985E-02 0.12500104E+03</pdfrwt>
<totfact> 0.69716576E+03</totfact>
</mgrwt>
</event>
<event>
 5    1  0.3269032E-002  0.1250012E+03  0.7818608E-02  0.1235067E+00
          4   -1    0    0  501    0  0.00000000000E+00  0.00000000000E+00  0.77036404169E+01  0.78076229208E+01  0.12700000000E+01 0.  1.
         -4   -1    0    0    0  501 -0.00000000000E+00 -0.00000000000E+00 -0.50357109723E+03  0.50357269869E+03  0.12700000000E+01 0.  1.
         25    2    1    2    0    0  0.00000000000E+00  0.00000000000E+00 -0.49586745681E+03  0.51138032161E+03  0.12500119441E+03 0.  0.
    9000005    1    3    3    0    0 -0.10449790972E+02  0.30299676794E+02 -0.28461548575E+02  0.42875730810E+02  0.10000000000E+01 0.  0.
    9000005    1    3    3    0    0  0.10449790972E+02 -0.30299676794E+02 -0.46740590823E+03  0.46850459080E+03  0.10000000000E+01 0.  0.
<mgrwt>
<rscale>  0 0.12500119E+03</rscale>
<asrwt>0</asrwt>
<pdfrwt beam="1">  1        4 0.11932977E-02 0.12500119E+03</pdfrwt>
<pdfrwt beam="2">  1       -4 0.77480573E-01 0.12500119E+03</pdfrwt>
<totfact> 0.54990647E+03</totfact>
</mgrwt>
</event>
<event>
 5    1  0.3269032E-002  0.1250097E+03  0.7818608E-02  0.1235054E+00
         -4   -1    0    0    0  501 -0.00000000000E+00  0.00000000000E+00  0.35833275427E+02  0.35855773982E+02  0.12700000000E+01 0. -1.
          4   -1    0    0  501    0  0.00000000000E+00 -0.00000000000E+00 -0.10896828940E+03  0.10897568993E+03  0.12700000000E+01 0. -1.
         25    2    1    2    0    0  0.00000000000E+00  0.00000000000E+00 -0.73135013973E+02  0.14483146391E+03  0.12500969030E+03 0.  0.
    9000005    1    3    3    0    0 -0.22229798672E+02  0.28783660408E+02 -0.95451552009E+02  0.10215019254E+03  0.10000000000E+01 0.  0.
    9000005    1    3    3    0    0  0.22229798672E+02 -0.28783660408E+02  0.22316538036E+02  0.42681271366E+02  0.10000000000E+01 0.  0.
<mgrwt>
<rscale>  0 0.12500969E+03</rscale>
<asrwt>0</asrwt>
<pdfrwt beam="2">  1        4 0.16766652E-01 0.12500969E+03</pdfrwt>
<pdfrwt beam="1">  1       -4 0.55151116E-02 0.12500969E+03</pdfrwt>
<totfact> 0.10032225E+04</totfact>
</mgrwt>
</event>
<event>
 5    1  0.3269032E-002  0.1249994E+03  0.7818608E-02  0.1235070E+00
         -4   -1    0    0    0  501 -0.00000000000E+00  0.00000000000E+00  0.17085235723E+03  0.17085707732E+03  0.12700000000E+01 0. -1.
          4   -1    0    0  501    0  0.00000000000E+00 -0.00000000000E+00 -0.22840403048E+02  0.22875683846E+02  0.12700000000E+01 0. -1.
         25    2    1    2    0    0  0.00000000000E+00  0.00000000000E+00  0.14801195418E+03  0.19373276117E+03  0.12499937668E+03 0.  0.
    9000005    1    3    3    0    0  0.41508668345E+02 -0.43867882766E+02  0.98893351915E+02  0.11588035096E+03  0.10000000000E+01 0.  0.
    9000005    1    3    3    0    0 -0.41508668345E+02  0.43867882766E+02  0.49118602267E+02  0.77852410206E+02  0.10000000000E+01 0.  0.
<mgrwt>
<rscale>  0 0.12499938E+03</rscale>
<asrwt>0</asrwt>
<pdfrwt beam="2">  1        4 0.35169851E-02 0.12499938E+03</pdfrwt>
<pdfrwt beam="1">  1       -4 0.26288056E-01 0.12499938E+03</pdfrwt>
<totfact> 0.91203124E+03</totfact>
</mgrwt>
</event>
<event>
 5    1  0.3269032E-002  0.1250110E+03  0.7818608E-02  0.1235052E+00
         -4   -1    0    0    0  501 -0.00000000000E+00  0.00000000000E+00  0.19111297913E+02  0.19153448982E+02  0.12700000000E+01 0. -1.
          4   -1    0    0  501    0  0.00000000000E+00 -0.00000000000E+00 -0.20416154320E+03  0.20416549322E+03  0.12700000000E+01 0. -1.
         25    2    1    2    0    0  0.00000000000E+00  0.00000000000E+00 -0.18505024529E+03  0.22331894220E+03  0.12501102617E+03 0.  0.
    9000005    1    3    3    0    0 -0.11375592776E+02  0.54384474104E+02 -0.14364421564E+03  0.15401862167E+03  0.10000000000E+01 0.  0.
    9000005    1    3    3    0    0  0.11375592776E+02 -0.54384474104E+02 -0.41406029649E+02  0.69300320532E+02  0.10000000000E+01 0.  0.
<mgrwt>
<rscale>  0 0.12501103E+03</rscale>
<asrwt>0</asrwt>
<pdfrwt beam="2">  1        4 0.31413013E-01 0.12501103E+03</pdfrwt>
<pdfrwt beam="1">  1       -4 0.29437461E-02 0.12501103E+03</pdfrwt>
<totfact> 0.86324624E+03</totfact>
</mgrwt>
</event>
<event>
 5    1  0.3269032E-002  0.1250022E+03  0.7818608E-02  0.1235066E+00
          4   -1    0    0  501    0  0.00000000000E+00  0.00000000000E+00  0.34000926126E+02  0.34024636331E+02  0.12700000000E+01 0.  1.
         -4   -1    0    0    0  501 -0.00000000000E+00 -0.00000000000E+00 -0.11482327791E+03  0.11483030109E+03  0.12700000000E+01 0.  1.
         25    2    1    2    0    0  0.00000000000E+00  0.00000000000E+00 -0.80822351782E+02  0.14885493743E+03  0.12500215938E+03 0.  0.
    9000005    1    3    3    0    0 -0.49257336588E+02  0.37896404027E+02 -0.32605876389E+02  0.70189499365E+02  0.10000000000E+01 0.  0.
    9000005    1    3    3    0    0  0.49257336588E+02 -0.37896404027E+02 -0.48216475393E+02  0.78665438061E+02  0.10000000000E+01 0.  0.
<mgrwt>
<rscale>  0 0.12500216E+03</rscale>
<asrwt>0</asrwt>
<pdfrwt beam="1">  1        4 0.52332759E-02 0.12500216E+03</pdfrwt>
<pdfrwt beam="2">  1       -4 0.17667484E-01 0.12500216E+03</pdfrwt>
<totfact> 0.99527603E+03</totfact>
</mgrwt>
</event>
<event>
 5    1  0.3269032E-002  0.1249997E+03  0.7818608E-02  0.1235070E+00
          4   -1    0    0  501    0  0.00000000000E+00  0.00000000000E+00  0.32985710735E+02  0.33010150147E+02  0.12700000000E+01 0. -1.
         -4   -1    0    0    0  501 -0.00000000000E+00 -0.00000000000E+00 -0.11835025405E+03  0.11835706795E+03  0.12700000000E+01 0. -1.
         25    2    1    2    0    0  0.00000000000E+00  0.00000000000E+00 -0.85364543317E+02  0.15136721810E+03  0.12499971784E+03 0.  0.
    9000005    1    3    3    0    0 -0.30089619203E+02  0.54770857761E+02 -0.42660571103E+02  0.75671370878E+02  0.10000000000E+01 0.  0.
    9000005    1    3    3    0    0  0.30089619203E+02 -0.54770857761E+02 -0.42703972214E+02  0.75695847221E+02  0.10000000000E+01 0.  0.
<mgrwt>
<rscale>  0 0.12499972E+03</rscale>
<asrwt>0</asrwt>
<pdfrwt beam="1">  1        4 0.50771289E-02 0.12499972E+03</pdfrwt>
<pdfrwt beam="2">  1       -4 0.18210135E-01 0.12499972E+03</pdfrwt>
<totfact> 0.99032488E+03</totfact>
</mgrwt>
</event>
<event>
 5    1  0.3269032E-002  0.1249987E+03  0.7818608E-02  0.1235071E+00
          4   -1    0    0  501    0  0.00000000000E+00  0.00000000000E+00  0.34149490858E+03  0.34149727010E+03  0.12700000000E+01 0.  1.
         -4   -1    0    0    0  501 -0.00000000000E+00 -0.00000000000E+00 -0.11400785313E+02  0.11471303577E+02  0.12700000000E+01 0.  1.
         25    2    1    2    0    0  0.00000000000E+00  0.00000000000E+00  0.33009412327E+03  0.35296857368E+03  0.12499873515E+03 0.  0.
    9000005    1    3    3    0    0  0.35421971430E+02 -0.69960130927E+00  0.19685183030E+02  0.40542717384E+02  0.10000000000E+01 0.  0.
    9000005    1    3    3    0    0 -0.35421971430E+02  0.69960130927E+00  0.31040894024E+03  0.31242585630E+03  0.10000000000E+01 0.  0.
<mgrwt>
<rscale>  0 0.12499874E+03</rscale>
<asrwt>0</asrwt>
<pdfrwt beam="1">  1        4 0.52543287E-01 0.12499874E+03</pdfrwt>
<pdfrwt beam="2">  1       -4 0.17595730E-02 0.12499874E+03</pdfrwt>
<totfact> 0.69401145E+03</totfact>
</mgrwt>
</event>
<event>
 5    1  0.3269032E-002  0.1250015E+03  0.7818608E-02  0.1235067E+00
          4   -1    0    0  501    0  0.00000000000E+00  0.00000000000E+00  0.21428940772E+04  0.21428944535E+04  0.12700000000E+01 0. -1.
         -4   -1    0    0    0  501 -0.00000000000E+00 -0.00000000000E+00 -0.16013107546E+01  0.20437945427E+01  0.12700000000E+01 0. -1.
         25    2    1    2    0    0  0.00000000000E+00  0.00000000000E+00  0.21412927664E+04  0.21449382481E+04  0.12500150576E+03 0.  0.
    9000005    1    3    3    0    0  0.12613157122E+02 -0.20546452908E+02  0.81327485201E+02  0.84831646859E+02  0.10000000000E+01 0.  0.
    9000005    1    3    3    0    0 -0.12613157122E+02  0.20546452908E+02  0.20599652812E+04  0.20601066012E+04  0.10000000000E+01 0.  0.
<mgrwt>
<rscale>  0 0.12500151E+03</rscale>
<asrwt>0</asrwt>
<pdfrwt beam="1">  1        4 0.32970995E+00 0.12500151E+03</pdfrwt>
<pdfrwt beam="2">  1       -4 0.28042177E-03 0.12500151E+03</pdfrwt>
<totfact> 0.80858310E+02</totfact>
</mgrwt>
</event>
<event>
 5    1  0.3269032E-002  0.1250024E+03  0.7818608E-02  0.1235066E+00
          4   -1    0    0  501    0  0.00000000000E+00  0.00000000000E+00  0.48841924041E+02  0.48858432681E+02  0.12700000000E+01 0. -1.
         -4   -1    0    0    0  501 -0.00000000000E+00 -0.00000000000E+00 -0.79945371828E+02  0.79955458705E+02  0.12700000000E+01 0. -1.
         25    2    1    2    0    0  0.00000000000E+00  0.00000000000E+00 -0.31103447788E+02  0.12881389139E+03  0.12500237658E+03 0.  0.
    9000005    1    3    3    0    0  0.23768696229E+02 -0.57472111518E+02 -0.92493590738E+01  0.62885174454E+02  0.10000000000E+01 0.  0.
    9000005    1    3    3    0    0 -0.23768696229E+02  0.57472111518E+02 -0.21854088714E+02  0.65928716932E+02  0.10000000000E+01 0.  0.
<mgrwt>
<rscale>  0 0.12500238E+03</rscale>
<asrwt>0</asrwt>
<pdfrwt beam="1">  1        4 0.75161880E-02 0.12500238E+03</pdfrwt>
<pdfrwt beam="2">  1       -4 0.12301334E-01 0.12500238E+03</pdfrwt>
<totfact> 0.10369391E+04</totfact>
</mgrwt>
</event>
<event>
 5    1  0.3269032E-002  0.1249990E+03  0.7818608E-02  0.1235071E+00
          4   -1    0    0  501    0  0.00000000000E+00  0.00000000000E+00  0.61802057729E+03  0.61802188218E+03  0.12700000000E+01 0. -1.
         -4   -1    0    0    0  501 -0.00000000000E+00 -0.00000000000E+00 -0.62553567596E+01  0.63829764366E+01  0.12700000000E+01 0. -1.
         25    2    1    2    0    0  0.00000000000E+00  0.00000000000E+00  0.61176522053E+03  0.62440485862E+03  0.12499896965E+03 0.  0.
    9000005    1    3    3    0    0  0.52942913924E+02  0.59411477561E+01  0.46904838686E+03  0.47206529060E+03  0.10000000000E+01 0.  0.
    9000005    1    3    3    0    0 -0.52942913924E+02 -0.59411477561E+01  0.14271683368E+03  0.15233956802E+03  0.10000000000E+01 0.  0.
<mgrwt>
<rscale>  0 0.12499897E+03</rscale>
<asrwt>0</asrwt>
<pdfrwt beam="1">  1        4 0.95090035E-01 0.12499897E+03</pdfrwt>
<pdfrwt beam="2">  1       -4 0.97227956E-03 0.12499897E+03</pdfrwt>
<totfact> 0.47363531E+03</totfact>
</mgrwt>
</event>
<event>
 5    1  0.3269032E-002  0.1249962E+03  0.7818608E-02  0.1235075E+00
         -4   -1    0    0    0  501 -0.00000000000E+00  0.00000000000E+00  0.37188748499E+02  0.37210427503E+02  0.12700000000E+01 0.  1.
          4   -1    0    0  501    0  0.00000000000E+00 -0.00000000000E+00 -0.10497592017E+03  0.10498360212E+03  0.12700000000E+01 0.  1.
         25    2    1    2    0    0  0.00000000000E+00  0.00000000000E+00 -0.67787171666E+02  0.14219402962E+03  0.12499616562E+03 0.  0.
    9000005    1    3    3    0    0  0.37124648699E+01  0.61097712999E+02 -0.48206286772E+02  0.77920209275E+02  0.10000000000E+01 0.  0.
    9000005    1    3    3    0    0 -0.37124648699E+01 -0.61097712999E+02 -0.19580884895E+02  0.64273820350E+02  0.10000000000E+01 0.  0.
<mgrwt>
<rscale>  0 0.12499617E+03</rscale>
<asrwt>0</asrwt>
<pdfrwt beam="2">  1        4 0.16152400E-01 0.12499617E+03</pdfrwt>
<pdfrwt beam="1">  1       -4 0.57236045E-02 0.12499617E+03</pdfrwt>
<totfact> 0.10089186E+04</totfact>
</mgrwt>
</event>
<event>
 5    1  0.3269032E-002  0.1249998E+03  0.7818608E-02  0.1235070E+00
          4   -1    0    0  501    0  0.00000000000E+00  0.00000000000E+00  0.17053039361E+03  0.17053512262E+03  0.12700000000E+01 0. -1.
         -4   -1    0    0    0  501 -0.00000000000E+00 -0.00000000000E+00 -0.22883742004E+02  0.22918956086E+02  0.12700000000E+01 0. -1.
         25    2    1    2    0    0  0.00000000000E+00  0.00000000000E+00  0.14764665161E+03  0.19345407870E+03  0.12499978734E+03 0.  0.
    9000005    1    3    3    0    0  0.10656582066E+02 -0.29666454172E+02 -0.96855509031E+01  0.32991986008E+02  0.10000000000E+01 0.  0.
    9000005    1    3    3    0    0 -0.10656582066E+02  0.29666454172E+02  0.15733220251E+03  0.16046209270E+03  0.10000000000E+01 0.  0.
<mgrwt>
<rscale>  0 0.12499979E+03</rscale>
<asrwt>0</asrwt>
<pdfrwt beam="1">  1        4 0.26238518E-01 0.12499979E+03</pdfrwt>
<pdfrwt beam="2">  1       -4 0.35236482E-02 0.12499979E+03</pdfrwt>
<totfact> 0.91250199E+03</totfact>
</mgrwt>
</event>
<event>
 5    1  0.3269032E-002  0.1249988E+03  0.7818608E-02  0.1235071E+00
         -4   -1    0    0    0  501 -0.00000000000E+00  0.00000000000E+00  0.68437269614E+02  0.68449052384E+02  0.12700000000E+01 0.  1.
          4   -1    0    0  501    0  0.00000000000E+00 -0.00000000000E+00 -0.57052951831E+02  0.57067085195E+02  0.12700000000E+01 0.  1.
         25    2    1    2    0    0  0.00000000000E+00  0.00000000000E+00  0.11384317783E+02  0.12551613758E+03  0.12499879240E+03 0.  0.
    9000005    1    3    3    0    0  0.47777067017E+02  0.65433174659E+01  0.45602241234E+02  0.66377914563E+02  0.10000000000E+01 0.  0.
    9000005    1    3    3    0    0 -0.47777067017E+02 -0.65433174659E+01 -0.34217923450E+02  0.59138223016E+02  0.10000000000E+01 0.  0.
<mgrwt>
<rscale>  0 0.12499879E+03</rscale>
<asrwt>0</asrwt>
<pdfrwt beam="2">  1        4 0.87793708E-02 0.12499879E+03</pdfrwt>
<pdfrwt beam="1">  1       -4 0.10530804E-01 0.12499879E+03</pdfrwt>
<totfact> 0.10441882E+04</totfact>
</mgrwt>
</event>
<event>
 5    1  0.3269032E-002  0.1250023E+03  0.7818608E-02  0.1235066E+00
          4   -1    0    0  501    0  0.00000000000E+00  0.00000000000E+00  0.27933827700E+02  0.27962682811E+02  0.12700000000E+01 0. -1.
         -4   -1    0    0    0  501 -0.00000000000E+00 -0.00000000000E+00 -0.13974067594E+03  0.13974644687E+03  0.12700000000E+01 0. -1.
         25    2    1    2    0    0  0.00000000000E+00  0.00000000000E+00 -0.11180684824E+03  0.16770912968E+03  0.12500232344E+03 0.  0.
    9000005    1    3    3    0    0  0.56698484828E+02  0.14024773394E+02 -0.26084325015E+02  0.63975029989E+02  0.10000000000E+01 0.  0.
    9000005    1    3    3    0    0 -0.56698484828E+02 -0.14024773394E+02 -0.85722523226E+02  0.10373409969E+03  0.10000000000E+01 0.  0.
<mgrwt>
<rscale>  0 0.12500232E+03</rscale>
<asrwt>0</asrwt>
<pdfrwt beam="1">  1        4 0.43001756E-02 0.12500232E+03</pdfrwt>
<pdfrwt beam="2">  1       -4 0.21501229E-01 0.12500232E+03</pdfrwt>
<totfact> 0.95871770E+03</totfact>
</mgrwt>
</event>
<event>
 5    1  0.3269032E-002  0.1250032E+03  0.7818608E-02  0.1235064E+00
          4   -1    0    0  501    0  0.00000000000E+00  0.00000000000E+00  0.60604244458E+02  0.60617549821E+02  0.12700000000E+01 0.  1.
         -4   -1    0    0    0  501 -0.00000000000E+00 -0.00000000000E+00 -0.64431744655E+02  0.64444259785E+02  0.12700000000E+01 0.  1.
         25    2    1    2    0    0  0.00000000000E+00  0.00000000000E+00 -0.38275001965E+01  0.12506180961E+03  0.12500322582E+03 0.  0.
    9000005    1    3    3    0    0 -0.40961372656E+01  0.62275876460E+02  0.13108779763E+01  0.62432215486E+02  0.10000000000E+01 0.  0.
    9000005    1    3    3    0    0  0.40961372656E+01 -0.62275876460E+02 -0.51383781727E+01  0.62629594120E+02  0.10000000000E+01 0.  0.
<mgrwt>
<rscale>  0 0.12500323E+03</rscale>
<asrwt>0</asrwt>
<pdfrwt beam="1">  1        4 0.93257161E-02 0.12500323E+03</pdfrwt>
<pdfrwt beam="2">  1       -4 0.99145624E-02 0.12500323E+03</pdfrwt>
<totfact> 0.10450758E+04</totfact>
</mgrwt>
</event>
<event>
 5    1  0.3269032E-002  0.1250061E+03  0.7818608E-02  0.1235060E+00
         -4   -1    0    0    0  501 -0.00000000000E+00  0.00000000000E+00  0.49323350183E+03  0.49323513685E+03  0.12700000000E+01 0.  1.
          4   -1    0    0  501    0  0.00000000000E+00 -0.00000000000E+00 -0.78678789056E+01  0.79697188453E+01  0.12700000000E+01 0.  1.
         25    2    1    2    0    0  0.00000000000E+00  0.00000000000E+00  0.48536562292E+03  0.50120485570E+03  0.12500607769E+03 0.  0.
    9000005    1    3    3    0    0 -0.31007153991E+02 -0.37562477245E+02  0.85686249460E+02  0.98567320354E+02  0.10000000000E+01 0.  0.
    9000005    1    3    3    0    0  0.31007153991E+02  0.37562477245E+02  0.39967937347E+03  0.40263753535E+03  0.10000000000E+01 0.  0.
<mgrwt>
<rscale>  0 0.12500608E+03</rscale>
<asrwt>0</asrwt>
<pdfrwt beam="2">  1        4 0.12184022E-02 0.12500608E+03</pdfrwt>
<pdfrwt beam="1">  1       -4 0.75890054E-01 0.12500608E+03</pdfrwt>
<totfact> 0.55763544E+03</totfact>
</mgrwt>
</event>
<event>
 5    1  0.3269032E-002  0.1250160E+03  0.7818608E-02  0.1235044E+00
          4   -1    0    0  501    0  0.00000000000E+00  0.00000000000E+00  0.19767254711E+03  0.19767662679E+03  0.12700000000E+01 0. -1.
         -4   -1    0    0    0  501 -0.00000000000E+00 -0.00000000000E+00 -0.19741597572E+02  0.19782405685E+02  0.12700000000E+01 0. -1.
         25    2    1    2    0    0  0.00000000000E+00  0.00000000000E+00  0.17793094953E+03  0.21745903248E+03  0.12501603099E+03 0.  0.
    9000005    1    3    3    0    0 -0.99656867014E+01  0.31898561806E+02 -0.29034450194E+01  0.33559844304E+02  0.10000000000E+01 0.  0.
    9000005    1    3    3    0    0  0.99656867014E+01 -0.31898561806E+02  0.18083439455E+03  0.18389918817E+03  0.10000000000E+01 0.  0.
<mgrwt>
<rscale>  0 0.12501603E+03</rscale>
<asrwt>0</asrwt>
<pdfrwt beam="1">  1        4 0.30414616E-01 0.12501603E+03</pdfrwt>
<pdfrwt beam="2">  1       -4 0.30406216E-02 0.12501603E+03</pdfrwt>
<totfact> 0.87240776E+03</totfact>
</mgrwt>
</event>
<event>
 5    1  0.3269032E-002  0.1250002E+03  0.7818608E-02  0.1235069E+00
          4   -1    0    0  501    0  0.00000000000E+00  0.00000000000E+00  0.59321738289E+01  0.60665959431E+01  0.12700000000E+01 0.  1.
         -4   -1    0    0    0  501 -0.00000000000E+00 -0.00000000000E+00 -0.65097596518E+03  0.65097720401E+03  0.12700000000E+01 0.  1.
         25    2    1    2    0    0  0.00000000000E+00  0.00000000000E+00 -0.64504379135E+03  0.65704379995E+03  0.12500024919E+03 0.  0.
    9000005    1    3    3    0    0 -0.20536097716E+02 -0.57999169576E+02 -0.38001351899E+03  0.38496351723E+03  0.10000000000E+01 0.  0.
    9000005    1    3    3    0    0  0.20536097716E+02  0.57999169576E+02 -0.26503027236E+03  0.27208028272E+03  0.10000000000E+01 0.  0.
<mgrwt>
<rscale>  0 0.12500025E+03</rscale>
<asrwt>0</asrwt>
<pdfrwt beam="1">  1        4 0.92307810E-03 0.12500025E+03</pdfrwt>
<pdfrwt beam="2">  1       -4 0.10016053E+00 0.12500025E+03</pdfrwt>
<totfact> 0.45452884E+03</totfact>
</mgrwt>
</event>
<event>
 5    1  0.3269032E-002  0.1250033E+03  0.7818608E-02  0.1235064E+00
          4   -1    0    0  501    0  0.00000000000E+00  0.00000000000E+00  0.35091029855E+02  0.35114003991E+02  0.12700000000E+01 0. -1.
         -4   -1    0    0    0  501 -0.00000000000E+00 -0.00000000000E+00 -0.11126046177E+03  0.11126770984E+03  0.12700000000E+01 0. -1.
         25    2    1    2    0    0  0.00000000000E+00  0.00000000000E+00 -0.76169431912E+02  0.14638171383E+03  0.12500329510E+03 0.  0.
    9000005    1    3    3    0    0  0.33120928844E+02  0.25946572638E+02  0.16026618651E+02  0.45034132217E+02  0.10000000000E+01 0.  0.
    9000005    1    3    3    0    0 -0.33120928844E+02 -0.25946572638E+02 -0.92196050563E+02  0.10134758161E+03  0.10000000000E+01 0.  0.
<mgrwt>
<rscale>  0 0.12500330E+03</rscale>
<asrwt>0</asrwt>
<pdfrwt beam="1">  1        4 0.54009448E-02 0.12500330E+03</pdfrwt>
<pdfrwt beam="2">  1       -4 0.17119319E-01 0.12500330E+03</pdfrwt>
<totfact> 0.10002248E+04</totfact>
</mgrwt>
</event>
<event>
 5    1  0.3269032E-002  0.1250148E+03  0.7818608E-02  0.1235046E+00
         -4   -1    0    0    0  501 -0.00000000000E+00  0.00000000000E+00  0.36739515447E+03  0.36739734951E+03  0.12700000000E+01 0. -1.
          4   -1    0    0  501    0  0.00000000000E+00 -0.00000000000E+00 -0.10594646752E+02  0.10670493888E+02  0.12700000000E+01 0. -1.
         25    2    1    2    0    0  0.00000000000E+00  0.00000000000E+00  0.35680050771E+03  0.37806784340E+03  0.12501476675E+03 0.  0.
    9000005    1    3    3    0    0 -0.42944448760E+02 -0.45084857393E+02  0.19477082964E+03  0.20448360845E+03  0.10000000000E+01 0.  0.
    9000005    1    3    3    0    0  0.42944448760E+02  0.45084857393E+02  0.16202967807E+03  0.17358423495E+03  0.10000000000E+01 0.  0.
<mgrwt>
<rscale>  0 0.12501477E+03</rscale>
<asrwt>0</asrwt>
<pdfrwt beam="2">  1        4 0.16359487E-02 0.12501477E+03</pdfrwt>
<pdfrwt beam="1">  1       -4 0.56528343E-01 0.12501477E+03</pdfrwt>
<totfact> 0.66721468E+03</totfact>
</mgrwt>
</event>
<event>
 5    1  0.3269032E-002  0.1250080E+03  0.7818608E-02  0.1235057E+00
         -4   -1    0    0    0  501 -0.00000000000E+00  0.00000000000E+00  0.31329592589E+03  0.31329849996E+03  0.12700000000E+01 0. -1.
          4   -1    0    0  501    0  0.00000000000E+00 -0.00000000000E+00 -0.12434877732E+02  0.12499563361E+02  0.12700000000E+01 0. -1.
         25    2    1    2    0    0  0.00000000000E+00  0.00000000000E+00  0.30086104816E+03  0.32579806332E+03  0.12500803081E+03 0.  0.
    9000005    1    3    3    0    0  0.11250381189E+02 -0.58726852850E+02  0.10306202743E+03  0.11915618247E+03  0.10000000000E+01 0.  0.
    9000005    1    3    3    0    0 -0.11250381189E+02  0.58726852850E+02  0.19779902073E+03  0.20664188086E+03  0.10000000000E+01 0.  0.
<mgrwt>
<rscale>  0 0.12500803E+03</rscale>
<asrwt>0</asrwt>
<pdfrwt beam="2">  1        4 0.19182323E-02 0.12500803E+03</pdfrwt>
<pdfrwt beam="1">  1       -4 0.48204539E-01 0.12500803E+03</pdfrwt>
<totfact> 0.72458897E+03</totfact>
</mgrwt>
</event>
<event>
 5    1  0.3269032E-002  0.1250006E+03  0.7818608E-02  0.1235068E+00
          4   -1    0    0  501    0  0.00000000000E+00  0.00000000000E+00  0.51811699565E+02  0.51827262245E+02  0.12700000000E+01 0.  1.
         -4   -1    0    0    0  501 -0.00000000000E+00 -0.00000000000E+00 -0.75361722131E+02  0.75372422427E+02  0.12700000000E+01 0.  1.
         25    2    1    2    0    0  0.00000000000E+00  0.00000000000E+00 -0.23550022566E+02  0.12719968467E+03  0.12500062487E+03 0.  0.
    9000005    1    3    3    0    0  0.40389261101E+02  0.22162824393E+02  0.31191082968E+02  0.55645007449E+02  0.10000000000E+01 0.  0.
    9000005    1    3    3    0    0 -0.40389261101E+02 -0.22162824393E+02 -0.54741105534E+02  0.71554677223E+02  0.10000000000E+01 0.  0.
<mgrwt>
<rscale>  0 0.12500062E+03</rscale>
<asrwt>0</asrwt>
<pdfrwt beam="1">  1        4 0.79730509E-02 0.12500062E+03</pdfrwt>
<pdfrwt beam="2">  1       -4 0.11596131E-01 0.12500062E+03</pdfrwt>
<totfact> 0.10404664E+04</totfact>
</mgrwt>
</event>
<event>
 5    1  0.3269032E-002  0.1249968E+03  0.7818608E-02  0.1235074E+00
          4   -1    0    0  501    0  0.00000000000E+00  0.00000000000E+00  0.11704269991E+02  0.11772970569E+02  0.12700000000E+01 0.  1.
         -4   -1    0    0    0  501 -0.00000000000E+00 -0.00000000000E+00 -0.33268189048E+03  0.33268431456E+03  0.12700000000E+01 0.  1.
         25    2    1    2    0    0  0.00000000000E+00  0.00000000000E+00 -0.32097762049E+03  0.34445728513E+03  0.12499675365E+03 0.  0.
    9000005    1    3    3    0    0 -0.49201041975E+02 -0.36406443877E+02 -0.12575399493E+03  0.13986149909E+03  0.10000000000E+01 0.  0.
    9000005    1    3    3    0    0  0.49201041975E+02  0.36406443877E+02 -0.19522362556E+03  0.20459578604E+03  0.10000000000E+01 0.  0.
<mgrwt>
<rscale>  0 0.12499675E+03</rscale>
<asrwt>0</asrwt>
<pdfrwt beam="1">  1        4 0.18061283E-02 0.12499675E+03</pdfrwt>
<pdfrwt beam="2">  1       -4 0.51187293E-01 0.12499675E+03</pdfrwt>
<totfact> 0.70343715E+03</totfact>
</mgrwt>
</event>
<event>
 5    1  0.3269032E-002  0.1250090E+03  0.7818608E-02  0.1235055E+00
          4   -1    0    0  501    0  0.00000000000E+00  0.00000000000E+00  0.93246857751E+03  0.93246944237E+03  0.12700000000E+01 0.  1.
         -4   -1    0    0    0  501 -0.00000000000E+00 -0.00000000000E+00 -0.40926248160E+01  0.42851461918E+01  0.12700000000E+01 0.  1.
         25    2    1    2    0    0  0.00000000000E+00  0.00000000000E+00  0.92837595270E+03  0.93675458856E+03  0.12500899824E+03 0.  0.
    9000005    1    3    3    0    0  0.61232893995E+02 -0.12413460144E+02  0.45294495710E+03  0.45723483623E+03  0.10000000000E+01 0.  0.
    9000005    1    3    3    0    0 -0.61232893995E+02  0.12413460144E+02  0.47543099560E+03  0.47951975233E+03  0.10000000000E+01 0.  0.
<mgrwt>
<rscale>  0 0.12500900E+03</rscale>
<asrwt>0</asrwt>
<pdfrwt beam="1">  1        4 0.14347166E+00 0.12500900E+03</pdfrwt>
<pdfrwt beam="2">  1       -4 0.64451010E-03 0.12500900E+03</pdfrwt>
<totfact> 0.32784498E+03</totfact>
</mgrwt>
</event>
<event>
 5    1  0.3269032E-002  0.1250018E+03  0.7818608E-02  0.1235066E+00
          4   -1    0    0  501    0  0.00000000000E+00  0.00000000000E+00  0.32320972693E+03  0.32321222205E+03  0.12700000000E+01 0. -1.
         -4   -1    0    0    0  501 -0.00000000000E+00 -0.00000000000E+00 -0.12050247481E+02  0.12116986604E+02  0.12700000000E+01 0. -1.
         25    2    1    2    0    0  0.00000000000E+00  0.00000000000E+00  0.31115947945E+03  0.33532920866E+03  0.12500182609E+03 0.  0.
    9000005    1    3    3    0    0  0.34943788565E+02  0.14339445850E+02  0.22023275466E+02  0.43734571323E+02  0.10000000000E+01 0.  0.
    9000005    1    3    3    0    0 -0.34943788565E+02 -0.14339445850E+02  0.28913620399E+03  0.29159463733E+03  0.10000000000E+01 0.  0.
<mgrwt>
<rscale>  0 0.12500183E+03</rscale>
<asrwt>0</asrwt>
<pdfrwt beam="1">  1        4 0.49729896E-01 0.12500183E+03</pdfrwt>
<pdfrwt beam="2">  1       -4 0.18592100E-02 0.12500183E+03</pdfrwt>
<totfact> 0.71366375E+03</totfact>
</mgrwt>
</event>
<event>
 5    1  0.3269032E-002  0.1250005E+03  0.7818608E-02  0.1235068E+00
          4   -1    0    0  501    0  0.00000000000E+00  0.00000000000E+00  0.53430247807E+02  0.53445339186E+02  0.12700000000E+01 0. -1.
         -4   -1    0    0    0  501 -0.00000000000E+00 -0.00000000000E+00 -0.73079005181E+02  0.73090039665E+02  0.12700000000E+01 0. -1.
         25    2    1    2    0    0  0.00000000000E+00  0.00000000000E+00 -0.19648757374E+02  0.12653537885E+03  0.12500051374E+03 0.  0.
    9000005    1    3    3    0    0  0.18229277671E+02 -0.18122556035E+02 -0.67484733102E+02  0.72221345899E+02  0.10000000000E+01 0.  0.
    9000005    1    3    3    0    0 -0.18229277671E+02  0.18122556035E+02  0.47835975728E+02  0.54314032952E+02  0.10000000000E+01 0.  0.
<mgrwt>
<rscale>  0 0.12500051E+03</rscale>
<asrwt>0</asrwt>
<pdfrwt beam="1">  1        4 0.82220478E-02 0.12500051E+03</pdfrwt>
<pdfrwt beam="2">  1       -4 0.11244934E-01 0.12500051E+03</pdfrwt>
<totfact> 0.10419136E+04</totfact>
</mgrwt>
</event>
<event>
 5    1  0.3269032E-002  0.1249888E+03  0.7818608E-02  0.1235087E+00
          4   -1    0    0  501    0  0.00000000000E+00  0.00000000000E+00  0.30404850409E+01  0.32950643824E+01  0.12700000000E+01 0.  1.
         -4   -1    0    0    0  501 -0.00000000000E+00 -0.00000000000E+00 -0.12326449874E+04  0.12326456416E+04  0.12700000000E+01 0.  1.
         25    2    1    2    0    0  0.00000000000E+00  0.00000000000E+00 -0.12296045023E+04  0.12359407060E+04  0.12498878585E+03 0.  0.
    9000005    1    3    3    0    0 -0.61378511889E+02 -0.11706660233E+02 -0.61058914006E+03  0.61377884093E+03  0.10000000000E+01 0.  0.
    9000005    1    3    3    0    0  0.61378511889E+02  0.11706660233E+02 -0.61901536226E+03  0.62216186506E+03  0.10000000000E+01 0.  0.
<mgrwt>
<rscale>  0 0.12498879E+03</rscale>
<asrwt>0</asrwt>
<pdfrwt beam="1">  1        4 0.48740127E-03 0.12498879E+03</pdfrwt>
<pdfrwt beam="2">  1       -4 0.18965694E+00 0.12498879E+03</pdfrwt>
<totfact> 0.23796796E+03</totfact>
</mgrwt>
</event>
<event>
 5    1  0.3269032E-002  0.1249999E+03  0.7818608E-02  0.1235070E+00
          4   -1    0    0  501    0  0.00000000000E+00  0.00000000000E+00  0.14823206405E+03  0.14823750441E+03  0.12700000000E+01 0.  1.
         -4   -1    0    0    0  501 -0.00000000000E+00 -0.00000000000E+00 -0.26330968658E+02  0.26361578300E+02  0.12700000000E+01 0.  1.
         25    2    1    2    0    0  0.00000000000E+00  0.00000000000E+00  0.12190109539E+03  0.17459908271E+03  0.12499985050E+03 0.  0.
    9000005    1    3    3    0    0 -0.17983561751E+02 -0.38104940493E+02  0.12541295681E+03  0.13230572444E+03  0.10000000000E+01 0.  0.
    9000005    1    3    3    0    0  0.17983561751E+02  0.38104940493E+02 -0.35118614144E+01  0.42293358271E+02  0.10000000000E+01 0.  0.
<mgrwt>
<rscale>  0 0.12499985E+03</rscale>
<asrwt>0</asrwt>
<pdfrwt beam="1">  1        4 0.22807706E-01 0.12499985E+03</pdfrwt>
<pdfrwt beam="2">  1       -4 0.40536913E-02 0.12499985E+03</pdfrwt>
<totfact> 0.94598636E+03</totfact>
</mgrwt>
</event>
<event>
 5    1  0.3269032E-002  0.1249991E+03  0.7818608E-02  0.1235071E+00
          4   -1    0    0  501    0  0.00000000000E+00  0.00000000000E+00  0.34930303824E+01  0.37167406760E+01  0.12700000000E+01 0. -1.
         -4   -1    0    0    0  501 -0.00000000000E+00 -0.00000000000E+00 -0.10833586970E+04  0.10833594414E+04  0.12700000000E+01 0. -1.
         25    2    1    2    0    0  0.00000000000E+00  0.00000000000E+00 -0.10798656667E+04  0.10870761821E+04  0.12499907077E+03 0.  0.
    9000005    1    3    3    0    0  0.75138334591E+01  0.36288325291E+02 -0.97753126469E+03  0.97823395652E+03  0.10000000000E+01 0.  0.
    9000005    1    3    3    0    0 -0.75138334591E+01 -0.36288325291E+02 -0.10233440197E+03  0.10884222559E+03  0.10000000000E+01 0.  0.
<mgrwt>
<rscale>  0 0.12499907E+03</rscale>
<asrwt>0</asrwt>
<pdfrwt beam="1">  1        4 0.55465590E-03 0.12499907E+03</pdfrwt>
<pdfrwt beam="2">  1       -4 0.16668758E+00 0.12499907E+03</pdfrwt>
<totfact> 0.27865355E+03</totfact>
</mgrwt>
</event>
<event>
 5    1  0.3269032E-002  0.1250008E+03  0.7818608E-02  0.1235068E+00
          4   -1    0    0  501    0  0.00000000000E+00  0.00000000000E+00  0.30718812910E+02  0.30745054343E+02  0.12700000000E+01 0.  1.
         -4   -1    0    0    0  501 -0.00000000000E+00 -0.00000000000E+00 -0.12707942337E+03  0.12708576924E+03  0.12700000000E+01 0.  1.
         25    2    1    2    0    0  0.00000000000E+00  0.00000000000E+00 -0.96360610458E+02  0.15783082358E+03  0.12500080650E+03 0.  0.
    9000005    1    3    3    0    0 -0.41596048645E+02 -0.46187507569E+02 -0.40018611123E+02  0.73932444533E+02  0.10000000000E+01 0.  0.
    9000005    1    3    3    0    0  0.41596048645E+02  0.46187507569E+02 -0.56341999335E+02  0.83898379051E+02  0.10000000000E+01 0.  0.
<mgrwt>
<rscale>  0 0.12500081E+03</rscale>
<asrwt>0</asrwt>
<pdfrwt beam="1">  1        4 0.47284780E-02 0.12500081E+03</pdfrwt>
<pdfrwt beam="2">  1       -4 0.19553187E-01 0.12500081E+03</pdfrwt>
<totfact> 0.97760850E+03</totfact>
</mgrwt>
</event>
<event>
 5    1  0.3269032E-002  0.1249982E+03  0.7818608E-02  0.1235072E+00
         -4   -1    0    0    0  501 -0.00000000000E+00  0.00000000000E+00  0.18471564477E+03  0.18472001062E+03  0.12700000000E+01 0. -1.
          4   -1    0    0  501    0  0.00000000000E+00 -0.00000000000E+00 -0.21123055650E+02  0.21161199871E+02  0.12700000000E+01 0. -1.
         25    2    1    2    0    0  0.00000000000E+00  0.00000000000E+00  0.16359258912E+03  0.20588121049E+03  0.12499815046E+03 0.  0.
    9000005    1    3    3    0    0  0.31912262074E+02 -0.53554528883E+02  0.88910123506E+02  0.10859323228E+03  0.10000000000E+01 0.  0.
    9000005    1    3    3    0    0 -0.31912262074E+02  0.53554528883E+02  0.74682465614E+02  0.97287978212E+02  0.10000000000E+01 0.  0.
<mgrwt>
<rscale>  0 0.12499815E+03</rscale>
<asrwt>0</asrwt>
<pdfrwt beam="2">  1        4 0.32529709E-02 0.12499815E+03</pdfrwt>
<pdfrwt beam="1">  1       -4 0.28421061E-01 0.12499815E+03</pdfrwt>
<totfact> 0.89156669E+03</totfact>
</mgrwt>
</event>
<event>
 5    1  0.3269032E-002  0.1249993E+03  0.7818608E-02  0.1235070E+00
          4   -1    0    0  501    0  0.00000000000E+00  0.00000000000E+00  0.17505162566E+03  0.17505623252E+03  0.12700000000E+01 0.  1.
         -4   -1    0    0    0  501 -0.00000000000E+00 -0.00000000000E+00 -0.22291608335E+02  0.22327756317E+02  0.12700000000E+01 0.  1.
         25    2    1    2    0    0  0.00000000000E+00  0.00000000000E+00  0.15276001732E+03  0.19738398884E+03  0.12499926463E+03 0.  0.
    9000005    1    3    3    0    0 -0.34935010869E+02  0.50876393311E+02  0.60880728696E+02  0.86696744502E+02  0.10000000000E+01 0.  0.
    9000005    1    3    3    0    0  0.34935010869E+02 -0.50876393311E+02  0.91879288627E+02  0.11068724434E+03  0.10000000000E+01 0.  0.
<mgrwt>
<rscale>  0 0.12499926E+03</rscale>
<asrwt>0</asrwt>
<pdfrwt beam="1">  1        4 0.26934155E-01 0.12499926E+03</pdfrwt>
<pdfrwt beam="2">  1       -4 0.34326131E-02 0.12499926E+03</pdfrwt>
<totfact> 0.90579651E+03</totfact>
</mgrwt>
</event>
<event>
 5    1  0.3269032E-002  0.1250036E+03  0.7818608E-02  0.1235064E+00
          4   -1    0    0  501    0  0.00000000000E+00  0.00000000000E+00  0.22484330353E+01  0.25823150687E+01  0.12700000000E+01 0.  1.
         -4   -1    0    0    0  501 -0.00000000000E+00 -0.00000000000E+00 -0.16170046194E+04  0.16170051182E+04  0.12700000000E+01 0.  1.
         25    2    1    2    0    0  0.00000000000E+00  0.00000000000E+00 -0.16147561864E+04  0.16195874332E+04  0.12500364945E+03 0.  0.
    9000005    1    3    3    0    0  0.35921902680E+02 -0.41769509836E+02 -0.42513300984E+03  0.42868887448E+03  0.10000000000E+01 0.  0.
    9000005    1    3    3    0    0 -0.35921902680E+02  0.41769509836E+02 -0.11896231766E+04  0.11908985588E+04  0.10000000000E+01 0.  0.
<mgrwt>
<rscale>  0 0.12500365E+03</rscale>
<asrwt>0</asrwt>
<pdfrwt beam="1">  1        4 0.37163566E-03 0.12500365E+03</pdfrwt>
<pdfrwt beam="2">  1       -4 0.24879480E+00 0.12500365E+03</pdfrwt>
<totfact> 0.15693490E+03</totfact>
</mgrwt>
</event>
<event>
 5    1  0.3269032E-002  0.1250044E+03  0.7818608E-02  0.1235062E+00
          4   -1    0    0  501    0  0.00000000000E+00  0.00000000000E+00  0.11651693382E+02  0.11720702141E+02  0.12700000000E+01 0. -1.
         -4   -1    0    0    0  501 -0.00000000000E+00 -0.00000000000E+00 -0.33421507218E+03  0.33421748514E+03  0.12700000000E+01 0. -1.
         25    2    1    2    0    0  0.00000000000E+00  0.00000000000E+00 -0.32256337880E+03  0.34593818728E+03  0.12500438423E+03 0.  0.
    9000005    1    3    3    0    0 -0.62140387456E+02  0.19541607639E+01 -0.17884492917E+03  0.18934559722E+03  0.10000000000E+01 0.  0.
    9000005    1    3    3    0    0  0.62140387456E+02 -0.19541607639E+01 -0.14371844963E+03  0.15659259006E+03  0.10000000000E+01 0.  0.
<mgrwt>
<rscale>  0 0.12500438E+03</rscale>
<asrwt>0</asrwt>
<pdfrwt beam="1">  1        4 0.17980624E-02 0.12500438E+03</pdfrwt>
<pdfrwt beam="2">  1       -4 0.51423190E-01 0.12500438E+03</pdfrwt>
<totfact> 0.70166922E+03</totfact>
</mgrwt>
</event>
<event>
 5    1  0.3269032E-002  0.1250000E+03  0.7818608E-02  0.1235069E+00
          4   -1    0    0  501    0  0.00000000000E+00  0.00000000000E+00  0.62622586108E+01  0.63897404414E+01  0.12700000000E+01 0. -1.
         -4   -1    0    0    0  501 -0.00000000000E+00 -0.00000000000E+00 -0.61736342371E+03  0.61736472999E+03  0.12700000000E+01 0. -1.
         25    2    1    2    0    0  0.00000000000E+00  0.00000000000E+00 -0.61110116510E+03  0.62375447043E+03  0.12500002159E+03 0.  0.
    9000005    1    3    3    0    0 -0.26420537230E+02 -0.44822189357E+02 -0.47827917586E+03  0.48110190554E+03  0.10000000000E+01 0.  0.
    9000005    1    3    3    0    0  0.26420537230E+02  0.44822189357E+02 -0.13282198923E+03  0.14265256489E+03  0.10000000000E+01 0.  0.
<mgrwt>
<rscale>  0 0.12500002E+03</rscale>
<asrwt>0</asrwt>
<pdfrwt beam="1">  1        4 0.97333167E-03 0.12500002E+03</pdfrwt>
<pdfrwt beam="2">  1       -4 0.94988847E-01 0.12500002E+03</pdfrwt>
<totfact> 0.47401684E+03</totfact>
</mgrwt>
</event>
<event>
 5    1  0.3269032E-002  0.1249984E+03  0.7818608E-02  0.1235072E+00
          4   -1    0    0  501    0  0.00000000000E+00  0.00000000000E+00  0.14397401712E+02  0.14453306752E+02  0.12700000000E+01 0. -1.
         -4   -1    0    0    0  501 -0.00000000000E+00 -0.00000000000E+00 -0.27072619936E+03  0.27072917819E+03  0.12700000000E+01 0. -1.
         25    2    1    2    0    0  0.00000000000E+00  0.00000000000E+00 -0.25632879765E+03  0.28518248494E+03  0.12499838883E+03 0.  0.
    9000005    1    3    3    0    0 -0.45656084844E+02 -0.41857585267E+02 -0.10926603999E+03  0.12560494825E+03  0.10000000000E+01 0.  0.
    9000005    1    3    3    0    0  0.45656084844E+02  0.41857585267E+02 -0.14706275766E+03  0.15957753669E+03  0.10000000000E+01 0.  0.
<mgrwt>
<rscale>  0 0.12499839E+03</rscale>
<asrwt>0</asrwt>
<pdfrwt beam="1">  1        4 0.22195146E-02 0.12499839E+03</pdfrwt>
<pdfrwt beam="2">  1       -4 0.41654710E-01 0.12499839E+03</pdfrwt>
<totfact> 0.77498702E+03</totfact>
</mgrwt>
</event>
<event>
 5    1  0.3269032E-002  0.1249942E+03  0.7818608E-02  0.1235078E+00
          4   -1    0    0  501    0  0.00000000000E+00  0.00000000000E+00  0.11110581425E+04  0.11110588683E+04  0.12700000000E+01 0. -1.
         -4   -1    0    0    0  501 -0.00000000000E+00 -0.00000000000E+00 -0.34000181087E+01  0.36294659578E+01  0.12700000000E+01 0. -1.
         25    2    1    2    0    0  0.00000000000E+00  0.00000000000E+00  0.11076581244E+04  0.11146883343E+04  0.12499424822E+03 0.  0.
    9000005    1    3    3    0    0  0.49861825431E+02 -0.27778214149E+02  0.78067740190E+03  0.78276180071E+03  0.10000000000E+01 0.  0.
    9000005    1    3    3    0    0 -0.49861825431E+02  0.27778214149E+02  0.32698072247E+03  0.33192653356E+03  0.10000000000E+01 0.  0.
<mgrwt>
<rscale>  0 0.12499425E+03</rscale>
<asrwt>0</asrwt>
<pdfrwt beam="1">  1        4 0.17094965E+00 0.12499425E+03</pdfrwt>
<pdfrwt beam="2">  1       -4 0.54078561E-03 0.12499425E+03</pdfrwt>
<totfact> 0.27060848E+03</totfact>
</mgrwt>
</event>
<event>
 5    1  0.3269032E-002  0.1249999E+03  0.7818608E-02  0.1235069E+00
         -4   -1    0    0    0  501 -0.00000000000E+00  0.00000000000E+00  0.25669871654E+02  0.25701268660E+02  0.12700000000E+01 0. -1.
          4   -1    0    0  501    0  0.00000000000E+00 -0.00000000000E+00 -0.15204517155E+03  0.15205047548E+03  0.12700000000E+01 0. -1.
         25    2    1    2    0    0  0.00000000000E+00  0.00000000000E+00 -0.12637529990E+03  0.17775174414E+03  0.12499986447E+03 0.  0.
    9000005    1    3    3    0    0  0.24219131609E+02  0.56865699088E+02 -0.76295475388E+02  0.98195079476E+02  0.10000000000E+01 0.  0.
    9000005    1    3    3    0    0 -0.24219131609E+02 -0.56865699088E+02 -0.50079824511E+02  0.79556664659E+02  0.10000000000E+01 0.  0.
<mgrwt>
<rscale>  0 0.12499986E+03</rscale>
<asrwt>0</asrwt>
<pdfrwt beam="2">  1        4 0.23394387E-01 0.12499986E+03</pdfrwt>
<pdfrwt beam="1">  1       -4 0.39520343E-02 0.12499986E+03</pdfrwt>
<totfact> 0.94023555E+03</totfact>
</mgrwt>
</event>
<event>
 5    1  0.3269032E-002  0.1250008E+03  0.7818608E-02  0.1235068E+00
         -4   -1    0    0    0  501 -0.00000000000E+00  0.00000000000E+00  0.96736191127E+01  0.97566288614E+01  0.12700000000E+01 0.  1.
          4   -1    0    0  501    0  0.00000000000E+00 -0.00000000000E+00 -0.40200059370E+03  0.40200259979E+03  0.12700000000E+01 0.  1.
         25    2    1    2    0    0  0.00000000000E+00  0.00000000000E+00 -0.39232697459E+03  0.41175922865E+03  0.12500082955E+03 0.  0.
    9000005    1    3    3    0    0  0.22428386919E+02 -0.39833609073E+02 -0.55806221398E+02  0.72146263232E+02  0.10000000000E+01 0.  0.
    9000005    1    3    3    0    0 -0.22428386919E+02  0.39833609073E+02 -0.33652075319E+03  0.33961296542E+03  0.10000000000E+01 0.  0.
<mgrwt>
<rscale>  0 0.12500083E+03</rscale>
<asrwt>0</asrwt>
<pdfrwt beam="2">  1        4 0.61852772E-01 0.12500083E+03</pdfrwt>
<pdfrwt beam="1">  1       -4 0.14947891E-02 0.12500083E+03</pdfrwt>
<totfact> 0.63423792E+03</totfact>
</mgrwt>
</event>
<event>
 5    1  0.3269032E-002  0.1249945E+03  0.7818608E-02  0.1235078E+00
         -4   -1    0    0    0  501 -0.00000000000E+00  0.00000000000E+00  0.30898957385E+03  0.30899218379E+03  0.12700000000E+01 0.  1.
          4   -1    0    0  501    0  0.00000000000E+00 -0.00000000000E+00 -0.12606325335E+02  0.12670135691E+02  0.12700000000E+01 0.  1.
         25    2    1    2    0    0  0.00000000000E+00  0.00000000000E+00  0.29638324851E+03  0.32166231948E+03  0.12499447099E+03 0.  0.
    9000005    1    3    3    0    0  0.46794365393E+02  0.29273183874E+02  0.72800192734E+02  0.91364653935E+02  0.10000000000E+01 0.  0.
    9000005    1    3    3    0    0 -0.46794365393E+02 -0.29273183874E+02  0.22358305578E+03  0.23029766555E+03  0.10000000000E+01 0.  0.
<mgrwt>
<rscale>  0 0.12499447E+03</rscale>
<asrwt>0</asrwt>
<pdfrwt beam="2">  1        4 0.19445441E-02 0.12499447E+03</pdfrwt>
<pdfrwt beam="1">  1       -4 0.47541962E-01 0.12499447E+03</pdfrwt>
<totfact> 0.72967793E+03</totfact>
</mgrwt>
</event>
<event>
 5    1  0.3269032E-002  0.1249983E+03  0.7818608E-02  0.1235072E+00
         -4   -1    0    0    0  501 -0.00000000000E+00  0.00000000000E+00  0.86159828331E+02  0.86169187753E+02  0.12700000000E+01 0.  1.
          4   -1    0    0  501    0  0.00000000000E+00 -0.00000000000E+00 -0.45315330623E+02  0.45333123535E+02  0.12700000000E+01 0.  1.
         25    2    1    2    0    0  0.00000000000E+00  0.00000000000E+00  0.40844497708E+02  0.13150231129E+03  0.12499833951E+03 0.  0.
    9000005    1    3    3    0    0  0.16852024259E+01 -0.24233416833E+02  0.80994545571E+02  0.84564855648E+02  0.10000000000E+01 0.  0.
    9000005    1    3    3    0    0 -0.16852024259E+01  0.24233416833E+02 -0.40150047862E+02  0.46937455640E+02  0.10000000000E+01 0.  0.
<mgrwt>
<rscale>  0 0.12499834E+03</rscale>
<asrwt>0</asrwt>
<pdfrwt beam="2">  1        4 0.69736780E-02 0.12499834E+03</pdfrwt>
<pdfrwt beam="1">  1       -4 0.13257447E-01 0.12499834E+03</pdfrwt>
<totfact> 0.10312719E+04</totfact>
</mgrwt>
</event>
<event>
 5    1  0.3269032E-002  0.1249965E+03  0.7818608E-02  0.1235075E+00
          4   -1    0    0  501    0  0.00000000000E+00  0.00000000000E+00  0.16488884504E+02  0.16537720889E+02  0.12700000000E+01 0.  1.
         -4   -1    0    0    0  501 -0.00000000000E+00 -0.00000000000E+00 -0.23648805830E+03  0.23649146839E+03  0.12700000000E+01 0.  1.
         25    2    1    2    0    0  0.00000000000E+00  0.00000000000E+00 -0.21999917380E+03  0.25302918927E+03  0.12499653657E+03 0.  0.
    9000005    1    3    3    0    0 -0.50155193601E+02  0.19712209319E+02 -0.45956524807E+02  0.70831608860E+02  0.10000000000E+01 0.  0.
    9000005    1    3    3    0    0  0.50155193601E+02 -0.19712209319E+02 -0.17404264899E+03  0.18219758041E+03  0.10000000000E+01 0.  0.
<mgrwt>
<rscale>  0 0.12499654E+03</rscale>
<asrwt>0</asrwt>
<pdfrwt beam="1">  1        4 0.25407706E-02 0.12499654E+03</pdfrwt>
<pdfrwt beam="2">  1       -4 0.36386795E-01 0.12499654E+03</pdfrwt>
<totfact> 0.81900696E+03</totfact>
</mgrwt>
</event>
<event>
 5    1  0.3269032E-002  0.1249970E+03  0.7818608E-02  0.1235074E+00
          4   -1    0    0  501    0  0.00000000000E+00  0.00000000000E+00  0.14252312917E+03  0.14252878744E+03  0.12700000000E+01 0. -1.
         -4   -1    0    0    0  501 -0.00000000000E+00 -0.00000000000E+00 -0.27385609036E+02  0.27415041169E+02  0.12700000000E+01 0. -1.
         25    2    1    2    0    0  0.00000000000E+00  0.00000000000E+00  0.11513752014E+03  0.16994382861E+03  0.12499702532E+03 0.  0.
    9000005    1    3    3    0    0 -0.20780562304E+02  0.58910746597E+02  0.55311585934E+02  0.83442671174E+02  0.10000000000E+01 0.  0.
    9000005    1    3    3    0    0  0.20780562304E+02 -0.58910746597E+02  0.59825934204E+02  0.86501157435E+02  0.10000000000E+01 0.  0.
<mgrwt>
<rscale>  0 0.12499703E+03</rscale>
<asrwt>0</asrwt>
<pdfrwt beam="1">  1        4 0.21929334E-01 0.12499703E+03</pdfrwt>
<pdfrwt beam="2">  1       -4 0.42158700E-02 0.12499703E+03</pdfrwt>
<totfact> 0.95465481E+03</totfact>
</mgrwt>
</event>
<event>
 5    1  0.3269032E-002  0.1249748E+03  0.7818608E-02  0.1235109E+00
         -4   -1    0    0    0  501 -0.00000000000E+00  0.00000000000E+00  0.11775922166E+03  0.11776606975E+03  0.12700000000E+01 0.  1.
          4   -1    0    0  501    0  0.00000000000E+00 -0.00000000000E+00 -0.33138143835E+02  0.33162470910E+02  0.12700000000E+01 0.  1.
         25    2    1    2    0    0  0.00000000000E+00  0.00000000000E+00  0.84621077821E+02  0.15092854066E+03  0.12497478776E+03 0.  0.
    9000005    1    3    3    0    0  0.22855474615E+00  0.61340979968E+02  0.56646084345E+02  0.83501778019E+02  0.10000000000E+01 0.  0.
    9000005    1    3    3    0    0 -0.22855474615E+00 -0.61340979968E+02  0.27974993477E+02  0.67426762645E+02  0.10000000000E+01 0.  0.
<mgrwt>
<rscale>  0 0.12497479E+03</rscale>
<asrwt>0</asrwt>
<pdfrwt beam="2">  1        4 0.51005741E-02 0.12497479E+03</pdfrwt>
<pdfrwt beam="1">  1       -4 0.18119201E-01 0.12497479E+03</pdfrwt>
<totfact> 0.99175186E+03</totfact>
</mgrwt>
</event>
<event>
 5    1  0.3269032E-002  0.1250042E+03  0.7818608E-02  0.1235063E+00
          4   -1    0    0  501    0  0.00000000000E+00  0.00000000000E+00  0.11923851531E+03  0.11924527845E+03  0.12700000000E+01 0.  1.
         -4   -1    0    0    0  501 -0.00000000000E+00 -0.00000000000E+00 -0.32742151864E+02  0.32766772936E+02  0.12700000000E+01 0.  1.
         25    2    1    2    0    0  0.00000000000E+00  0.00000000000E+00  0.86496363443E+02  0.15201205139E+03  0.12500417144E+03 0.  0.
    9000005    1    3    3    0    0 -0.61944471125E+02  0.40240497575E+01  0.34462210750E+02  0.71006721155E+02  0.10000000000E+01 0.  0.
    9000005    1    3    3    0    0  0.61944471125E+02 -0.40240497575E+01  0.52034152693E+02  0.81005330231E+02  0.10000000000E+01 0.  0.
<mgrwt>
<rscale>  0 0.12500417E+03</rscale>
<asrwt>0</asrwt>
<pdfrwt beam="1">  1        4 0.18346801E-01 0.12500417E+03</pdfrwt>
<pdfrwt beam="2">  1       -4 0.50396682E-02 0.12500417E+03</pdfrwt>
<totfact> 0.98894845E+03</totfact>
</mgrwt>
</event>
<event>
 5    1  0.3269032E-002  0.1250015E+03  0.7818608E-02  0.1235067E+00
          4   -1    0    0  501    0  0.00000000000E+00  0.00000000000E+00  0.43249747609E+03  0.43249934072E+03  0.12700000000E+01 0. -1.
         -4   -1    0    0    0  501 -0.00000000000E+00 -0.00000000000E+00 -0.89855234602E+01  0.90748295772E+01  0.12700000000E+01 0. -1.
         25    2    1    2    0    0  0.00000000000E+00  0.00000000000E+00  0.42351195263E+03  0.44157417030E+03  0.12500149541E+03 0.  0.
    9000005    1    3    3    0    0  0.20017184011E+01 -0.28676691102E+02  0.15739685312E+02  0.32788674613E+02  0.10000000000E+01 0.  0.
    9000005    1    3    3    0    0 -0.20017184011E+01  0.28676691102E+02  0.40777226732E+03  0.40878549569E+03  0.10000000000E+01 0.  0.
<mgrwt>
<rscale>  0 0.12500150E+03</rscale>
<asrwt>0</asrwt>
<pdfrwt beam="1">  1        4 0.66545094E-01 0.12500150E+03</pdfrwt>
<pdfrwt beam="2">  1       -4 0.13894012E-02 0.12500150E+03</pdfrwt>
<totfact> 0.60698687E+03</totfact>
</mgrwt>
</event>
<event>
 5    1  0.3269032E-002  0.1250028E+03  0.7818608E-02  0.1235065E+00
          4   -1    0    0  501    0  0.00000000000E+00  0.00000000000E+00  0.19636801939E+03  0.19637212618E+03  0.12700000000E+01 0.  1.
         -4   -1    0    0    0  501 -0.00000000000E+00 -0.00000000000E+00 -0.19868795029E+02  0.19909342428E+02  0.12700000000E+01 0.  1.
         25    2    1    2    0    0  0.00000000000E+00  0.00000000000E+00  0.17649922436E+03  0.21628146860E+03  0.12500278982E+03 0.  0.
    9000005    1    3    3    0    0  0.31863956821E+02  0.45191353645E+02  0.13862984686E+03  0.14925416118E+03  0.10000000000E+01 0.  0.
    9000005    1    3    3    0    0 -0.31863956821E+02 -0.45191353645E+02  0.37869377503E+02  0.67027307428E+02  0.10000000000E+01 0.  0.
<mgrwt>
<rscale>  0 0.12500279E+03</rscale>
<asrwt>0</asrwt>
<pdfrwt beam="1">  1        4 0.30213899E-01 0.12500279E+03</pdfrwt>
<pdfrwt beam="2">  1       -4 0.30601727E-02 0.12500279E+03</pdfrwt>
<totfact> 0.87454748E+03</totfact>
</mgrwt>
</event>
<event>
 5    1  0.3269032E-002  0.1249969E+03  0.7818608E-02  0.1235074E+00
         -4   -1    0    0    0  501 -0.00000000000E+00  0.00000000000E+00  0.40952035913E+01  0.42876091769E+01  0.12700000000E+01 0. -1.
          4   -1    0    0  501    0  0.00000000000E+00 -0.00000000000E+00 -0.93172716258E+03  0.93172802812E+03  0.12700000000E+01 0. -1.
         25    2    1    2    0    0  0.00000000000E+00  0.00000000000E+00 -0.92763195899E+03  0.93601563730E+03  0.12499688769E+03 0.  0.
    9000005    1    3    3    0    0 -0.48032469094E+02 -0.36884960244E+02 -0.34842862999E+03  0.35365396728E+03  0.10000000000E+01 0.  0.
    9000005    1    3    3    0    0  0.48032469094E+02  0.36884960244E+02 -0.57920332900E+03  0.58236167002E+03  0.10000000000E+01 0.  0.
<mgrwt>
<rscale>  0 0.12499689E+03</rscale>
<asrwt>0</asrwt>
<pdfrwt beam="2">  1        4 0.14335734E+00 0.12499689E+03</pdfrwt>
<pdfrwt beam="1">  1       -4 0.64489907E-03 0.12499689E+03</pdfrwt>
<totfact> 0.32820001E+03</totfact>
</mgrwt>
</event>
<event>
 5    1  0.3269032E-002  0.1250009E+03  0.7818608E-02  0.1235068E+00
          4   -1    0    0  501    0  0.00000000000E+00  0.00000000000E+00  0.83441584610E+02  0.83451248895E+02  0.12700000000E+01 0. -1.
         -4   -1    0    0    0  501 -0.00000000000E+00 -0.00000000000E+00 -0.46793864131E+02  0.46811095055E+02  0.12700000000E+01 0. -1.
         25    2    1    2    0    0  0.00000000000E+00  0.00000000000E+00  0.36647720479E+02  0.13026234395E+03  0.12500089134E+03 0.  0.
    9000005    1    3    3    0    0 -0.36187307338E+02 -0.24055559467E+02 -0.28478856206E+02  0.51963798981E+02  0.10000000000E+01 0.  0.
    9000005    1    3    3    0    0  0.36187307338E+02  0.24055559467E+02  0.65126576685E+02  0.78298544970E+02  0.10000000000E+01 0.  0.
<mgrwt>
<rscale>  0 0.12500089E+03</rscale>
<asrwt>0</asrwt>
<pdfrwt beam="1">  1        4 0.12839236E-01 0.12500089E+03</pdfrwt>
<pdfrwt beam="2">  1       -4 0.72011249E-02 0.12500089E+03</pdfrwt>
<totfact> 0.10338691E+04</totfact>
</mgrwt>
</event>
<event>
 5    1  0.3269032E-002  0.1250070E+03  0.7818608E-02  0.1235058E+00
         -4   -1    0    0    0  501 -0.00000000000E+00  0.00000000000E+00  0.18512711492E+01  0.22450177879E+01  0.12700000000E+01 0. -1.
          4   -1    0    0  501    0  0.00000000000E+00 -0.00000000000E+00 -0.19070351177E+04  0.19070355406E+04  0.12700000000E+01 0. -1.
         25    2    1    2    0    0  0.00000000000E+00  0.00000000000E+00 -0.19051838465E+04  0.19092805583E+04  0.12500704544E+03 0.  0.
    9000005    1    3    3    0    0  0.32056417102E+02  0.49825072040E+02 -0.64883251746E+03  0.65153264491E+03  0.10000000000E+01 0.  0.
    9000005    1    3    3    0    0 -0.32056417102E+02 -0.49825072040E+02 -0.12563513291E+04  0.12577479134E+04  0.10000000000E+01 0.  0.
<mgrwt>
<rscale>  0 0.12500705E+03</rscale>
<asrwt>0</asrwt>
<pdfrwt beam="2">  1        4 0.29341892E+00 0.12500705E+03</pdfrwt>
<pdfrwt beam="1">  1       -4 0.31513320E-03 0.12500705E+03</pdfrwt>
<totfact> 0.11090576E+03</totfact>
</mgrwt>
</event>
<event>
 5    1  0.3269032E-002  0.1250011E+03  0.7818608E-02  0.1235068E+00
         -4   -1    0    0    0  501 -0.00000000000E+00  0.00000000000E+00  0.13970006076E+03  0.13970583336E+03  0.12700000000E+01 0.  1.
          4   -1    0    0  501    0  0.00000000000E+00 -0.00000000000E+00 -0.27941416173E+02  0.27970263456E+02  0.12700000000E+01 0.  1.
         25    2    1    2    0    0  0.00000000000E+00  0.00000000000E+00  0.11175864458E+03  0.16767609682E+03  0.12500111521E+03 0.  0.
    9000005    1    3    3    0    0 -0.29102879566E+02  0.35377039266E+02 -0.11388344971E+01  0.45834587926E+02  0.10000000000E+01 0.  0.
    9000005    1    3    3    0    0  0.29102879566E+02 -0.35377039266E+02  0.11289747908E+03  0.12184150889E+03  0.10000000000E+01 0.  0.
<mgrwt>
<rscale>  0 0.12500112E+03</rscale>
<asrwt>0</asrwt>
<pdfrwt beam="2">  1        4 0.43013426E-02 0.12500112E+03</pdfrwt>
<pdfrwt beam="1">  1       -4 0.21494980E-01 0.12500112E+03</pdfrwt>
<totfact> 0.95880568E+03</totfact>
</mgrwt>
</event>
<event>
 5    1  0.3269032E-002  0.1249966E+03  0.7818608E-02  0.1235075E+00
          4   -1    0    0  501    0  0.00000000000E+00  0.00000000000E+00  0.41390645492E+02  0.41410124780E+02  0.12700000000E+01 0. -1.
         -4   -1    0    0    0  501 -0.00000000000E+00 -0.00000000000E+00 -0.94324068404E+02  0.94332617796E+02  0.12700000000E+01 0. -1.
         25    2    1    2    0    0  0.00000000000E+00  0.00000000000E+00 -0.52933422912E+02  0.13574274258E+03  0.12499657956E+03 0.  0.
    9000005    1    3    3    0    0 -0.58434929654E+02  0.17940689247E+02 -0.12368854656E+02  0.62373855900E+02  0.10000000000E+01 0.  0.
    9000005    1    3    3    0    0  0.58434929654E+02 -0.17940689247E+02 -0.40564568256E+02  0.73368886676E+02  0.10000000000E+01 0.  0.
<mgrwt>
<rscale>  0 0.12499658E+03</rscale>
<asrwt>0</asrwt>
<pdfrwt beam="1">  1        4 0.63699477E-02 0.12499658E+03</pdfrwt>
<pdfrwt beam="2">  1       -4 0.14513551E-01 0.12499658E+03</pdfrwt>
<totfact> 0.10223228E+04</totfact>
</mgrwt>
</event>
<event>
 5    1  0.3269032E-002  0.1250004E+03  0.7818608E-02  0.1235069E+00
         -4   -1    0    0    0  501 -0.00000000000E+00  0.00000000000E+00  0.24026613798E+02  0.24060155249E+02  0.12700000000E+01 0. -1.
          4   -1    0    0  501    0  0.00000000000E+00 -0.00000000000E+00 -0.16243167676E+03  0.16243664155E+03  0.12700000000E+01 0. -1.
         25    2    1    2    0    0  0.00000000000E+00  0.00000000000E+00 -0.13840506297E+03  0.18649679679E+03  0.12500037504E+03 0.  0.
    9000005    1    3    3    0    0  0.57072182476E+02 -0.55147702784E+01 -0.32123950532E+02  0.65731232315E+02  0.10000000000E+01 0.  0.
    9000005    1    3    3    0    0 -0.57072182476E+02  0.55147702784E+01 -0.10628111243E+03  0.12076556448E+03  0.10000000000E+01 0.  0.
<mgrwt>
<rscale>  0 0.12500038E+03</rscale>
<asrwt>0</asrwt>
<pdfrwt beam="2">  1        4 0.24992450E-01 0.12500038E+03</pdfrwt>
<pdfrwt beam="1">  1       -4 0.36993643E-02 0.12500038E+03</pdfrwt>
<totfact> 0.92459682E+03</totfact>
</mgrwt>
</event>
<event>
 5    1  0.3269032E-002  0.1249703E+03  0.7818608E-02  0.1235116E+00
          4   -1    0    0  501    0  0.00000000000E+00  0.00000000000E+00  0.24915854180E+02  0.24948200126E+02  0.12700000000E+01 0.  1.
         -4   -1    0    0    0  501 -0.00000000000E+00 -0.00000000000E+00 -0.15656665123E+03  0.15657180199E+03  0.12700000000E+01 0.  1.
         25    2    1    2    0    0  0.00000000000E+00  0.00000000000E+00 -0.13165079705E+03  0.18152000212E+03  0.12497031169E+03 0.  0.
    9000005    1    3    3    0    0  0.16469768888E+02  0.53590464906E+02 -0.10587355813E+03  0.11980568236E+03  0.10000000000E+01 0.  0.
    9000005    1    3    3    0    0 -0.16469768888E+02 -0.53590464906E+02 -0.25777238927E+02  0.61714319754E+02  0.10000000000E+01 0.  0.
<mgrwt>
<rscale>  0 0.12497031E+03</rscale>
<asrwt>0</asrwt>
<pdfrwt beam="1">  1        4 0.38360928E-02 0.12497031E+03</pdfrwt>
<pdfrwt beam="2">  1       -4 0.24090061E-01 0.12497031E+03</pdfrwt>
<totfact> 0.93406266E+03</totfact>
</mgrwt>
</event>
<event>
 5    1  0.3269032E-002  0.1250019E+03  0.7818608E-02  0.1235066E+00
         -4   -1    0    0    0  501 -0.00000000000E+00  0.00000000000E+00  0.16201586439E+03  0.16202084191E+03  0.12700000000E+01 0.  1.
          4   -1    0    0  501    0  0.00000000000E+00 -0.00000000000E+00 -0.24088965238E+02  0.24122419991E+02  0.12700000000E+01 0.  1.
         25    2    1    2    0    0  0.00000000000E+00  0.00000000000E+00  0.13792689915E+03  0.18614326190E+03  0.12500193775E+03 0.  0.
    9000005    1    3    3    0    0 -0.27333348435E+02  0.50387641869E+02  0.31904185173E+02  0.65611762828E+02  0.10000000000E+01 0.  0.
    9000005    1    3    3    0    0  0.27333348435E+02 -0.50387641869E+02  0.10602271398E+03  0.12053149908E+03  0.10000000000E+01 0.  0.
<mgrwt>
<rscale>  0 0.12500194E+03</rscale>
<asrwt>0</asrwt>
<pdfrwt beam="2">  1        4 0.37089508E-02 0.12500194E+03</pdfrwt>
<pdfrwt beam="1">  1       -4 0.24928475E-01 0.12500194E+03</pdfrwt>
<totfact> 0.92518720E+03</totfact>
</mgrwt>
</event>
<event>
 5    1  0.3269032E-002  0.1249968E+03  0.7818608E-02  0.1235074E+00
          4   -1    0    0  501    0  0.00000000000E+00  0.00000000000E+00  0.37288550592E+02  0.37310171605E+02  0.12700000000E+01 0.  1.
         -4   -1    0    0    0  501 -0.00000000000E+00 -0.00000000000E+00 -0.10469617795E+03  0.10470388043E+03  0.12700000000E+01 0.  1.
         25    2    1    2    0    0  0.00000000000E+00  0.00000000000E+00 -0.67407627360E+02  0.14201405204E+03  0.12499681096E+03 0.  0.
    9000005    1    3    3    0    0 -0.58716814643E+02 -0.56044006793E+01 -0.10254750788E+02  0.59876819742E+02  0.10000000000E+01 0.  0.
    9000005    1    3    3    0    0  0.58716814643E+02  0.56044006793E+01 -0.57152876573E+02  0.82137232296E+02  0.10000000000E+01 0.  0.
<mgrwt>
<rscale>  0 0.12499681E+03</rscale>
<asrwt>0</asrwt>
<pdfrwt beam="1">  1        4 0.57389558E-02 0.12499681E+03</pdfrwt>
<pdfrwt beam="2">  1       -4 0.16109360E-01 0.12499681E+03</pdfrwt>
<totfact> 0.10092738E+04</totfact>
</mgrwt>
</event>
<event>
 5    1  0.3269032E-002  0.1249930E+03  0.7818608E-02  0.1235080E+00
         -4   -1    0    0    0  501 -0.00000000000E+00  0.00000000000E+00  0.16244220323E+02  0.16293790041E+02  0.12700000000E+01 0. -1.
          4   -1    0    0  501    0  0.00000000000E+00 -0.00000000000E+00 -0.24002556249E+03  0.24002892231E+03  0.12700000000E+01 0. -1.
         25    2    1    2    0    0  0.00000000000E+00  0.00000000000E+00 -0.22378134216E+03  0.25632271236E+03  0.12499297488E+03 0.  0.
    9000005    1    3    3    0    0  0.54653190426E-01 -0.30663849457E+02 -0.23523523774E+00  0.30681101449E+02  0.10000000000E+01 0.  0.
    9000005    1    3    3    0    0 -0.54653190426E-01  0.30663849457E+02 -0.22354610693E+03  0.22564161091E+03  0.10000000000E+01 0.  0.
<mgrwt>
<rscale>  0 0.12499297E+03</rscale>
<asrwt>0</asrwt>
<pdfrwt beam="2">  1        4 0.36931079E-01 0.12499297E+03</pdfrwt>
<pdfrwt beam="1">  1       -4 0.25031825E-02 0.12499297E+03</pdfrwt>
<totfact> 0.81437640E+03</totfact>
</mgrwt>
</event>
<event>
 5    1  0.3269032E-002  0.1249989E+03  0.7818608E-02  0.1235071E+00
          4   -1    0    0  501    0  0.00000000000E+00  0.00000000000E+00  0.45366684983E+01  0.47110785457E+01  0.12700000000E+01 0.  1.
         -4   -1    0    0    0  501 -0.00000000000E+00 -0.00000000000E+00 -0.84461089981E+03  0.84461185463E+03  0.12700000000E+01 0.  1.
         25    2    1    2    0    0  0.00000000000E+00  0.00000000000E+00 -0.84007423131E+03  0.84932293317E+03  0.12499892280E+03 0.  0.
    9000005    1    3    3    0    0 -0.43579661152E+02  0.37740601456E+02 -0.58390534565E+03  0.58674525353E+03  0.10000000000E+01 0.  0.
    9000005    1    3    3    0    0  0.43579661152E+02 -0.37740601456E+02 -0.25616888566E+03  0.26257767964E+03  0.10000000000E+01 0.  0.
<mgrwt>
<rscale>  0 0.12499892E+03</rscale>
<asrwt>0</asrwt>
<pdfrwt beam="1">  1        4 0.71143928E-03 0.12499892E+03</pdfrwt>
<pdfrwt beam="2">  1       -4 0.12995350E+00 0.12499892E+03</pdfrwt>
<totfact> 0.36155927E+03</totfact>
</mgrwt>
</event>
<event>
 5    1  0.3269032E-002  0.1250002E+03  0.7818608E-02  0.1235069E+00
          4   -1    0    0  501    0  0.00000000000E+00  0.00000000000E+00  0.54293163942E+03  0.54293312478E+03  0.12700000000E+01 0.  1.
         -4   -1    0    0    0  501 -0.00000000000E+00 -0.00000000000E+00 -0.71372135986E+01  0.72493253447E+01  0.12700000000E+01 0.  1.
         25    2    1    2    0    0  0.00000000000E+00  0.00000000000E+00  0.53579442582E+03  0.55018245012E+03  0.12500024673E+03 0.  0.
    9000005    1    3    3    0    0  0.18423041602E+02  0.38790696372E-01  0.50655213846E+01  0.19132942102E+02  0.10000000000E+01 0.  0.
    9000005    1    3    3    0    0 -0.18423041602E+02 -0.38790696372E-01  0.53072890444E+03  0.53104950802E+03  0.10000000000E+01 0.  0.
<mgrwt>
<rscale>  0 0.12500025E+03</rscale>
<asrwt>0</asrwt>
<pdfrwt beam="1">  1        4 0.83536683E-01 0.12500025E+03</pdfrwt>
<pdfrwt beam="2">  1       -4 0.11067711E-02 0.12500025E+03</pdfrwt>
<totfact> 0.52170931E+03</totfact>
</mgrwt>
</event>
<event>
 5    1  0.3269032E-002  0.1250046E+03  0.7818608E-02  0.1235062E+00
         -4   -1    0    0    0  501 -0.00000000000E+00  0.00000000000E+00  0.67130416064E+02  0.67142428172E+02  0.12700000000E+01 0. -1.
          4   -1    0    0  501    0  0.00000000000E+00 -0.00000000000E+00 -0.58169079354E+02  0.58182941597E+02  0.12700000000E+01 0. -1.
         25    2    1    2    0    0  0.00000000000E+00  0.00000000000E+00  0.89613367096E+01  0.12532536977E+03  0.12500457093E+03 0.  0.
    9000005    1    3    3    0    0 -0.35192596418E+02  0.35683571242E+02 -0.32947423521E+02  0.59986405259E+02  0.10000000000E+01 0.  0.
    9000005    1    3    3    0    0  0.35192596418E+02 -0.35683571242E+02  0.41908760231E+02  0.65338964511E+02  0.10000000000E+01 0.  0.
<mgrwt>
<rscale>  0 0.12500457E+03</rscale>
<asrwt>0</asrwt>
<pdfrwt beam="2">  1        4 0.89510794E-02 0.12500457E+03</pdfrwt>
<pdfrwt beam="1">  1       -4 0.10329747E-01 0.12500457E+03</pdfrwt>
<totfact> 0.10444721E+04</totfact>
</mgrwt>
</event>
<event>
 5    1  0.3269032E-002  0.1250072E+03  0.7818608E-02  0.1235058E+00
         -4   -1    0    0    0  501 -0.00000000000E+00  0.00000000000E+00  0.21663911663E+03  0.21664283915E+03  0.12700000000E+01 0.  1.
          4   -1    0    0  501    0  0.00000000000E+00 -0.00000000000E+00 -0.18006979089E+02  0.18051708947E+02  0.12700000000E+01 0.  1.
         25    2    1    2    0    0  0.00000000000E+00  0.00000000000E+00  0.19863213754E+03  0.23469454809E+03  0.12500721916E+03 0.  0.
    9000005    1    3    3    0    0  0.39742494594E+02  0.16806742481E+02  0.18419184969E+03  0.18918131505E+03  0.10000000000E+01 0.  0.
    9000005    1    3    3    0    0 -0.39742494594E+02 -0.16806742481E+02  0.14440287846E+02  0.45513233048E+02  0.10000000000E+01 0.  0.
<mgrwt>
<rscale>  0 0.12500722E+03</rscale>
<asrwt>0</asrwt>
<pdfrwt beam="2">  1        4 0.27740316E-02 0.12500722E+03</pdfrwt>
<pdfrwt beam="1">  1       -4 0.33332822E-01 0.12500722E+03</pdfrwt>
<totfact> 0.84580300E+03</totfact>
</mgrwt>
</event>
<event>
 5    1  0.3269032E-002  0.1249988E+03  0.7818608E-02  0.1235071E+00
         -4   -1    0    0    0  501 -0.00000000000E+00  0.00000000000E+00  0.12372687751E+03  0.12373339533E+03  0.12700000000E+01 0.  1.
          4   -1    0    0  501    0  0.00000000000E+00 -0.00000000000E+00 -0.31550815702E+02  0.31576365710E+02  0.12700000000E+01 0.  1.
         25    2    1    2    0    0  0.00000000000E+00  0.00000000000E+00  0.92176061811E+02  0.15530976104E+03  0.12499878200E+03 0.  0.
    9000005    1    3    3    0    0 -0.44091040332E+02 -0.44116587057E+02  0.50881013865E+02  0.80499507222E+02  0.10000000000E+01 0.  0.
    9000005    1    3    3    0    0  0.44091040332E+02  0.44116587057E+02  0.41295047945E+02  0.74810253815E+02  0.10000000000E+01 0.  0.
<mgrwt>
<rscale>  0 0.12499878E+03</rscale>
<asrwt>0</asrwt>
<pdfrwt beam="2">  1        4 0.48564384E-02 0.12499878E+03</pdfrwt>
<pdfrwt beam="1">  1       -4 0.19037371E-01 0.12499878E+03</pdfrwt>
<totfact> 0.98257415E+03</totfact>
</mgrwt>
</event>
<event>
 5    1  0.3269032E-002  0.1250022E+03  0.7818608E-02  0.1235066E+00
          4   -1    0    0  501    0  0.00000000000E+00  0.00000000000E+00  0.22261385445E+03  0.22261747707E+03  0.12700000000E+01 0.  1.
         -4   -1    0    0    0  501 -0.00000000000E+00 -0.00000000000E+00 -0.17521067309E+02  0.17567034458E+02  0.12700000000E+01 0.  1.
         25    2    1    2    0    0  0.00000000000E+00  0.00000000000E+00  0.20509278715E+03  0.24018451152E+03  0.12500219293E+03 0.  0.
    9000005    1    3    3    0    0  0.16264009235E+02 -0.20135532100E+02  0.21183964108E+03  0.21341741068E+03  0.10000000000E+01 0.  0.
    9000005    1    3    3    0    0 -0.16264009235E+02  0.20135532100E+02 -0.67468539361E+01  0.26767100840E+02  0.10000000000E+01 0.  0.
<mgrwt>
<rscale>  0 0.12500219E+03</rscale>
<asrwt>0</asrwt>
<pdfrwt beam="1">  1        4 0.34252101E-01 0.12500219E+03</pdfrwt>
<pdfrwt beam="2">  1       -4 0.26993633E-02 0.12500219E+03</pdfrwt>
<totfact> 0.83765798E+03</totfact>
</mgrwt>
</event>
<event>
 5    1  0.3269032E-002  0.1249997E+03  0.7818608E-02  0.1235070E+00
          4   -1    0    0  501    0  0.00000000000E+00  0.00000000000E+00  0.30578679904E+03  0.30578943632E+03  0.12700000000E+01 0. -1.
         -4   -1    0    0    0  501 -0.00000000000E+00 -0.00000000000E+00 -0.12740096386E+02  0.12803240056E+02  0.12700000000E+01 0. -1.
         25    2    1    2    0    0  0.00000000000E+00  0.00000000000E+00  0.29304670265E+03  0.31859267638E+03  0.12499969403E+03 0.  0.
    9000005    1    3    3    0    0 -0.56305286372E+02 -0.27000929943E+02  0.14033488630E+03  0.15360408785E+03  0.10000000000E+01 0.  0.
    9000005    1    3    3    0    0  0.56305286372E+02  0.27000929943E+02  0.15271181635E+03  0.16498858852E+03  0.10000000000E+01 0.  0.
<mgrwt>
<rscale>  0 0.12499969E+03</rscale>
<asrwt>0</asrwt>
<pdfrwt beam="1">  1        4 0.47049177E-01 0.12499969E+03</pdfrwt>
<pdfrwt beam="2">  1       -4 0.19650752E-02 0.12499969E+03</pdfrwt>
<totfact> 0.73324321E+03</totfact>
</mgrwt>
</event>
<event>
 5    1  0.3269032E-002  0.1249955E+03  0.7818608E-02  0.1235076E+00
         -4   -1    0    0    0  501 -0.00000000000E+00  0.00000000000E+00  0.87423095628E+02  0.87432319821E+02  0.12700000000E+01 0.  1.
          4   -1    0    0  501    0  0.00000000000E+00 -0.00000000000E+00 -0.44658309166E+02  0.44676363746E+02  0.12700000000E+01 0.  1.
         25    2    1    2    0    0  0.00000000000E+00  0.00000000000E+00  0.42764786462E+02  0.13210868357E+03  0.12499550917E+03 0.  0.
    9000005    1    3    3    0    0  0.11548284509E+02 -0.61015317165E+02  0.14003882940E+02  0.63665850668E+02  0.10000000000E+01 0.  0.
    9000005    1    3    3    0    0 -0.11548284509E+02  0.61015317165E+02  0.28760903522E+02  0.68442832899E+02  0.10000000000E+01 0.  0.
<mgrwt>
<rscale>  0 0.12499551E+03</rscale>
<asrwt>0</asrwt>
<pdfrwt beam="2">  1        4 0.68726076E-02 0.12499551E+03</pdfrwt>
<pdfrwt beam="1">  1       -4 0.13451805E-01 0.12499551E+03</pdfrwt>
<totfact> 0.10300423E+04</totfact>
</mgrwt>
</event>
<event>
 5    1  0.3269032E-002  0.1249974E+03  0.7818608E-02  0.1235073E+00
          4   -1    0    0  501    0  0.00000000000E+00  0.00000000000E+00  0.28387603713E+02  0.28415998039E+02  0.12700000000E+01 0. -1.
         -4   -1    0    0    0  501 -0.00000000000E+00 -0.00000000000E+00 -0.13749823549E+03  0.13750410053E+03  0.12700000000E+01 0. -1.
         25    2    1    2    0    0  0.00000000000E+00  0.00000000000E+00 -0.10911063177E+03  0.16592009857E+03  0.12499739654E+03 0.  0.
    9000005    1    3    3    0    0  0.74094168027E+00  0.21144517135E+02 -0.13260584262E+03  0.13428681654E+03  0.10000000000E+01 0.  0.
    9000005    1    3    3    0    0 -0.74094168027E+00 -0.21144517135E+02  0.23495210843E+02  0.31633282030E+02  0.10000000000E+01 0.  0.
<mgrwt>
<rscale>  0 0.12499740E+03</rscale>
<asrwt>0</asrwt>
<pdfrwt beam="1">  1        4 0.43699591E-02 0.12499740E+03</pdfrwt>
<pdfrwt beam="2">  1       -4 0.21156210E-01 0.12499740E+03</pdfrwt>
<totfact> 0.96219051E+03</totfact>
</mgrwt>
</event>
<event>
 5    1  0.3269032E-002  0.1249985E+03  0.7818608E-02  0.1235072E+00
         -4   -1    0    0    0  501 -0.00000000000E+00  0.00000000000E+00  0.84073928116E+01  0.85027733057E+01  0.12700000000E+01 0.  1.
          4   -1    0    0  501    0  0.00000000000E+00 -0.00000000000E+00 -0.46189289722E+03  0.46189464319E+03  0.12700000000E+01 0.  1.
         25    2    1    2    0    0  0.00000000000E+00  0.00000000000E+00 -0.45348550441E+03  0.47039741649E+03  0.12499850692E+03 0.  0.
    9000005    1    3    3    0    0 -0.27867642842E+02 -0.16738191655E+02 -0.25898513102E+02  0.41575299859E+02  0.10000000000E+01 0.  0.
    9000005    1    3    3    0    0  0.27867642842E+02  0.16738191655E+02 -0.42758699131E+03  0.42882211663E+03  0.10000000000E+01 0.  0.
<mgrwt>
<rscale>  0 0.12499851E+03</rscale>
<asrwt>0</asrwt>
<pdfrwt beam="2">  1        4 0.71067897E-01 0.12499851E+03</pdfrwt>
<pdfrwt beam="1">  1       -4 0.13009167E-02 0.12499851E+03</pdfrwt>
<totfact> 0.58238536E+03</totfact>
</mgrwt>
</event>
<event>
 5    1  0.3269032E-002  0.1249972E+03  0.7818608E-02  0.1235074E+00
          4   -1    0    0  501    0  0.00000000000E+00  0.00000000000E+00  0.12170560896E+02  0.12236643843E+02  0.12700000000E+01 0.  1.
         -4   -1    0    0    0  501 -0.00000000000E+00 -0.00000000000E+00 -0.32000833685E+03  0.32001085694E+03  0.12700000000E+01 0.  1.
         25    2    1    2    0    0  0.00000000000E+00  0.00000000000E+00 -0.30783777596E+03  0.33224750078E+03  0.12499722183E+03 0.  0.
    9000005    1    3    3    0    0  0.58150365733E+02  0.22289904171E+02 -0.16767189755E+03  0.17886634701E+03  0.10000000000E+01 0.  0.
    9000005    1    3    3    0    0 -0.58150365733E+02 -0.22289904171E+02 -0.14016587841E+03  0.15338115377E+03  0.10000000000E+01 0.  0.
<mgrwt>
<rscale>  0 0.12499722E+03</rscale>
<asrwt>0</asrwt>
<pdfrwt beam="1">  1        4 0.18776714E-02 0.12499722E+03</pdfrwt>
<pdfrwt beam="2">  1       -4 0.49237323E-01 0.12499722E+03</pdfrwt>
<totfact> 0.71727158E+03</totfact>
</mgrwt>
</event>
<event>
 5    1  0.3269032E-002  0.1249991E+03  0.7818608E-02  0.1235071E+00
         -4   -1    0    0    0  501 -0.00000000000E+00  0.00000000000E+00  0.15322834322E+02  0.15375374846E+02  0.12700000000E+01 0. -1.
          4   -1    0    0  501    0  0.00000000000E+00 -0.00000000000E+00 -0.25443576827E+03  0.25443893782E+03  0.12700000000E+01 0. -1.
         25    2    1    2    0    0  0.00000000000E+00  0.00000000000E+00 -0.23911293395E+03  0.26981431266E+03  0.12499907253E+03 0.  0.
    9000005    1    3    3    0    0 -0.60120917117E+02 -0.56291165598E+01 -0.15429341398E+03  0.16569148809E+03  0.10000000000E+01 0.  0.
    9000005    1    3    3    0    0  0.60120917117E+02  0.56291165598E+01 -0.84819519969E+02  0.10412282457E+03  0.10000000000E+01 0.  0.
<mgrwt>
<rscale>  0 0.12499907E+03</rscale>
<asrwt>0</asrwt>
<pdfrwt beam="2">  1        4 0.39148247E-01 0.12499907E+03</pdfrwt>
<pdfrwt beam="1">  1       -4 0.23616447E-02 0.12499907E+03</pdfrwt>
<totfact> 0.79549832E+03</totfact>
</mgrwt>
</event>
<event>
 5    1  0.3269032E-002  0.1250006E+03  0.7818608E-02  0.1235068E+00
          4   -1    0    0  501    0  0.00000000000E+00  0.00000000000E+00  0.11054241484E+02  0.11126956222E+02  0.12700000000E+01 0.  1.
         -4   -1    0    0    0  501 -0.00000000000E+00 -0.00000000000E+00 -0.35214220374E+03  0.35214449386E+03  0.12700000000E+01 0.  1.
         25    2    1    2    0    0  0.00000000000E+00  0.00000000000E+00 -0.34108796225E+03  0.36327145008E+03  0.12500059379E+03 0.  0.
    9000005    1    3    3    0    0  0.34733100520E+02 -0.95990778181E+01 -0.31892195205E+03  0.32095286581E+03  0.10000000000E+01 0.  0.
    9000005    1    3    3    0    0 -0.34733100520E+02  0.95990778181E+01 -0.22166010200E+02  0.42318584273E+02  0.10000000000E+01 0.  0.
<mgrwt>
<rscale>  0 0.12500059E+03</rscale>
<asrwt>0</asrwt>
<pdfrwt beam="1">  1        4 0.17064224E-02 0.12500059E+03</pdfrwt>
<pdfrwt beam="2">  1       -4 0.54181485E-01 0.12500059E+03</pdfrwt>
<totfact> 0.68287901E+03</totfact>
</mgrwt>
</event>
<event>
 5    1  0.3269032E-002  0.1249984E+03  0.7818608E-02  0.1235072E+00
         -4   -1    0    0    0  501 -0.00000000000E+00  0.00000000000E+00  0.13915887189E+03  0.13916466694E+03  0.12700000000E+01 0.  1.
          4   -1    0    0  501    0  0.00000000000E+00 -0.00000000000E+00 -0.28048985497E+02  0.28077722262E+02  0.12700000000E+01 0.  1.
         25    2    1    2    0    0  0.00000000000E+00  0.00000000000E+00  0.11110988639E+03  0.16724238920E+03  0.12499843956E+03 0.  0.
    9000005    1    3    3    0    0  0.54624579585E+02  0.29083733028E+02  0.43933639540E+02  0.75900414392E+02  0.10000000000E+01 0.  0.
    9000005    1    3    3    0    0 -0.54624579585E+02 -0.29083733028E+02  0.67176246850E+02  0.91341974812E+02  0.10000000000E+01 0.  0.
<mgrwt>
<rscale>  0 0.12499844E+03</rscale>
<asrwt>0</asrwt>
<pdfrwt beam="2">  1        4 0.43178848E-02 0.12499844E+03</pdfrwt>
<pdfrwt beam="1">  1       -4 0.21411714E-01 0.12499844E+03</pdfrwt>
<totfact> 0.95967760E+03</totfact>
</mgrwt>
</event>
<event>
 5    1  0.3269032E-002  0.1249946E+03  0.7818608E-02  0.1235078E+00
          4   -1    0    0  501    0  0.00000000000E+00  0.00000000000E+00  0.24226582135E+03  0.24226915011E+03  0.12700000000E+01 0. -1.
         -4   -1    0    0    0  501 -0.00000000000E+00 -0.00000000000E+00 -0.16093972842E+02  0.16144003897E+02  0.12700000000E+01 0. -1.
         25    2    1    2    0    0  0.00000000000E+00  0.00000000000E+00  0.22617184851E+03  0.25841315401E+03  0.12499461231E+03 0.  0.
    9000005    1    3    3    0    0  0.40115541639E+02 -0.42054591719E+02  0.65622768439E+02  0.87665233150E+02  0.10000000000E+01 0.  0.
    9000005    1    3    3    0    0 -0.40115541639E+02  0.42054591719E+02  0.16054908007E+03  0.17074792086E+03  0.10000000000E+01 0.  0.
<mgrwt>
<rscale>  0 0.12499461E+03</rscale>
<asrwt>0</asrwt>
<pdfrwt beam="1">  1        4 0.37275767E-01 0.12499461E+03</pdfrwt>
<pdfrwt beam="2">  1       -4 0.24801006E-02 0.12499461E+03</pdfrwt>
<totfact> 0.81139002E+03</totfact>
</mgrwt>
</event>
<event>
 5    1  0.3269032E-002  0.1249990E+03  0.7818608E-02  0.1235071E+00
         -4   -1    0    0    0  501 -0.00000000000E+00  0.00000000000E+00  0.66666761060E+01  0.67865654275E+01  0.12700000000E+01 0. -1.
          4   -1    0    0  501    0  0.00000000000E+00 -0.00000000000E+00 -0.58058508136E+03  0.58058647039E+03  0.12700000000E+01 0. -1.
         25    2    1    2    0    0  0.00000000000E+00  0.00000000000E+00 -0.57391840525E+03  0.58737303582E+03  0.12499898925E+03 0.  0.
    9000005    1    3    3    0    0 -0.24354025331E+02 -0.25155706744E+02 -0.43730496806E+02  0.56029318062E+02  0.10000000000E+01 0.  0.
    9000005    1    3    3    0    0  0.24354025331E+02  0.25155706744E+02 -0.53018790845E+03  0.53134371775E+03  0.10000000000E+01 0.  0.
<mgrwt>
<rscale>  0 0.12499899E+03</rscale>
<asrwt>0</asrwt>
<pdfrwt beam="2">  1        4 0.89330072E-01 0.12499899E+03</pdfrwt>
<pdfrwt beam="1">  1       -4 0.10349720E-02 0.12499899E+03</pdfrwt>
<totfact> 0.49675603E+03</totfact>
</mgrwt>
</event>
<event>
 5    1  0.3269032E-002  0.1249927E+03  0.7818608E-02  0.1235081E+00
         -4   -1    0    0    0  501 -0.00000000000E+00  0.00000000000E+00  0.10305278619E+03  0.10306061149E+03  0.12700000000E+01 0.  1.
          4   -1    0    0  501    0  0.00000000000E+00 -0.00000000000E+00 -0.37881011110E+02  0.37902294162E+02  0.12700000000E+01 0.  1.
         25    2    1    2    0    0  0.00000000000E+00  0.00000000000E+00  0.65171775080E+02  0.14096290566E+03  0.12499272180E+03 0.  0.
    9000005    1    3    3    0    0  0.34619429667E+01 -0.70256097616E+01 -0.37330790559E+02  0.38156679171E+02  0.10000000000E+01 0.  0.
    9000005    1    3    3    0    0 -0.34619429667E+01  0.70256097616E+01  0.10250256564E+03  0.10280622649E+03  0.10000000000E+01 0.  0.
<mgrwt>
<rscale>  0 0.12499272E+03</rscale>
<asrwt>0</asrwt>
<pdfrwt beam="2">  1        4 0.58300871E-02 0.12499272E+03</pdfrwt>
<pdfrwt beam="1">  1       -4 0.15856514E-01 0.12499272E+03</pdfrwt>
<totfact> 0.10115326E+04</totfact>
</mgrwt>
</event>
<event>
 5    1  0.3269032E-002  0.1249956E+03  0.7818608E-02  0.1235076E+00
         -4   -1    0    0    0  501 -0.00000000000E+00  0.00000000000E+00  0.20228561630E+02  0.20268389320E+02  0.12700000000E+01 0. -1.
          4   -1    0    0  501    0  0.00000000000E+00 -0.00000000000E+00 -0.19286024777E+03  0.19286442925E+03  0.12700000000E+01 0. -1.
         25    2    1    2    0    0  0.00000000000E+00  0.00000000000E+00 -0.17263168614E+03  0.21313281857E+03  0.12499559709E+03 0.  0.
    9000005    1    3    3    0    0  0.39001541203E+02  0.48218985110E+02 -0.73242535398E+02  0.95977391780E+02  0.10000000000E+01 0.  0.
    9000005    1    3    3    0    0 -0.39001541203E+02 -0.48218985110E+02 -0.99389150747E+02  0.11715542679E+03  0.10000000000E+01 0.  0.
<mgrwt>
<rscale>  0 0.12499560E+03</rscale>
<asrwt>0</asrwt>
<pdfrwt beam="2">  1        4 0.29674191E-01 0.12499560E+03</pdfrwt>
<pdfrwt beam="1">  1       -4 0.31154718E-02 0.12499560E+03</pdfrwt>
<totfact> 0.87975450E+03</totfact>
</mgrwt>
</event>
<event>
 5    1  0.3269032E-002  0.1250015E+03  0.7818608E-02  0.1235067E+00
         -4   -1    0    0    0  501 -0.00000000000E+00  0.00000000000E+00  0.26573193419E+02  0.26603524363E+02  0.12700000000E+01 0.  1.
          4   -1    0    0  501    0  0.00000000000E+00 -0.00000000000E+00 -0.14688618218E+03  0.14689167238E+03  0.12700000000E+01 0.  1.
         25    2    1    2    0    0  0.00000000000E+00  0.00000000000E+00 -0.12031298876E+03  0.17349519674E+03  0.12500147211E+03 0.  0.
    9000005    1    3    3    0    0 -0.39130836759E+02 -0.65980721199E+01  0.68481347589E+01  0.40282178328E+02  0.10000000000E+01 0.  0.
    9000005    1    3    3    0    0  0.39130836759E+02  0.65980721199E+01 -0.12716112351E+03  0.13321301841E+03  0.10000000000E+01 0.  0.
<mgrwt>
<rscale>  0 0.12500147E+03</rscale>
<asrwt>0</asrwt>
<pdfrwt beam="2">  1        4 0.22600629E-01 0.12500147E+03</pdfrwt>
<pdfrwt beam="1">  1       -4 0.40909391E-02 0.12500147E+03</pdfrwt>
<totfact> 0.94798035E+03</totfact>
</mgrwt>
</event>
<event>
 5    1  0.3269032E-002  0.1249995E+03  0.7818608E-02  0.1235070E+00
         -4   -1    0    0    0  501 -0.00000000000E+00  0.00000000000E+00  0.57187408947E+02  0.57201509089E+02  0.12700000000E+01 0.  1.
          4   -1    0    0  501    0  0.00000000000E+00 -0.00000000000E+00 -0.68277198699E+02  0.68289009087E+02  0.12700000000E+01 0.  1.
         25    2    1    2    0    0  0.00000000000E+00  0.00000000000E+00 -0.11089789752E+02  0.12549051818E+03  0.12499954686E+03 0.  0.
    9000005    1    3    3    0    0  0.42862757814E+02 -0.45277430839E+02 -0.97994560291E+01  0.63121241189E+02  0.10000000000E+01 0.  0.
    9000005    1    3    3    0    0 -0.42862757814E+02  0.45277430839E+02 -0.12903337224E+01  0.62369276987E+02  0.10000000000E+01 0.  0.
<mgrwt>
<rscale>  0 0.12499955E+03</rscale>
<asrwt>0</asrwt>
<pdfrwt beam="2">  1        4 0.10506178E-01 0.12499955E+03</pdfrwt>
<pdfrwt beam="1">  1       -4 0.88000560E-02 0.12499955E+03</pdfrwt>
<totfact> 0.10442270E+04</totfact>
</mgrwt>
</event>
<event>
 5    1  0.3269032E-002  0.1250005E+03  0.7818608E-02  0.1235069E+00
          4   -1    0    0  501    0  0.00000000000E+00  0.00000000000E+00  0.34937922095E+02  0.34960996844E+02  0.12700000000E+01 0.  1.
         -4   -1    0    0    0  501 -0.00000000000E+00 -0.00000000000E+00 -0.11174270527E+03  0.11174992206E+03  0.12700000000E+01 0.  1.
         25    2    1    2    0    0  0.00000000000E+00  0.00000000000E+00 -0.76804783174E+02  0.14671091891E+03  0.12500047603E+03 0.  0.
    9000005    1    3    3    0    0 -0.31736221979E+02 -0.50451765075E+02 -0.60444873776E+02  0.84894941843E+02  0.10000000000E+01 0.  0.
    9000005    1    3    3    0    0  0.31736221979E+02  0.50451765075E+02 -0.16359909399E+02  0.61815977063E+02  0.10000000000E+01 0.  0.
<mgrwt>
<rscale>  0 0.12500048E+03</rscale>
<asrwt>0</asrwt>
<pdfrwt beam="1">  1        4 0.53773951E-02 0.12500048E+03</pdfrwt>
<pdfrwt beam="2">  1       -4 0.17193515E-01 0.12500048E+03</pdfrwt>
<totfact> 0.99962344E+03</totfact>
</mgrwt>
</event>
<event>
 5    1  0.3269032E-002  0.1249966E+03  0.7818608E-02  0.1235075E+00
          4   -1    0    0  501    0  0.00000000000E+00  0.00000000000E+00  0.42891126170E+03  0.42891314192E+03  0.12700000000E+01 0.  1.
         -4   -1    0    0    0  501 -0.00000000000E+00 -0.00000000000E+00 -0.90606757858E+01  0.91492483677E+01  0.12700000000E+01 0.  1.
         25    2    1    2    0    0  0.00000000000E+00  0.00000000000E+00  0.41985058592E+03  0.43806239029E+03  0.12499657313E+03 0.  0.
    9000005    1    3    3    0    0 -0.47999874652E+02 -0.21959941638E+02  0.92701491076E+02  0.10668080170E+03  0.10000000000E+01 0.  0.
    9000005    1    3    3    0    0  0.47999874652E+02  0.21959941638E+02  0.32714909484E+03  0.33138158859E+03  0.10000000000E+01 0.  0.
<mgrwt>
<rscale>  0 0.12499657E+03</rscale>
<asrwt>0</asrwt>
<pdfrwt beam="1">  1        4 0.65993305E-01 0.12499657E+03</pdfrwt>
<pdfrwt beam="2">  1       -4 0.14009081E-02 0.12499657E+03</pdfrwt>
<totfact> 0.61016530E+03</totfact>
</mgrwt>
</event>
<event>
 5    1  0.3269032E-002  0.1249987E+03  0.7818608E-02  0.1235071E+00
          4   -1    0    0  501    0  0.00000000000E+00  0.00000000000E+00  0.13624925880E+02  0.13683987183E+02  0.12700000000E+01 0. -1.
         -4   -1    0    0    0  501 -0.00000000000E+00 -0.00000000000E+00 -0.28601212666E+03  0.28601494628E+03  0.12700000000E+01 0. -1.
         25    2    1    2    0    0  0.00000000000E+00  0.00000000000E+00 -0.27238720078E+03  0.29969893347E+03  0.12499865428E+03 0.  0.
    9000005    1    3    3    0    0 -0.41645427713E+02 -0.13937150826E+02 -0.29598543426E+02  0.52968477375E+02  0.10000000000E+01 0.  0.
    9000005    1    3    3    0    0  0.41645427713E+02  0.13937150826E+02 -0.24278865736E+03  0.24673045609E+03  0.10000000000E+01 0.  0.
<mgrwt>
<rscale>  0 0.12499865E+03</rscale>
<asrwt>0</asrwt>
<pdfrwt beam="1">  1        4 0.21009027E-02 0.12499865E+03</pdfrwt>
<pdfrwt beam="2">  1       -4 0.44006621E-01 0.12499865E+03</pdfrwt>
<totfact> 0.75638881E+03</totfact>
</mgrwt>
</event>
<event>
 5    1  0.3269032E-002  0.1250007E+03  0.7818608E-02  0.1235068E+00
          4   -1    0    0  501    0  0.00000000000E+00  0.00000000000E+00  0.23336400251E+02  0.23370932302E+02  0.12700000000E+01 0.  1.
         -4   -1    0    0    0  501 -0.00000000000E+00 -0.00000000000E+00 -0.16722992988E+03  0.16723475221E+03  0.12700000000E+01 0.  1.
         25    2    1    2    0    0  0.00000000000E+00  0.00000000000E+00 -0.14389352963E+03  0.19060568451E+03  0.12500071640E+03 0.  0.
    9000005    1    3    3    0    0  0.21689013369E+02 -0.51964177360E+02 -0.30618182601E+02  0.64102746707E+02  0.10000000000E+01 0.  0.
    9000005    1    3    3    0    0 -0.21689013369E+02  0.51964177360E+02 -0.11327534703E+03  0.12650293781E+03  0.10000000000E+01 0.  0.
<mgrwt>
<rscale>  0 0.12500072E+03</rscale>
<asrwt>0</asrwt>
<pdfrwt beam="1">  1        4 0.35932428E-02 0.12500072E+03</pdfrwt>
<pdfrwt beam="2">  1       -4 0.25730708E-01 0.12500072E+03</pdfrwt>
<totfact> 0.91740562E+03</totfact>
</mgrwt>
</event>
<event>
 5    1  0.3269032E-002  0.1250027E+03  0.7818608E-02  0.1235065E+00
          4   -1    0    0  501    0  0.00000000000E+00  0.00000000000E+00  0.63032640032E+01  0.64299328996E+01  0.12700000000E+01 0.  1.
         -4   -1    0    0    0  501 -0.00000000000E+00 -0.00000000000E+00 -0.61345278881E+03  0.61345410341E+03  0.12700000000E+01 0.  1.
         25    2    1    2    0    0  0.00000000000E+00  0.00000000000E+00 -0.60714952480E+03  0.61988403631E+03  0.12500269200E+03 0.  0.
    9000005    1    3    3    0    0  0.11502926462E+02 -0.29566096638E+02 -0.57057473323E+03  0.57145690790E+03  0.10000000000E+01 0.  0.
    9000005    1    3    3    0    0 -0.11502926462E+02  0.29566096638E+02 -0.36574791574E+02  0.48427128412E+02  0.10000000000E+01 0.  0.
<mgrwt>
<rscale>  0 0.12500269E+03</rscale>
<asrwt>0</asrwt>
<pdfrwt beam="1">  1        4 0.97957830E-03 0.12500269E+03</pdfrwt>
<pdfrwt beam="2">  1       -4 0.94387150E-01 0.12500269E+03</pdfrwt>
<totfact> 0.47633263E+03</totfact>
</mgrwt>
</event>
<event>
 5    1  0.3269032E-002  0.1250016E+03  0.7818608E-02  0.1235067E+00
          4   -1    0    0  501    0  0.00000000000E+00  0.00000000000E+00  0.12050581997E+02  0.12117319277E+02  0.12700000000E+01 0. -1.
         -4   -1    0    0    0  501 -0.00000000000E+00 -0.00000000000E+00 -0.32319979233E+03  0.32320228753E+03  0.12700000000E+01 0. -1.
         25    2    1    2    0    0  0.00000000000E+00  0.00000000000E+00 -0.31114921033E+03  0.33531960680E+03  0.12500163045E+03 0.  0.
    9000005    1    3    3    0    0  0.50535639352E+02 -0.18082510614E+02 -0.24143725969E+03  0.24733333459E+03  0.10000000000E+01 0.  0.
    9000005    1    3    3    0    0 -0.50535639352E+02  0.18082510614E+02 -0.69711950645E+02  0.87986272210E+02  0.10000000000E+01 0.  0.
<mgrwt>
<rscale>  0 0.12500163E+03</rscale>
<asrwt>0</asrwt>
<pdfrwt beam="1">  1        4 0.18592615E-02 0.12500163E+03</pdfrwt>
<pdfrwt beam="2">  1       -4 0.49728364E-01 0.12500163E+03</pdfrwt>
<totfact> 0.71367784E+03</totfact>
</mgrwt>
</event>
<event>
 5    1  0.3269032E-002  0.1250013E+03  0.7818608E-02  0.1235067E+00
          4   -1    0    0  501    0  0.00000000000E+00  0.00000000000E+00  0.47175826589E+02  0.47192918053E+02  0.12700000000E+01 0. -1.
         -4   -1    0    0    0  501 -0.00000000000E+00 -0.00000000000E+00 -0.82766722255E+02  0.82776465332E+02  0.12700000000E+01 0. -1.
         25    2    1    2    0    0  0.00000000000E+00  0.00000000000E+00 -0.35590895666E+02  0.12996938338E+03  0.12500131505E+03 0.  0.
    9000005    1    3    3    0    0 -0.37365935571E+02 -0.48419601933E+02 -0.31137483961E+02  0.68638283049E+02  0.10000000000E+01 0.  0.
    9000005    1    3    3    0    0  0.37365935571E+02  0.48419601933E+02 -0.44534117047E+01  0.61331100335E+02  0.10000000000E+01 0.  0.
<mgrwt>
<rscale>  0 0.12500132E+03</rscale>
<asrwt>0</asrwt>
<pdfrwt beam="1">  1        4 0.72598837E-02 0.12500132E+03</pdfrwt>
<pdfrwt beam="2">  1       -4 0.12735406E-01 0.12500132E+03</pdfrwt>
<totfact> 0.10344855E+04</totfact>
</mgrwt>
</event>
<event>
 5    1  0.3269032E-002  0.1250011E+03  0.7818608E-02  0.1235068E+00
          4   -1    0    0  501    0  0.00000000000E+00  0.00000000000E+00  0.11853887413E+03  0.11854567719E+03  0.12700000000E+01 0.  1.
         -4   -1    0    0    0  501 -0.00000000000E+00 -0.00000000000E+00 -0.32933915689E+02  0.32958393508E+02  0.12700000000E+01 0.  1.
         25    2    1    2    0    0  0.00000000000E+00  0.00000000000E+00  0.85604958439E+02  0.15150407069E+03  0.12500109811E+03 0.  0.
    9000005    1    3    3    0    0 -0.39047538835E+02 -0.70543448498E+01 -0.15712510069E+02  0.42689074047E+02  0.10000000000E+01 0.  0.
    9000005    1    3    3    0    0  0.39047538835E+02  0.70543448498E+01  0.10131746851E+03  0.10881499665E+03  0.10000000000E+01 0.  0.
<mgrwt>
<rscale>  0 0.12500110E+03</rscale>
<asrwt>0</asrwt>
<pdfrwt beam="1">  1        4 0.18239156E-01 0.12500110E+03</pdfrwt>
<pdfrwt beam="2">  1       -4 0.50691626E-02 0.12500110E+03</pdfrwt>
<totfact> 0.99002279E+03</totfact>
</mgrwt>
</event>
<event>
 4    1  0.3269032E-002  0.1252715E+03  0.7818608E-02  0.1234646E+00
         -4   -1    0    0    0  501 -0.00000000000E+00  0.00000000000E+00  0.30100062748E+01  0.32669615508E+01  0.12700000000E+01 0.  1.
          4   -1    0    0  501    0  0.00000000000E+00 -0.00000000000E+00 -0.12497847000E+04  0.12497853453E+04  0.12700000000E+01 0.  1.
    9000005    1    1    2    0    0  0.55495395359E+02 -0.28934962943E+02 -0.60043406884E+03  0.60368786803E+03  0.10000000000E+01 0.  0.
    9000005    1    1    2    0    0 -0.55495395359E+02  0.28934962943E+02 -0.64634062493E+03  0.64936443884E+03  0.10000000000E+01 0.  0.
<mgrwt>
<rscale>  0 0.12527149E+03</rscale>
<asrwt>0</asrwt>
<pdfrwt beam="2">  1        4 0.19229399E+00 0.12527149E+03</pdfrwt>
<pdfrwt beam="1">  1       -4 0.48289431E-03 0.12527149E+03</pdfrwt>
<totfact> 0.23226577E+03</totfact>
</mgrwt>
</event>
<event>
 5    1  0.3269032E-002  0.1250028E+03  0.7818608E-02  0.1235065E+00
         -4   -1    0    0    0  501 -0.00000000000E+00  0.00000000000E+00  0.41086577727E+02  0.41106201105E+02  0.12700000000E+01 0. -1.
          4   -1    0    0  501    0  0.00000000000E+00 -0.00000000000E+00 -0.95031372303E+02  0.95039858069E+02  0.12700000000E+01 0. -1.
         25    2    1    2    0    0  0.00000000000E+00  0.00000000000E+00 -0.53944794576E+02  0.13614605917E+03  0.12500283423E+03 0.  0.
    9000005    1    3    3    0    0 -0.29079936904E+02 -0.51414607520E+02 -0.49195269029E+02  0.76878339548E+02  0.10000000000E+01 0.  0.
    9000005    1    3    3    0    0  0.29079936904E+02  0.51414607520E+02 -0.47495255470E+01  0.59267719626E+02  0.10000000000E+01 0.  0.
<mgrwt>
<rscale>  0 0.12500283E+03</rscale>
<asrwt>0</asrwt>
<pdfrwt beam="2">  1        4 0.14622373E-01 0.12500283E+03</pdfrwt>
<pdfrwt beam="1">  1       -4 0.63231742E-02 0.12500283E+03</pdfrwt>
<totfact> 0.10213318E+04</totfact>
</mgrwt>
</event>
<event>
 5    1  0.3269032E-002  0.1250107E+03  0.7818608E-02  0.1235053E+00
          4   -1    0    0  501    0  0.00000000000E+00  0.00000000000E+00  0.91663293550E+01  0.92538907409E+01  0.12700000000E+01 0.  1.
         -4   -1    0    0    0  501 -0.00000000000E+00 -0.00000000000E+00 -0.42411065561E+03  0.42411255711E+03  0.12700000000E+01 0.  1.
         25    2    1    2    0    0  0.00000000000E+00  0.00000000000E+00 -0.41494432625E+03  0.43336644785E+03  0.12501073648E+03 0.  0.
    9000005    1    3    3    0    0  0.44100407400E+02 -0.30270695027E+02 -0.31952330065E+03  0.32397114156E+03  0.10000000000E+01 0.  0.
    9000005    1    3    3    0    0 -0.44100407400E+02  0.30270695027E+02 -0.95421025606E+02  0.10939530629E+03  0.10000000000E+01 0.  0.
<mgrwt>
<rscale>  0 0.12501074E+03</rscale>
<asrwt>0</asrwt>
<pdfrwt beam="1">  1        4 0.14170866E-02 0.12501074E+03</pdfrwt>
<pdfrwt beam="2">  1       -4 0.65254660E-01 0.12501074E+03</pdfrwt>
<totfact> 0.61417493E+03</totfact>
</mgrwt>
</event>
<event>
 5    1  0.3269032E-002  0.1250006E+03  0.7818608E-02  0.1235068E+00
         -4   -1    0    0    0  501 -0.00000000000E+00  0.00000000000E+00  0.75678988319E+03  0.75679094881E+03  0.12700000000E+01 0.  1.
          4   -1    0    0  501    0  0.00000000000E+00 -0.00000000000E+00 -0.50824460266E+01  0.52387171725E+01  0.12700000000E+01 0.  1.
         25    2    1    2    0    0  0.00000000000E+00  0.00000000000E+00  0.75170743716E+03  0.76202966598E+03  0.12500056299E+03 0.  0.
    9000005    1    3    3    0    0 -0.52517535259E+02  0.11617367307E+02  0.18189933055E+03  0.18968769382E+03  0.10000000000E+01 0.  0.
    9000005    1    3    3    0    0  0.52517535259E+02 -0.11617367307E+02  0.56980810662E+03  0.57234197216E+03  0.10000000000E+01 0.  0.
<mgrwt>
<rscale>  0 0.12500056E+03</rscale>
<asrwt>0</asrwt>
<pdfrwt beam="2">  1        4 0.79401784E-03 0.12500056E+03</pdfrwt>
<pdfrwt beam="1">  1       -4 0.11644128E+00 0.12500056E+03</pdfrwt>
<totfact> 0.40004781E+03</totfact>
</mgrwt>
</event>
<event>
 5    1  0.3269032E-002  0.1249937E+03  0.7818608E-02  0.1235079E+00
         -4   -1    0    0    0  501 -0.00000000000E+00  0.00000000000E+00  0.78316953057E+03  0.78317056030E+03  0.12700000000E+01 0.  1.
          4   -1    0    0  501    0  0.00000000000E+00 -0.00000000000E+00 -0.49053384238E+01  0.50670746050E+01  0.12700000000E+01 0.  1.
         25    2    1    2    0    0  0.00000000000E+00  0.00000000000E+00  0.77826419215E+03  0.78823763490E+03  0.12499366502E+03 0.  0.
    9000005    1    3    3    0    0 -0.47384311247E+02  0.12796518143E+02  0.63303126435E+03  0.63493196917E+03  0.10000000000E+01 0.  0.
    9000005    1    3    3    0    0  0.47384311247E+02 -0.12796518143E+02  0.14523292779E+03  0.15330566573E+03  0.10000000000E+01 0.  0.
<mgrwt>
<rscale>  0 0.12499367E+03</rscale>
<asrwt>0</asrwt>
<pdfrwt beam="2">  1        4 0.76718801E-03 0.12499367E+03</pdfrwt>
<pdfrwt beam="1">  1       -4 0.12050012E+00 0.12499367E+03</pdfrwt>
<totfact> 0.38800630E+03</totfact>
</mgrwt>
</event>
<event>
 5    1  0.3269032E-002  0.1250003E+03  0.7818608E-02  0.1235069E+00
         -4   -1    0    0    0  501 -0.00000000000E+00  0.00000000000E+00  0.60877796585E+01  0.62188392141E+01  0.12700000000E+01 0.  1.
          4   -1    0    0  501    0  0.00000000000E+00 -0.00000000000E+00 -0.63469223004E+03  0.63469350065E+03  0.12700000000E+01 0.  1.
         25    2    1    2    0    0  0.00000000000E+00  0.00000000000E+00 -0.62860445038E+03  0.64091233987E+03  0.12500028943E+03 0.  0.
    9000005    1    3    3    0    0 -0.23021874366E+02  0.10778349936E+02 -0.60701096900E+03  0.60754382230E+03  0.10000000000E+01 0.  0.
    9000005    1    3    3    0    0  0.23021874366E+02 -0.10778349936E+02 -0.21593481381E+02  0.33368517570E+02  0.10000000000E+01 0.  0.
<mgrwt>
<rscale>  0 0.12500029E+03</rscale>
<asrwt>0</asrwt>
<pdfrwt beam="2">  1        4 0.97655086E-01 0.12500029E+03</pdfrwt>
<pdfrwt beam="1">  1       -4 0.94676123E-03 0.12500029E+03</pdfrwt>
<totfact> 0.46382572E+03</totfact>
</mgrwt>
</event>
<event>
 5    1  0.3269032E-002  0.1249991E+03  0.7818608E-02  0.1235071E+00
          4   -1    0    0  501    0  0.00000000000E+00  0.00000000000E+00  0.40798362403E+03  0.40798560070E+03  0.12700000000E+01 0.  1.
         -4   -1    0    0    0  501 -0.00000000000E+00 -0.00000000000E+00 -0.95302585473E+01  0.96145061224E+01  0.12700000000E+01 0.  1.
         25    2    1    2    0    0  0.00000000000E+00  0.00000000000E+00  0.39845336549E+03  0.41760010682E+03  0.12499905900E+03 0.  0.
    9000005    1    3    3    0    0  0.41938490166E+02  0.31491083820E+02  0.31274920245E+03  0.31711762637E+03  0.10000000000E+01 0.  0.
    9000005    1    3    3    0    0 -0.41938490166E+02 -0.31491083820E+02  0.85704163035E+02  0.10048248046E+03  0.10000000000E+01 0.  0.
<mgrwt>
<rscale>  0 0.12499906E+03</rscale>
<asrwt>0</asrwt>
<pdfrwt beam="1">  1        4 0.62773333E-01 0.12499906E+03</pdfrwt>
<pdfrwt beam="2">  1       -4 0.14728265E-02 0.12499906E+03</pdfrwt>
<totfact> 0.62877588E+03</totfact>
</mgrwt>
</event>
<event>
 5    1  0.3269032E-002  0.1250022E+03  0.7818608E-02  0.1235066E+00
         -4   -1    0    0    0  501 -0.00000000000E+00  0.00000000000E+00  0.18972643341E+02  0.19015101770E+02  0.12700000000E+01 0.  1.
          4   -1    0    0  501    0  0.00000000000E+00 -0.00000000000E+00 -0.20562122399E+03  0.20562514597E+03  0.12700000000E+01 0.  1.
         25    2    1    2    0    0  0.00000000000E+00  0.00000000000E+00 -0.18664858065E+03  0.22464024774E+03  0.12500219297E+03 0.  0.
    9000005    1    3    3    0    0  0.36141648661E+02  0.50733724566E+02 -0.84292684159E+02  0.10481596338E+03  0.10000000000E+01 0.  0.
    9000005    1    3    3    0    0 -0.36141648661E+02 -0.50733724566E+02 -0.10235589649E+03  0.11982428436E+03  0.10000000000E+01 0.  0.
<mgrwt>
<rscale>  0 0.12500219E+03</rscale>
<asrwt>0</asrwt>
<pdfrwt beam="2">  1        4 0.31637601E-01 0.12500219E+03</pdfrwt>
<pdfrwt beam="1">  1       -4 0.29224361E-02 0.12500219E+03</pdfrwt>
<totfact> 0.86135158E+03</totfact>
</mgrwt>
</event>
<event>
 5    1  0.3269032E-002  0.1250026E+03  0.7818608E-02  0.1235065E+00
          4   -1    0    0  501    0  0.00000000000E+00  0.00000000000E+00  0.39941927628E+02  0.39962113090E+02  0.12700000000E+01 0.  1.
         -4   -1    0    0    0  501 -0.00000000000E+00 -0.00000000000E+00 -0.97753273733E+02  0.97761523237E+02  0.12700000000E+01 0.  1.
         25    2    1    2    0    0  0.00000000000E+00  0.00000000000E+00 -0.57811346105E+02  0.13772363633E+03  0.12500259303E+03 0.  0.
    9000005    1    3    3    0    0  0.19998500818E+02 -0.34786059275E+02 -0.81691684456E+02  0.91019455415E+02  0.10000000000E+01 0.  0.
    9000005    1    3    3    0    0 -0.19998500818E+02  0.34786059275E+02  0.23880338351E+02  0.46704180911E+02  0.10000000000E+01 0.  0.
<mgrwt>
<rscale>  0 0.12500259E+03</rscale>
<asrwt>0</asrwt>
<pdfrwt beam="1">  1        4 0.61470993E-02 0.12500259E+03</pdfrwt>
<pdfrwt beam="2">  1       -4 0.15041152E-01 0.12500259E+03</pdfrwt>
<totfact> 0.10180382E+04</totfact>
</mgrwt>
</event>
<event>
 5    1  0.3269032E-002  0.1249956E+03  0.7818608E-02  0.1235076E+00
          4   -1    0    0  501    0  0.00000000000E+00  0.00000000000E+00  0.27557268983E+02  0.27586517972E+02  0.12700000000E+01 0.  1.
         -4   -1    0    0    0  501 -0.00000000000E+00 -0.00000000000E+00 -0.14163310965E+03  0.14163880347E+03  0.12700000000E+01 0.  1.
         25    2    1    2    0    0  0.00000000000E+00  0.00000000000E+00 -0.11407584067E+03  0.16922532144E+03  0.12499564790E+03 0.  0.
    9000005    1    3    3    0    0  0.28815232787E+02 -0.60043987467E+01  0.17591103722E+02  0.34304771899E+02  0.10000000000E+01 0.  0.
    9000005    1    3    3    0    0 -0.28815232787E+02  0.60043987467E+01 -0.13166694439E+03  0.13492054955E+03  0.10000000000E+01 0.  0.
<mgrwt>
<rscale>  0 0.12499565E+03</rscale>
<asrwt>0</asrwt>
<pdfrwt beam="1">  1        4 0.42422678E-02 0.12499565E+03</pdfrwt>
<pdfrwt beam="2">  1       -4 0.21792397E-01 0.12499565E+03</pdfrwt>
<totfact> 0.95602456E+03</totfact>
</mgrwt>
</event>
<event>
 5    1  0.3269032E-002  0.1249930E+03  0.7818608E-02  0.1235080E+00
         -4   -1    0    0    0  501 -0.00000000000E+00  0.00000000000E+00  0.35400471323E+02  0.35423244768E+02  0.12700000000E+01 0.  1.
          4   -1    0    0  501    0  0.00000000000E+00 -0.00000000000E+00 -0.11027030014E+03  0.11027761329E+03  0.12700000000E+01 0.  1.
         25    2    1    2    0    0  0.00000000000E+00  0.00000000000E+00 -0.74869828813E+02  0.14570085805E+03  0.12499299489E+03 0.  0.
    9000005    1    3    3    0    0  0.22318424161E+02  0.57449338423E+02 -0.25418103290E+02  0.66675471630E+02  0.10000000000E+01 0.  0.
    9000005    1    3    3    0    0 -0.22318424161E+02 -0.57449338423E+02 -0.49451725523E+02  0.79025386424E+02  0.10000000000E+01 0.  0.
<mgrwt>
<rscale>  0 0.12499299E+03</rscale>
<asrwt>0</asrwt>
<pdfrwt beam="2">  1        4 0.16966976E-01 0.12499299E+03</pdfrwt>
<pdfrwt beam="1">  1       -4 0.54485408E-02 0.12499299E+03</pdfrwt>
<totfact> 0.10018348E+04</totfact>
</mgrwt>
</event>
<event>
 5    1  0.3269032E-002  0.1249997E+03  0.7818608E-02  0.1235070E+00
         -4   -1    0    0    0  501 -0.00000000000E+00  0.00000000000E+00  0.21766689859E+02  0.21803708111E+02  0.12700000000E+01 0. -1.
          4   -1    0    0  501    0  0.00000000000E+00 -0.00000000000E+00 -0.17926741516E+03  0.17927191370E+03  0.12700000000E+01 0. -1.
         25    2    1    2    0    0  0.00000000000E+00  0.00000000000E+00 -0.15750072531E+03  0.20107562181E+03  0.12499970885E+03 0.  0.
    9000005    1    3    3    0    0  0.27190616095E+01 -0.54170818831E+02 -0.12867844955E+03  0.13964603213E+03  0.10000000000E+01 0.  0.
    9000005    1    3    3    0    0 -0.27190616095E+01  0.54170818831E+02 -0.28822275752E+02  0.61429589681E+02  0.10000000000E+01 0.  0.
<mgrwt>
<rscale>  0 0.12499971E+03</rscale>
<asrwt>0</asrwt>
<pdfrwt beam="2">  1        4 0.27582795E-01 0.12499971E+03</pdfrwt>
<pdfrwt beam="1">  1       -4 0.33519152E-02 0.12499971E+03</pdfrwt>
<totfact> 0.89954997E+03</totfact>
</mgrwt>
</event>
<event>
 5    1  0.3269032E-002  0.1249877E+03  0.7818608E-02  0.1235088E+00
          4   -1    0    0  501    0  0.00000000000E+00  0.00000000000E+00  0.16230467265E+03  0.16230964131E+03  0.12700000000E+01 0.  1.
         -4   -1    0    0    0  501 -0.00000000000E+00 -0.00000000000E+00 -0.24040561831E+02  0.24074083848E+02  0.12700000000E+01 0.  1.
         25    2    1    2    0    0  0.00000000000E+00  0.00000000000E+00  0.13826411082E+03  0.18638372516E+03  0.12498771406E+03 0.  0.
    9000005    1    3    3    0    0 -0.31026106598E+02  0.33863184156E+02  0.13231367406E+03  0.14006156816E+03  0.10000000000E+01 0.  0.
    9000005    1    3    3    0    0  0.31026106598E+02 -0.33863184156E+02  0.59504367570E+01  0.46322157003E+02  0.10000000000E+01 0.  0.
<mgrwt>
<rscale>  0 0.12498771E+03</rscale>
<asrwt>0</asrwt>
<pdfrwt beam="1">  1        4 0.24972911E-01 0.12498771E+03</pdfrwt>
<pdfrwt beam="2">  1       -4 0.37015086E-02 0.12498771E+03</pdfrwt>
<totfact> 0.92505833E+03</totfact>
</mgrwt>
</event>
<event>
 5    1  0.3269032E-002  0.1249985E+03  0.7818608E-02  0.1235072E+00
         -4   -1    0    0    0  501 -0.00000000000E+00  0.00000000000E+00  0.48070184472E+03  0.48070352236E+03  0.12700000000E+01 0. -1.
          4   -1    0    0  501    0  0.00000000000E+00 -0.00000000000E+00 -0.80746248205E+01  0.81738892818E+01  0.12700000000E+01 0. -1.
         25    2    1    2    0    0  0.00000000000E+00  0.00000000000E+00  0.47262721990E+03  0.48887741165E+03  0.12499853852E+03 0.  0.
    9000005    1    3    3    0    0  0.19357137509E+02  0.41710288693E+01  0.46812670648E+03  0.46854637932E+03  0.10000000000E+01 0.  0.
    9000005    1    3    3    0    0 -0.19357137509E+02 -0.41710288693E+01  0.45005134144E+01  0.20331032325E+02  0.10000000000E+01 0.  0.
<mgrwt>
<rscale>  0 0.12499854E+03</rscale>
<asrwt>0</asrwt>
<pdfrwt beam="2">  1        4 0.12500150E-02 0.12499854E+03</pdfrwt>
<pdfrwt beam="1">  1       -4 0.73961881E-01 0.12499854E+03</pdfrwt>
<totfact> 0.56739618E+03</totfact>
</mgrwt>
</event>
<event>
 5    1  0.3269032E-002  0.1250010E+03  0.7818608E-02  0.1235068E+00
          4   -1    0    0  501    0  0.00000000000E+00  0.00000000000E+00  0.69846540851E+02  0.69858085923E+02  0.12700000000E+01 0.  1.
         -4   -1    0    0    0  501 -0.00000000000E+00 -0.00000000000E+00 -0.55903652275E+02  0.55918076127E+02  0.12700000000E+01 0.  1.
         25    2    1    2    0    0  0.00000000000E+00  0.00000000000E+00  0.13942888576E+02  0.12577616205E+03  0.12500095519E+03 0.  0.
    9000005    1    3    3    0    0 -0.59259744894E+02  0.63178143096E+01 -0.11951502052E+02  0.60790382001E+02  0.10000000000E+01 0.  0.
    9000005    1    3    3    0    0  0.59259744894E+02 -0.63178143096E+01  0.25894390628E+02  0.64985780048E+02  0.10000000000E+01 0.  0.
<mgrwt>
<rscale>  0 0.12500096E+03</rscale>
<asrwt>0</asrwt>
<pdfrwt beam="1">  1        4 0.10747619E-01 0.12500096E+03</pdfrwt>
<pdfrwt beam="2">  1       -4 0.86025595E-02 0.12500096E+03</pdfrwt>
<totfact> 0.10435644E+04</totfact>
</mgrwt>
</event>
<event>
 5    1  0.3269032E-002  0.1250015E+03  0.7818608E-02  0.1235067E+00
          4   -1    0    0  501    0  0.00000000000E+00  0.00000000000E+00  0.35494420757E+01  0.37698062349E+01  0.12700000000E+01 0.  1.
         -4   -1    0    0    0  501 -0.00000000000E+00 -0.00000000000E+00 -0.10671963462E+04  0.10671971019E+04  0.12700000000E+01 0.  1.
         25    2    1    2    0    0  0.00000000000E+00  0.00000000000E+00 -0.10636469042E+04  0.10709669081E+04  0.12500152641E+03 0.  0.
    9000005    1    3    3    0    0 -0.28028602114E+02 -0.24251217651E+02 -0.10074123618E+03  0.10734766304E+03  0.10000000000E+01 0.  0.
    9000005    1    3    3    0    0  0.28028602114E+02  0.24251217651E+02 -0.96290566798E+03  0.96361924510E+03  0.10000000000E+01 0.  0.
<mgrwt>
<rscale>  0 0.12500153E+03</rscale>
<asrwt>0</asrwt>
<pdfrwt beam="1">  1        4 0.56307808E-03 0.12500153E+03</pdfrwt>
<pdfrwt beam="2">  1       -4 0.16420081E+00 0.12500153E+03</pdfrwt>
<totfact> 0.28348134E+03</totfact>
</mgrwt>
</event>
<event>
 5    1  0.3269032E-002  0.1250074E+03  0.7818608E-02  0.1235058E+00
          4   -1    0    0  501    0  0.00000000000E+00  0.00000000000E+00  0.58113362621E+02  0.58127238151E+02  0.12700000000E+01 0. -1.
         -4   -1    0    0    0  501 -0.00000000000E+00 -0.00000000000E+00 -0.67197831904E+02  0.67209831963E+02  0.12700000000E+01 0. -1.
         25    2    1    2    0    0  0.00000000000E+00  0.00000000000E+00 -0.90844692830E+01  0.12533707011E+03  0.12500741403E+03 0.  0.
    9000005    1    3    3    0    0  0.49132613864E+02  0.38075131231E+02 -0.11038829965E+02  0.63139410279E+02  0.10000000000E+01 0.  0.
    9000005    1    3    3    0    0 -0.49132613864E+02 -0.38075131231E+02  0.19543606825E+01  0.62197659836E+02  0.10000000000E+01 0.  0.
<mgrwt>
<rscale>  0 0.12500741E+03</rscale>
<asrwt>0</asrwt>
<pdfrwt beam="1">  1        4 0.89425078E-02 0.12500741E+03</pdfrwt>
<pdfrwt beam="2">  1       -4 0.10340118E-01 0.12500741E+03</pdfrwt>
<totfact> 0.10443796E+04</totfact>
</mgrwt>
</event>
<event>
 5    1  0.3269032E-002  0.1250005E+03  0.7818608E-02  0.1235068E+00
         -4   -1    0    0    0  501 -0.00000000000E+00  0.00000000000E+00  0.13173348855E+02  0.13234425565E+02  0.12700000000E+01 0. -1.
          4   -1    0    0  501    0  0.00000000000E+00 -0.00000000000E+00 -0.29578092031E+03  0.29578364681E+03  0.12700000000E+01 0. -1.
         25    2    1    2    0    0  0.00000000000E+00  0.00000000000E+00 -0.28260757146E+03  0.30901807238E+03  0.12500051844E+03 0.  0.
    9000005    1    3    3    0    0  0.49534840218E+02  0.36184480315E+02 -0.17079018191E+03  0.18147535162E+03  0.10000000000E+01 0.  0.
    9000005    1    3    3    0    0 -0.49534840218E+02 -0.36184480315E+02 -0.11181738955E+03  0.12754272075E+03  0.10000000000E+01 0.  0.
<mgrwt>
<rscale>  0 0.12500052E+03</rscale>
<asrwt>0</asrwt>
<pdfrwt beam="2">  1        4 0.45509660E-01 0.12500052E+03</pdfrwt>
<pdfrwt beam="1">  1       -4 0.20315772E-02 0.12500052E+03</pdfrwt>
<totfact> 0.74480521E+03</totfact>
</mgrwt>
</event>
<event>
 5    1  0.3269032E-002  0.1249977E+03  0.7818608E-02  0.1235073E+00
          4   -1    0    0  501    0  0.00000000000E+00  0.00000000000E+00  0.21335604794E+03  0.21335982774E+03  0.12700000000E+01 0.  1.
         -4   -1    0    0    0  501 -0.00000000000E+00 -0.00000000000E+00 -0.18281953351E+02  0.18326012068E+02  0.12700000000E+01 0.  1.
         25    2    1    2    0    0  0.00000000000E+00  0.00000000000E+00  0.19507409459E+03  0.23168583981E+03  0.12499770393E+03 0.  0.
    9000005    1    3    3    0    0 -0.34590872275E+02 -0.66286264894E+01  0.19321605782E+03  0.19640242395E+03  0.10000000000E+01 0.  0.
    9000005    1    3    3    0    0  0.34590872275E+02  0.66286264894E+01  0.18580367701E+01  0.35283415857E+02  0.10000000000E+01 0.  0.
<mgrwt>
<rscale>  0 0.12499770E+03</rscale>
<asrwt>0</asrwt>
<pdfrwt beam="1">  1        4 0.32827690E-01 0.12499770E+03</pdfrwt>
<pdfrwt beam="2">  1       -4 0.28162879E-02 0.12499770E+03</pdfrwt>
<totfact> 0.85055759E+03</totfact>
</mgrwt>
</event>
<event>
 5    1  0.3269032E-002  0.1249972E+03  0.7818608E-02  0.1235074E+00
         -4   -1    0    0    0  501 -0.00000000000E+00  0.00000000000E+00  0.22000876350E+03  0.22001242901E+03  0.12700000000E+01 0. -1.
          4   -1    0    0  501    0  0.00000000000E+00 -0.00000000000E+00 -0.17727662229E+02  0.17773095063E+02  0.12700000000E+01 0. -1.
         25    2    1    2    0    0  0.00000000000E+00  0.00000000000E+00  0.20228110127E+03  0.23778552407E+03  0.12499724607E+03 0.  0.
    9000005    1    3    3    0    0  0.21880018568E+02 -0.58534794897E+02  0.10086847706E+03  0.11866131253E+03  0.10000000000E+01 0.  0.
    9000005    1    3    3    0    0 -0.21880018568E+02  0.58534794897E+02  0.10141262421E+03  0.11912421154E+03  0.10000000000E+01 0.  0.
<mgrwt>
<rscale>  0 0.12499725E+03</rscale>
<asrwt>0</asrwt>
<pdfrwt beam="2">  1        4 0.27311096E-02 0.12499725E+03</pdfrwt>
<pdfrwt beam="1">  1       -4 0.33851277E-01 0.12499725E+03</pdfrwt>
<totfact> 0.84133450E+03</totfact>
</mgrwt>
</event>
<event>
 5    1  0.3269032E-002  0.1249958E+03  0.7818608E-02  0.1235076E+00
          4   -1    0    0  501    0  0.00000000000E+00  0.00000000000E+00  0.10950055530E+03  0.10950791985E+03  0.12700000000E+01 0. -1.
         -4   -1    0    0    0  501 -0.00000000000E+00 -0.00000000000E+00 -0.35651082683E+02  0.35673696142E+02  0.12700000000E+01 0. -1.
         25    2    1    2    0    0  0.00000000000E+00  0.00000000000E+00  0.73849472615E+02  0.14518161600E+03  0.12499582800E+03 0.  0.
    9000005    1    3    3    0    0 -0.29610755538E+02  0.21809122779E+02  0.95606563282E+02  0.10244046868E+03  0.10000000000E+01 0.  0.
    9000005    1    3    3    0    0  0.29610755538E+02 -0.21809122779E+02 -0.21757090667E+02  0.42741147320E+02  0.10000000000E+01 0.  0.
<mgrwt>
<rscale>  0 0.12499583E+03</rscale>
<asrwt>0</asrwt>
<pdfrwt beam="1">  1        4 0.16848545E-01 0.12499583E+03</pdfrwt>
<pdfrwt beam="2">  1       -4 0.54870880E-02 0.12499583E+03</pdfrwt>
<totfact> 0.10028242E+04</totfact>
</mgrwt>
</event>
<event>
 5    1  0.3269032E-002  0.1250049E+03  0.7818608E-02  0.1235062E+00
          4   -1    0    0  501    0  0.00000000000E+00  0.00000000000E+00  0.59575789089E+03  0.59575924454E+03  0.12700000000E+01 0. -1.
         -4   -1    0    0    0  501 -0.00000000000E+00 -0.00000000000E+00 -0.64944231141E+01  0.66174339124E+01  0.12700000000E+01 0. -1.
         25    2    1    2    0    0  0.00000000000E+00  0.00000000000E+00  0.58926346778E+03  0.60237667846E+03  0.12500491307E+03 0.  0.
    9000005    1    3    3    0    0 -0.57159693630E+02 -0.23000986247E+02  0.24425689704E+03  0.25191011829E+03  0.10000000000E+01 0.  0.
    9000005    1    3    3    0    0  0.57159693630E+02  0.23000986247E+02  0.34500657073E+03  0.35046656016E+03  0.10000000000E+01 0.  0.
<mgrwt>
<rscale>  0 0.12500491E+03</rscale>
<asrwt>0</asrwt>
<pdfrwt beam="1">  1        4 0.91664633E-01 0.12500491E+03</pdfrwt>
<pdfrwt beam="2">  1       -4 0.10087084E-02 0.12500491E+03</pdfrwt>
<totfact> 0.48712680E+03</totfact>
</mgrwt>
</event>
<event>
 5    1  0.3269032E-002  0.1250092E+03  0.7818608E-02  0.1235055E+00
         -4   -1    0    0    0  501 -0.00000000000E+00  0.00000000000E+00  0.19125093062E+03  0.19125514728E+03  0.12700000000E+01 0.  1.
          4   -1    0    0  501    0  0.00000000000E+00 -0.00000000000E+00 -0.20403554511E+02  0.20443041278E+02  0.12700000000E+01 0.  1.
         25    2    1    2    0    0  0.00000000000E+00  0.00000000000E+00  0.17084737610E+03  0.21169818856E+03  0.12500918813E+03 0.  0.
    9000005    1    3    3    0    0  0.16000340449E+02 -0.26690096438E+02  0.17720634100E+03  0.17992070318E+03  0.10000000000E+01 0.  0.
    9000005    1    3    3    0    0 -0.16000340449E+02  0.26690096438E+02 -0.63589648965E+01  0.31777485377E+02  0.10000000000E+01 0.  0.
<mgrwt>
<rscale>  0 0.12500919E+03</rscale>
<asrwt>0</asrwt>
<pdfrwt beam="2">  1        4 0.31423700E-02 0.12500919E+03</pdfrwt>
<pdfrwt beam="1">  1       -4 0.29426583E-01 0.12500919E+03</pdfrwt>
<totfact> 0.88181179E+03</totfact>
</mgrwt>
</event>
<event>
 5    1  0.3269032E-002  0.1250013E+03  0.7818608E-02  0.1235067E+00
         -4   -1    0    0    0  501 -0.00000000000E+00  0.00000000000E+00  0.80032249482E+02  0.80042325411E+02  0.12700000000E+01 0. -1.
          4   -1    0    0  501    0  0.00000000000E+00 -0.00000000000E+00 -0.48788032600E+02  0.48804559469E+02  0.12700000000E+01 0. -1.
         25    2    1    2    0    0  0.00000000000E+00  0.00000000000E+00  0.31244216882E+02  0.12884688488E+03  0.12500127461E+03 0.  0.
    9000005    1    3    3    0    0 -0.59247260458E+02 -0.19748503379E+02  0.17947255206E+02  0.64987269729E+02  0.10000000000E+01 0.  0.
    9000005    1    3    3    0    0  0.59247260458E+02  0.19748503379E+02  0.13296961676E+02  0.63859615151E+02  0.10000000000E+01 0.  0.
<mgrwt>
<rscale>  0 0.12500127E+03</rscale>
<asrwt>0</asrwt>
<pdfrwt beam="2">  1        4 0.75078976E-02 0.12500127E+03</pdfrwt>
<pdfrwt beam="1">  1       -4 0.12314700E-01 0.12500127E+03</pdfrwt>
<totfact> 0.10368940E+04</totfact>
</mgrwt>
</event>
<event>
 5    1  0.3269032E-002  0.1249970E+03  0.7818608E-02  0.1235074E+00
          4   -1    0    0  501    0  0.00000000000E+00  0.00000000000E+00  0.67413118366E+02  0.67425080110E+02  0.12700000000E+01 0. -1.
         -4   -1    0    0    0  501 -0.00000000000E+00 -0.00000000000E+00 -0.57918096144E+02  0.57932018444E+02  0.12700000000E+01 0. -1.
         25    2    1    2    0    0  0.00000000000E+00  0.00000000000E+00  0.94950222213E+01  0.12535709855E+03  0.12499698681E+03 0.  0.
    9000005    1    3    3    0    0 -0.52823728130E+02  0.14925112427E+02 -0.25204170547E+02  0.60409895278E+02  0.10000000000E+01 0.  0.
    9000005    1    3    3    0    0  0.52823728130E+02 -0.14925112427E+02  0.34699192769E+02  0.64947203276E+02  0.10000000000E+01 0.  0.
<mgrwt>
<rscale>  0 0.12499699E+03</rscale>
<asrwt>0</asrwt>
<pdfrwt beam="1">  1        4 0.10373240E-01 0.12499699E+03</pdfrwt>
<pdfrwt beam="2">  1       -4 0.89124674E-02 0.12499699E+03</pdfrwt>
<totfact> 0.10445822E+04</totfact>
</mgrwt>
</event>
<event>
 5    1  0.3269032E-002  0.1249968E+03  0.7818608E-02  0.1235074E+00
          4   -1    0    0  501    0  0.00000000000E+00  0.00000000000E+00  0.14065181610E+03  0.14065754965E+03  0.12700000000E+01 0.  1.
         -4   -1    0    0    0  501 -0.00000000000E+00 -0.00000000000E+00 -0.27750219909E+02  0.27779265739E+02  0.12700000000E+01 0.  1.
         25    2    1    2    0    0  0.00000000000E+00  0.00000000000E+00  0.11290159620E+03  0.16843681539E+03  0.12499676138E+03 0.  0.
    9000005    1    3    3    0    0 -0.19232450960E+02  0.58834885868E+02  0.44888977967E+02  0.76468629567E+02  0.10000000000E+01 0.  0.
    9000005    1    3    3    0    0  0.19232450960E+02 -0.58834885868E+02  0.68012618229E+02  0.91968185822E+02  0.10000000000E+01 0.  0.
<mgrwt>
<rscale>  0 0.12499676E+03</rscale>
<asrwt>0</asrwt>
<pdfrwt beam="1">  1        4 0.21641417E-01 0.12499676E+03</pdfrwt>
<pdfrwt beam="2">  1       -4 0.42719398E-02 0.12499676E+03</pdfrwt>
<totfact> 0.95747406E+03</totfact>
</mgrwt>
</event>
<event>
 5    1  0.3269032E-002  0.1250127E+03  0.7818608E-02  0.1235049E+00
         -4   -1    0    0    0  501 -0.00000000000E+00  0.00000000000E+00  0.49041958734E+02  0.49058400060E+02  0.12700000000E+01 0. -1.
          4   -1    0    0  501    0  0.00000000000E+00 -0.00000000000E+00 -0.79632479765E+02  0.79642606271E+02  0.12700000000E+01 0. -1.
         25    2    1    2    0    0  0.00000000000E+00  0.00000000000E+00 -0.30590521031E+02  0.12870100633E+03  0.12501267557E+03 0.  0.
    9000005    1    3    3    0    0 -0.24827945754E+02  0.15621114714E+02  0.41519875377E+02  0.50846299438E+02  0.10000000000E+01 0.  0.
    9000005    1    3    3    0    0  0.24827945754E+02 -0.15621114714E+02 -0.72110396408E+02  0.77854706893E+02  0.10000000000E+01 0.  0.
<mgrwt>
<rscale>  0 0.12501268E+03</rscale>
<asrwt>0</asrwt>
<pdfrwt beam="2">  1        4 0.12253194E-01 0.12501268E+03</pdfrwt>
<pdfrwt beam="1">  1       -4 0.75469604E-02 0.12501268E+03</pdfrwt>
<totfact> 0.10369409E+04</totfact>
</mgrwt>
</event>
<event>
 5    1  0.3269032E-002  0.1250026E+03  0.7818608E-02  0.1235065E+00
          4   -1    0    0  501    0  0.00000000000E+00  0.00000000000E+00  0.77399360065E+01  0.78434373450E+01  0.12700000000E+01 0.  1.
         -4   -1    0    0    0  501 -0.00000000000E+00 -0.00000000000E+00 -0.50125240762E+03  0.50125401648E+03  0.12700000000E+01 0.  1.
         25    2    1    2    0    0  0.00000000000E+00  0.00000000000E+00 -0.49351247161E+03  0.50909745383E+03  0.12500263141E+03 0.  0.
    9000005    1    3    3    0    0 -0.49044158443E+01 -0.27979415041E+02 -0.47345986168E+03  0.47431228277E+03  0.10000000000E+01 0.  0.
    9000005    1    3    3    0    0  0.49044158443E+01  0.27979415041E+02 -0.20052609928E+02  0.34785171061E+02  0.10000000000E+01 0.  0.
<mgrwt>
<rscale>  0 0.12500263E+03</rscale>
<asrwt>0</asrwt>
<pdfrwt beam="1">  1        4 0.11988452E-02 0.12500263E+03</pdfrwt>
<pdfrwt beam="2">  1       -4 0.77123815E-01 0.12500263E+03</pdfrwt>
<totfact> 0.55162181E+03</totfact>
</mgrwt>
</event>
<event>
 5    1  0.3269032E-002  0.1249940E+03  0.7818608E-02  0.1235079E+00
         -4   -1    0    0    0  501 -0.00000000000E+00  0.00000000000E+00  0.51726019243E+02  0.51741607694E+02  0.12700000000E+01 0. -1.
          4   -1    0    0  501    0  0.00000000000E+00 -0.00000000000E+00 -0.75478570119E+02  0.75489253853E+02  0.12700000000E+01 0. -1.
         25    2    1    2    0    0  0.00000000000E+00  0.00000000000E+00 -0.23752550876E+02  0.12723086155E+03  0.12499403368E+03 0.  0.
    9000005    1    3    3    0    0  0.19549023648E+01 -0.40454833913E+02 -0.60314218469E+02  0.72658242338E+02  0.10000000000E+01 0.  0.
    9000005    1    3    3    0    0 -0.19549023648E+01  0.40454833913E+02  0.36561667593E+02  0.54572619209E+02  0.10000000000E+01 0.  0.
<mgrwt>
<rscale>  0 0.12499403E+03</rscale>
<asrwt>0</asrwt>
<pdfrwt beam="2">  1        4 0.11614109E-01 0.12499403E+03</pdfrwt>
<pdfrwt beam="1">  1       -4 0.79598700E-02 0.12499403E+03</pdfrwt>
<totfact> 0.10405535E+04</totfact>
</mgrwt>
</event>
<event>
 5    1  0.3269032E-002  0.1250012E+03  0.7818608E-02  0.1235067E+00
         -4   -1    0    0    0  501 -0.00000000000E+00  0.00000000000E+00  0.26092758114E+03  0.26093067182E+03  0.12700000000E+01 0. -1.
          4   -1    0    0  501    0  0.00000000000E+00 -0.00000000000E+00 -0.14940805237E+02  0.14994684429E+02  0.12700000000E+01 0. -1.
         25    2    1    2    0    0  0.00000000000E+00  0.00000000000E+00  0.24598677590E+03  0.27592535625E+03  0.12500123322E+03 0.  0.
    9000005    1    3    3    0    0  0.30748486399E+02 -0.13065357054E+02  0.23957057440E+03  0.24189095289E+03  0.10000000000E+01 0.  0.
    9000005    1    3    3    0    0 -0.30748486399E+02  0.13065357054E+02  0.64162015011E+01  0.34034403365E+02  0.10000000000E+01 0.  0.
<mgrwt>
<rscale>  0 0.12500123E+03</rscale>
<asrwt>0</asrwt>
<pdfrwt beam="2">  1        4 0.23029677E-02 0.12500123E+03</pdfrwt>
<pdfrwt beam="1">  1       -4 0.40147087E-01 0.12500123E+03</pdfrwt>
<totfact> 0.78719334E+03</totfact>
</mgrwt>
</event>
<event>
 5    1  0.3269032E-002  0.1250001E+03  0.7818608E-02  0.1235069E+00
          4   -1    0    0  501    0  0.00000000000E+00  0.00000000000E+00  0.49365849061E+03  0.49366012423E+03  0.12700000000E+01 0.  1.
         -4   -1    0    0    0  501 -0.00000000000E+00 -0.00000000000E+00 -0.78602552899E+01  0.79621927396E+01  0.12700000000E+01 0.  1.
         25    2    1    2    0    0  0.00000000000E+00  0.00000000000E+00  0.48579823532E+03  0.50162231697E+03  0.12500009375E+03 0.  0.
    9000005    1    3    3    0    0 -0.51228728250E+02  0.10403744179E+02  0.38031850425E+03  0.38389553940E+03  0.10000000000E+01 0.  0.
    9000005    1    3    3    0    0  0.51228728250E+02 -0.10403744179E+02  0.10547973107E+03  0.11772677757E+03  0.10000000000E+01 0.  0.
<mgrwt>
<rscale>  0 0.12500009E+03</rscale>
<asrwt>0</asrwt>
<pdfrwt beam="1">  1        4 0.75955431E-01 0.12500009E+03</pdfrwt>
<pdfrwt beam="2">  1       -4 0.12172370E-02 0.12500009E+03</pdfrwt>
<totfact> 0.55738596E+03</totfact>
</mgrwt>
</event>
<event>
 5    1  0.3269032E-002  0.1249954E+03  0.7818608E-02  0.1235076E+00
         -4   -1    0    0    0  501 -0.00000000000E+00  0.00000000000E+00  0.97219009689E+01  0.98045019481E+01  0.12700000000E+01 0. -1.
          4   -1    0    0  501    0  0.00000000000E+00 -0.00000000000E+00 -0.39998625206E+03  0.39998826825E+03  0.12700000000E+01 0. -1.
         25    2    1    2    0    0  0.00000000000E+00  0.00000000000E+00 -0.39026435109E+03  0.40979277019E+03  0.12499540301E+03 0.  0.
    9000005    1    3    3    0    0 -0.31342577976E+02 -0.46068930432E+02 -0.28787612253E+03  0.29322067708E+03  0.10000000000E+01 0.  0.
    9000005    1    3    3    0    0  0.31342577976E+02  0.46068930432E+02 -0.10238822856E+03  0.11657209311E+03  0.10000000000E+01 0.  0.
<mgrwt>
<rscale>  0 0.12499540E+03</rscale>
<asrwt>0</asrwt>
<pdfrwt beam="2">  1        4 0.61542843E-01 0.12499540E+03</pdfrwt>
<pdfrwt beam="1">  1       -4 0.15021864E-02 0.12499540E+03</pdfrwt>
<totfact> 0.63617830E+03</totfact>
</mgrwt>
</event>
<event>
 4    1  0.3269032E-002  0.1252754E+03  0.7818608E-02  0.1234640E+00
          4   -1    0    0  501    0  0.00000000000E+00  0.00000000000E+00  0.37103314874E+02  0.37125043767E+02  0.12700000000E+01 0.  1.
         -4   -1    0    0    0  501 -0.00000000000E+00 -0.00000000000E+00 -0.10568821905E+03  0.10569584923E+03  0.12700000000E+01 0.  1.
    9000005    1    1    2    0    0 -0.24261852320E+02  0.56908521000E+02 -0.45419673114E+02  0.76753918116E+02  0.10000000000E+01 0.  0.
    9000005    1    1    2    0    0  0.24261852320E+02 -0.56908521000E+02 -0.23165231059E+02  0.66066974885E+02  0.10000000000E+01 0.  0.
<mgrwt>
<rscale>  0 0.12527537E+03</rscale>
<asrwt>0</asrwt>
<pdfrwt beam="1">  1        4 0.57104607E-02 0.12527537E+03</pdfrwt>
<pdfrwt beam="2">  1       -4 0.16261984E-01 0.12527537E+03</pdfrwt>
<totfact> 0.10013217E+04</totfact>
</mgrwt>
</event>
<event>
 5    1  0.3269032E-002  0.1249990E+03  0.7818608E-02  0.1235071E+00
          4   -1    0    0  501    0  0.00000000000E+00  0.00000000000E+00  0.79836451308E+02  0.79846551944E+02  0.12700000000E+01 0.  1.
         -4   -1    0    0    0  501 -0.00000000000E+00 -0.00000000000E+00 -0.48905890237E+02  0.48922377292E+02  0.12700000000E+01 0.  1.
         25    2    1    2    0    0  0.00000000000E+00  0.00000000000E+00  0.30930561070E+02  0.12876892924E+03  0.12499895011E+03 0.  0.
    9000005    1    3    3    0    0 -0.43046447147E+01  0.46676393139E+02  0.58039302306E+02  0.74610832021E+02  0.10000000000E+01 0.  0.
    9000005    1    3    3    0    0  0.43046447147E+01 -0.46676393139E+02 -0.27108741236E+02  0.54158097215E+02  0.10000000000E+01 0.  0.
<mgrwt>
<rscale>  0 0.12499895E+03</rscale>
<asrwt>0</asrwt>
<pdfrwt beam="1">  1        4 0.12284576E-01 0.12499895E+03</pdfrwt>
<pdfrwt beam="2">  1       -4 0.75260284E-02 0.12499895E+03</pdfrwt>
<totfact> 0.10371161E+04</totfact>
</mgrwt>
</event>
<event>
 5    1  0.3269032E-002  0.1249994E+03  0.7818608E-02  0.1235070E+00
          4   -1    0    0  501    0  0.00000000000E+00  0.00000000000E+00  0.15345287745E+02  0.15397751653E+02  0.12700000000E+01 0. -1.
         -4   -1    0    0    0  501 -0.00000000000E+00 -0.00000000000E+00 -0.25406595897E+03  0.25406913313E+03  0.12700000000E+01 0. -1.
         25    2    1    2    0    0  0.00000000000E+00  0.00000000000E+00 -0.23872067123E+03  0.26946688478E+03  0.12499937249E+03 0.  0.
    9000005    1    3    3    0    0  0.15876700009E+02 -0.19339642401E+00 -0.24965558265E+03  0.25016198143E+03  0.10000000000E+01 0.  0.
    9000005    1    3    3    0    0 -0.15876700009E+02  0.19339642401E+00  0.10934911425E+02  0.19304903347E+02  0.10000000000E+01 0.  0.
<mgrwt>
<rscale>  0 0.12499937E+03</rscale>
<asrwt>0</asrwt>
<pdfrwt beam="1">  1        4 0.23650935E-02 0.12499937E+03</pdfrwt>
<pdfrwt beam="2">  1       -4 0.39091347E-01 0.12499937E+03</pdfrwt>
<totfact> 0.79596717E+03</totfact>
</mgrwt>
</event>
<event>
 5    1  0.3269032E-002  0.1250000E+03  0.7818608E-02  0.1235069E+00
         -4   -1    0    0    0  501 -0.00000000000E+00  0.00000000000E+00  0.64417335924E+03  0.64417461115E+03  0.12700000000E+01 0.  1.
          4   -1    0    0  501    0  0.00000000000E+00 -0.00000000000E+00 -0.59962065036E+01  0.61292244562E+01  0.12700000000E+01 0.  1.
         25    2    1    2    0    0  0.00000000000E+00  0.00000000000E+00  0.63817715273E+03  0.65030383561E+03  0.12500000133E+03 0.  0.
    9000005    1    3    3    0    0 -0.41823173231E+02 -0.21458451007E+01  0.56039767885E+03  0.56196115607E+03  0.10000000000E+01 0.  0.
    9000005    1    3    3    0    0  0.41823173231E+02  0.21458451007E+01  0.77779473888E+02  0.88342679542E+02  0.10000000000E+01 0.  0.
<mgrwt>
<rscale>  0 0.12500000E+03</rscale>
<asrwt>0</asrwt>
<pdfrwt beam="2">  1        4 0.93282177E-03 0.12500000E+03</pdfrwt>
<pdfrwt beam="1">  1       -4 0.99113921E-01 0.12500000E+03</pdfrwt>
<totfact> 0.45838638E+03</totfact>
</mgrwt>
</event>
<event>
 5    1  0.3269032E-002  0.1250030E+03  0.7818608E-02  0.1235065E+00
         -4   -1    0    0    0  501 -0.00000000000E+00  0.00000000000E+00  0.32665714779E+02  0.32690393421E+02  0.12700000000E+01 0.  1.
          4   -1    0    0  501    0  0.00000000000E+00 -0.00000000000E+00 -0.11951501430E+03  0.11952176180E+03  0.12700000000E+01 0.  1.
         25    2    1    2    0    0  0.00000000000E+00  0.00000000000E+00 -0.86849299523E+02  0.15221215522E+03  0.12500295744E+03 0.  0.
    9000005    1    3    3    0    0  0.10148508861E+02 -0.60225261320E+02 -0.59549472385E+02  0.85306588224E+02  0.10000000000E+01 0.  0.
    9000005    1    3    3    0    0 -0.10148508861E+02  0.60225261320E+02 -0.27299827139E+02  0.66905566996E+02  0.10000000000E+01 0.  0.
<mgrwt>
<rscale>  0 0.12500296E+03</rscale>
<asrwt>0</asrwt>
<pdfrwt beam="2">  1        4 0.18389342E-01 0.12500296E+03</pdfrwt>
<pdfrwt beam="1">  1       -4 0.50279120E-02 0.12500296E+03</pdfrwt>
<totfact> 0.98857974E+03</totfact>
</mgrwt>
</event>
<event>
 5    1  0.3269032E-002  0.1250031E+03  0.7818608E-02  0.1235064E+00
          4   -1    0    0  501    0  0.00000000000E+00  0.00000000000E+00  0.57210998056E+01  0.58603654311E+01  0.12700000000E+01 0.  1.
         -4   -1    0    0    0  501 -0.00000000000E+00 -0.00000000000E+00 -0.67446264626E+03  0.67446384195E+03  0.12700000000E+01 0.  1.
         25    2    1    2    0    0  0.00000000000E+00  0.00000000000E+00 -0.66874154645E+03  0.68032420738E+03  0.12500308475E+03 0.  0.
    9000005    1    3    3    0    0 -0.42325823645E+02 -0.37336505720E+02 -0.18833905196E+03  0.19661660281E+03  0.10000000000E+01 0.  0.
    9000005    1    3    3    0    0  0.42325823645E+02  0.37336505720E+02 -0.48040249449E+03  0.48370760457E+03  0.10000000000E+01 0.  0.
<mgrwt>
<rscale>  0 0.12500308E+03</rscale>
<asrwt>0</asrwt>
<pdfrwt beam="1">  1        4 0.89097445E-03 0.12500308E+03</pdfrwt>
<pdfrwt beam="2">  1       -4 0.10377423E+00 0.12500308E+03</pdfrwt>
<totfact> 0.44142949E+03</totfact>
</mgrwt>
</event>
<event>
 5    1  0.3269032E-002  0.1249921E+03  0.7818608E-02  0.1235082E+00
          4   -1    0    0  501    0  0.00000000000E+00  0.00000000000E+00  0.50792060982E+02  0.50807935983E+02  0.12700000000E+01 0. -1.
         -4   -1    0    0    0  501 -0.00000000000E+00 -0.00000000000E+00 -0.76863889422E+02  0.76874380629E+02  0.12700000000E+01 0. -1.
         25    2    1    2    0    0  0.00000000000E+00  0.00000000000E+00 -0.26071828439E+02  0.12768231661E+03  0.12499213470E+03 0.  0.
    9000005    1    3    3    0    0 -0.42092525209E+02  0.39666413041E+02 -0.37199915520E+02  0.68775276930E+02  0.10000000000E+01 0.  0.
    9000005    1    3    3    0    0  0.42092525209E+02 -0.39666413041E+02  0.11128087081E+02  0.58907039682E+02  0.10000000000E+01 0.  0.
<mgrwt>
<rscale>  0 0.12499213E+03</rscale>
<asrwt>0</asrwt>
<pdfrwt beam="1">  1        4 0.78161914E-02 0.12499213E+03</pdfrwt>
<pdfrwt beam="2">  1       -4 0.11827242E-01 0.12499213E+03</pdfrwt>
<totfact> 0.10396200E+04</totfact>
</mgrwt>
</event>
<event>
 5    1  0.3269032E-002  0.1250006E+03  0.7818608E-02  0.1235068E+00
          4   -1    0    0  501    0  0.00000000000E+00  0.00000000000E+00  0.15315586421E+02  0.15368151724E+02  0.12700000000E+01 0. -1.
         -4   -1    0    0    0  501 -0.00000000000E+00 -0.00000000000E+00 -0.25456199103E+03  0.25456515900E+03  0.12700000000E+01 0. -1.
         25    2    1    2    0    0  0.00000000000E+00  0.00000000000E+00 -0.23924640461E+03  0.26993331072E+03  0.12500060048E+03 0.  0.
    9000005    1    3    3    0    0 -0.23890573067E+02  0.32668713146E+02 -0.16798545195E+02  0.43831443288E+02  0.10000000000E+01 0.  0.
    9000005    1    3    3    0    0  0.23890573067E+02 -0.32668713146E+02 -0.22244785941E+03  0.22610186743E+03  0.10000000000E+01 0.  0.
<mgrwt>
<rscale>  0 0.12500060E+03</rscale>
<asrwt>0</asrwt>
<pdfrwt beam="1">  1        4 0.23605314E-02 0.12500060E+03</pdfrwt>
<pdfrwt beam="2">  1       -4 0.39167667E-01 0.12500060E+03</pdfrwt>
<totfact> 0.79530899E+03</totfact>
</mgrwt>
</event>
<event>
 5    1  0.3269032E-002  0.1249991E+03  0.7818608E-02  0.1235071E+00
          4   -1    0    0  501    0  0.00000000000E+00  0.00000000000E+00  0.11132088789E+03  0.11132813202E+03  0.12700000000E+01 0. -1.
         -4   -1    0    0    0  501 -0.00000000000E+00 -0.00000000000E+00 -0.35069639571E+02  0.35092627710E+02  0.12700000000E+01 0. -1.
         25    2    1    2    0    0  0.00000000000E+00  0.00000000000E+00  0.76251248314E+02  0.14642075973E+03  0.12499914404E+03 0.  0.
    9000005    1    3    3    0    0 -0.41046503461E+02 -0.38533046081E+02  0.63559930564E+01  0.56665772159E+02  0.10000000000E+01 0.  0.
    9000005    1    3    3    0    0  0.41046503461E+02  0.38533046081E+02  0.69895255258E+02  0.89754987573E+02  0.10000000000E+01 0.  0.
<mgrwt>
<rscale>  0 0.12499914E+03</rscale>
<asrwt>0</asrwt>
<pdfrwt beam="1">  1        4 0.17128616E-01 0.12499914E+03</pdfrwt>
<pdfrwt beam="2">  1       -4 0.53976548E-02 0.12499914E+03</pdfrwt>
<totfact> 0.10002394E+04</totfact>
</mgrwt>
</event>
<event>
 4    1  0.3269032E-002  0.1246749E+03  0.7818608E-02  0.1235578E+00
          4   -1    0    0  501    0  0.00000000000E+00  0.00000000000E+00  0.90765438411E+02  0.90774322966E+02  0.12700000000E+01 0. -1.
         -4   -1    0    0    0  501 -0.00000000000E+00 -0.00000000000E+00 -0.42792759775E+02  0.42811601105E+02  0.12700000000E+01 0. -1.
    9000005    1    1    2    0    0 -0.15063928799E+01 -0.45830340620E+01  0.90570365158E+02  0.90704269279E+02  0.10000000000E+01 0.  0.
    9000005    1    1    2    0    0  0.15063928799E+01  0.45830340620E+01 -0.42597686522E+02  0.42881654792E+02  0.10000000000E+01 0.  0.
<mgrwt>
<rscale>  0 0.12467486E+03</rscale>
<asrwt>0</asrwt>
<pdfrwt beam="1">  1        4 0.13966046E-01 0.12467486E+03</pdfrwt>
<pdfrwt beam="2">  1       -4 0.65856343E-02 0.12467486E+03</pdfrwt>
<totfact> 0.10343629E+04</totfact>
</mgrwt>
</event>
<event>
 5    1  0.3269032E-002  0.1250085E+03  0.7818608E-02  0.1235056E+00
          4   -1    0    0  501    0  0.00000000000E+00  0.00000000000E+00  0.36881653034E+02  0.36903512441E+02  0.12700000000E+01 0. -1.
         -4   -1    0    0    0  501 -0.00000000000E+00 -0.00000000000E+00 -0.10587048010E+03  0.10587809715E+03  0.12700000000E+01 0. -1.
         25    2    1    2    0    0  0.00000000000E+00  0.00000000000E+00 -0.68988827063E+02  0.14278160959E+03  0.12500851882E+03 0.  0.
    9000005    1    3    3    0    0 -0.19192901884E+02 -0.47714109049E+02 -0.75050132584E+02  0.90986406050E+02  0.10000000000E+01 0.  0.
    9000005    1    3    3    0    0  0.19192901884E+02  0.47714109049E+02  0.60613055211E+01  0.51795203540E+02  0.10000000000E+01 0.  0.
<mgrwt>
<rscale>  0 0.12500852E+03</rscale>
<asrwt>0</asrwt>
<pdfrwt beam="1">  1        4 0.56763679E-02 0.12500852E+03</pdfrwt>
<pdfrwt beam="2">  1       -4 0.16290033E-01 0.12500852E+03</pdfrwt>
<totfact> 0.10074324E+04</totfact>
</mgrwt>
</event>
<event>
 5    1  0.3269032E-002  0.1250010E+03  0.7818608E-02  0.1235068E+00
          4   -1    0    0  501    0  0.00000000000E+00  0.00000000000E+00  0.83656870102E+02  0.83666509520E+02  0.12700000000E+01 0.  1.
         -4   -1    0    0    0  501 -0.00000000000E+00 -0.00000000000E+00 -0.46673485470E+02  0.46690760820E+02  0.12700000000E+01 0.  1.
         25    2    1    2    0    0  0.00000000000E+00  0.00000000000E+00  0.36983384632E+02  0.13035727034E+03  0.12500098876E+03 0.  0.
    9000005    1    3    3    0    0  0.54667579831E+02  0.20887875958E+02  0.41350433173E+02  0.71663840046E+02  0.10000000000E+01 0.  0.
    9000005    1    3    3    0    0 -0.54667579831E+02 -0.20887875958E+02 -0.43670485413E+01  0.58693430293E+02  0.10000000000E+01 0.  0.
<mgrwt>
<rscale>  0 0.12500099E+03</rscale>
<asrwt>0</asrwt>
<pdfrwt beam="1">  1        4 0.12872358E-01 0.12500099E+03</pdfrwt>
<pdfrwt beam="2">  1       -4 0.71826066E-02 0.12500099E+03</pdfrwt>
<totfact> 0.10336640E+04</totfact>
</mgrwt>
</event>
<event>
 5    1  0.3269032E-002  0.1249969E+03  0.7818608E-02  0.1235074E+00
          4   -1    0    0  501    0  0.00000000000E+00  0.00000000000E+00  0.15891656610E+02  0.15942322598E+02  0.12700000000E+01 0.  1.
         -4   -1    0    0    0  501 -0.00000000000E+00 -0.00000000000E+00 -0.24534941954E+03  0.24535270646E+03  0.12700000000E+01 0.  1.
         25    2    1    2    0    0  0.00000000000E+00  0.00000000000E+00 -0.22945776293E+03  0.26129502906E+03  0.12499690893E+03 0.  0.
    9000005    1    3    3    0    0 -0.11991388177E+02 -0.83411246454E+01  0.12283024023E+02  0.19111264477E+02  0.10000000000E+01 0.  0.
    9000005    1    3    3    0    0  0.11991388177E+02  0.83411246454E+01 -0.24174078695E+03  0.24218376458E+03  0.10000000000E+01 0.  0.
<mgrwt>
<rscale>  0 0.12499691E+03</rscale>
<asrwt>0</asrwt>
<pdfrwt beam="1">  1        4 0.24490206E-02 0.12499691E+03</pdfrwt>
<pdfrwt beam="2">  1       -4 0.37750212E-01 0.12499691E+03</pdfrwt>
<totfact> 0.80730220E+03</totfact>
</mgrwt>
</event>
<event>
 5    1  0.3269032E-002  0.1250008E+03  0.7818608E-02  0.1235068E+00
          4   -1    0    0  501    0  0.00000000000E+00  0.00000000000E+00  0.83599476041E+03  0.83599572507E+03  0.12700000000E+01 0.  1.
         -4   -1    0    0    0  501 -0.00000000000E+00 -0.00000000000E+00 -0.45853593533E+01  0.47579849095E+01  0.12700000000E+01 0.  1.
         25    2    1    2    0    0  0.00000000000E+00  0.00000000000E+00  0.83140940106E+03  0.84075370998E+03  0.12500083470E+03 0.  0.
    9000005    1    3    3    0    0 -0.45976583432E+01  0.60618632055E+02  0.51306786725E+03  0.51665790753E+03  0.10000000000E+01 0.  0.
    9000005    1    3    3    0    0  0.45976583432E+01 -0.60618632055E+02  0.31834153381E+03  0.32409580244E+03  0.10000000000E+01 0.  0.
<mgrwt>
<rscale>  0 0.12500083E+03</rscale>
<asrwt>0</asrwt>
<pdfrwt beam="1">  1        4 0.12862790E+00 0.12500083E+03</pdfrwt>
<pdfrwt beam="2">  1       -4 0.71879317E-03 0.12500083E+03</pdfrwt>
<totfact> 0.36508049E+03</totfact>
</mgrwt>
</event>
<event>
 5    1  0.3269032E-002  0.1250024E+03  0.7818608E-02  0.1235066E+00
          4   -1    0    0  501    0  0.00000000000E+00  0.00000000000E+00  0.50283061077E+02  0.50299096724E+02  0.12700000000E+01 0. -1.
         -4   -1    0    0    0  501 -0.00000000000E+00 -0.00000000000E+00 -0.77654588713E+02  0.77664973110E+02  0.12700000000E+01 0. -1.
         25    2    1    2    0    0  0.00000000000E+00  0.00000000000E+00 -0.27371527636E+02  0.12796406983E+03  0.12500241055E+03 0.  0.
    9000005    1    3    3    0    0 -0.50781384087E+02 -0.81420576339E+01  0.22656896816E+02  0.56208336087E+02  0.10000000000E+01 0.  0.
    9000005    1    3    3    0    0  0.50781384087E+02  0.81420576339E+01 -0.50028424452E+02  0.71755733746E+02  0.10000000000E+01 0.  0.
<mgrwt>
<rscale>  0 0.12500241E+03</rscale>
<asrwt>0</asrwt>
<pdfrwt beam="1">  1        4 0.77378878E-02 0.12500241E+03</pdfrwt>
<pdfrwt beam="2">  1       -4 0.11948892E-01 0.12500241E+03</pdfrwt>
<totfact> 0.10387698E+04</totfact>
</mgrwt>
</event>
<event>
 5    1  0.3269032E-002  0.1249785E+03  0.7818608E-02  0.1235103E+00
         -4   -1    0    0    0  501 -0.00000000000E+00  0.00000000000E+00  0.35697185094E+01  0.37889035665E+01  0.12700000000E+01 0. -1.
          4   -1    0    0  501    0  0.00000000000E+00 -0.00000000000E+00 -0.10610958159E+04  0.10610965759E+04  0.12700000000E+01 0. -1.
         25    2    1    2    0    0  0.00000000000E+00  0.00000000000E+00 -0.10575260974E+04  0.10648854795E+04  0.12497854916E+03 0.  0.
    9000005    1    3    3    0    0 -0.27116990818E+02 -0.30774481259E+02 -0.12716506966E+03  0.13362018871E+03  0.10000000000E+01 0.  0.
    9000005    1    3    3    0    0  0.27116990818E+02  0.30774481259E+02 -0.93036102772E+03  0.93126529077E+03  0.10000000000E+01 0.  0.
<mgrwt>
<rscale>  0 0.12497855E+03</rscale>
<asrwt>0</asrwt>
<pdfrwt beam="2">  1        4 0.16326219E+00 0.12497855E+03</pdfrwt>
<pdfrwt beam="1">  1       -4 0.56610716E-03 0.12497855E+03</pdfrwt>
<totfact> 0.28547905E+03</totfact>
</mgrwt>
</event>
<event>
 5    1  0.3269032E-002  0.1250005E+03  0.7818608E-02  0.1235068E+00
          4   -1    0    0  501    0  0.00000000000E+00  0.00000000000E+00  0.88964190275E+02  0.88973254697E+02  0.12700000000E+01 0.  1.
         -4   -1    0    0    0  501 -0.00000000000E+00 -0.00000000000E+00 -0.43888001105E+02  0.43906372442E+02  0.12700000000E+01 0.  1.
         25    2    1    2    0    0  0.00000000000E+00  0.00000000000E+00  0.45076189170E+02  0.13287962714E+03  0.12500052991E+03 0.  0.
    9000005    1    3    3    0    0  0.16144822788E+02  0.60009024821E+02  0.15523307704E+02  0.64060217334E+02  0.10000000000E+01 0.  0.
    9000005    1    3    3    0    0 -0.16144822788E+02 -0.60009024821E+02  0.29552881466E+02  0.68819409804E+02  0.10000000000E+01 0.  0.
<mgrwt>
<rscale>  0 0.12500053E+03</rscale>
<asrwt>0</asrwt>
<pdfrwt beam="1">  1        4 0.13688909E-01 0.12500053E+03</pdfrwt>
<pdfrwt beam="2">  1       -4 0.67541106E-02 0.12500053E+03</pdfrwt>
<totfact> 0.10282836E+04</totfact>
</mgrwt>
</event>
<event>
 5    1  0.3269032E-002  0.1249983E+03  0.7818608E-02  0.1235072E+00
         -4   -1    0    0    0  501 -0.00000000000E+00  0.00000000000E+00  0.14801003940E+03  0.14801548792E+03  0.12700000000E+01 0. -1.
          4   -1    0    0  501    0  0.00000000000E+00 -0.00000000000E+00 -0.26369860466E+02  0.26400425016E+02  0.12700000000E+01 0. -1.
         25    2    1    2    0    0  0.00000000000E+00  0.00000000000E+00  0.12164017893E+03  0.17441591293E+03  0.12499831020E+03 0.  0.
    9000005    1    3    3    0    0 -0.19586947127E+02  0.73635447309E+01  0.14298304464E+03  0.14450958910E+03  0.10000000000E+01 0.  0.
    9000005    1    3    3    0    0  0.19586947127E+02 -0.73635447309E+01 -0.21342865702E+02  0.29906323832E+02  0.10000000000E+01 0.  0.
<mgrwt>
<rscale>  0 0.12499831E+03</rscale>
<asrwt>0</asrwt>
<pdfrwt beam="2">  1        4 0.40596718E-02 0.12499831E+03</pdfrwt>
<pdfrwt beam="1">  1       -4 0.22773546E-01 0.12499831E+03</pdfrwt>
<totfact> 0.94635511E+03</totfact>
</mgrwt>
</event>
<event>
 5    1  0.3269032E-002  0.1250015E+03  0.7818608E-02  0.1235067E+00
         -4   -1    0    0    0  501 -0.00000000000E+00  0.00000000000E+00  0.15426513277E+03  0.15427036037E+03  0.12700000000E+01 0.  1.
          4   -1    0    0  501    0  0.00000000000E+00 -0.00000000000E+00 -0.25300689150E+02  0.25332543723E+02  0.12700000000E+01 0.  1.
         25    2    1    2    0    0  0.00000000000E+00  0.00000000000E+00  0.12896444362E+03  0.17960290410E+03  0.12500150175E+03 0.  0.
    9000005    1    3    3    0    0  0.58462735989E+02  0.22042959501E+02  0.66276962893E+02  0.91090171661E+02  0.10000000000E+01 0.  0.
    9000005    1    3    3    0    0 -0.58462735989E+02 -0.22042959501E+02  0.62687480730E+02  0.88512732436E+02  0.10000000000E+01 0.  0.
<mgrwt>
<rscale>  0 0.12500150E+03</rscale>
<asrwt>0</asrwt>
<pdfrwt beam="2">  1        4 0.38952661E-02 0.12500150E+03</pdfrwt>
<pdfrwt beam="1">  1       -4 0.23735951E-01 0.12500150E+03</pdfrwt>
<totfact> 0.93685375E+03</totfact>
</mgrwt>
</event>
<event>
 5    1  0.3269032E-002  0.1249992E+03  0.7818608E-02  0.1235070E+00
         -4   -1    0    0    0  501 -0.00000000000E+00  0.00000000000E+00  0.11631148652E+02  0.11700278585E+02  0.12700000000E+01 0. -1.
          4   -1    0    0  501    0  0.00000000000E+00 -0.00000000000E+00 -0.33477438055E+03  0.33477678948E+03  0.12700000000E+01 0. -1.
         25    2    1    2    0    0  0.00000000000E+00  0.00000000000E+00 -0.32314323190E+03  0.34647706806E+03  0.12499924149E+03 0.  0.
    9000005    1    3    3    0    0  0.36470783633E+02  0.38415355841E+02 -0.25347555266E+03  0.25895311046E+03  0.10000000000E+01 0.  0.
    9000005    1    3    3    0    0 -0.36470783633E+02 -0.38415355841E+02 -0.69667679239E+02  0.87523957599E+02  0.10000000000E+01 0.  0.
<mgrwt>
<rscale>  0 0.12499924E+03</rscale>
<asrwt>0</asrwt>
<pdfrwt beam="2">  1        4 0.51509247E-01 0.12499924E+03</pdfrwt>
<pdfrwt beam="1">  1       -4 0.17949107E-02 0.12499924E+03</pdfrwt>
<totfact> 0.70115048E+03</totfact>
</mgrwt>
</event>
<event>
 5    1  0.3269032E-002  0.1250015E+03  0.7818608E-02  0.1235067E+00
          4   -1    0    0  501    0  0.00000000000E+00  0.00000000000E+00  0.27654113493E+03  0.27654405112E+03  0.12700000000E+01 0.  1.
         -4   -1    0    0    0  501 -0.00000000000E+00 -0.00000000000E+00 -0.14094187456E+02  0.14151290402E+02  0.12700000000E+01 0.  1.
         25    2    1    2    0    0  0.00000000000E+00  0.00000000000E+00  0.26244694747E+03  0.29069534152E+03  0.12500152536E+03 0.  0.
    9000005    1    3    3    0    0 -0.36985551180E+02 -0.33186338872E+02  0.21935113922E+03  0.22491150784E+03  0.10000000000E+01 0.  0.
    9000005    1    3    3    0    0  0.36985551180E+02  0.33186338872E+02  0.43095808255E+02  0.65783833675E+02  0.10000000000E+01 0.  0.
<mgrwt>
<rscale>  0 0.12500153E+03</rscale>
<asrwt>0</asrwt>
<pdfrwt beam="1">  1        4 0.42549408E-01 0.12500153E+03</pdfrwt>
<pdfrwt beam="2">  1       -4 0.21729533E-02 0.12500153E+03</pdfrwt>
<totfact> 0.76778417E+03</totfact>
</mgrwt>
</event>
<event>
 5    1  0.3269032E-002  0.1250013E+03  0.7818608E-02  0.1235067E+00
         -4   -1    0    0    0  501 -0.00000000000E+00  0.00000000000E+00  0.18565316347E+03  0.18565750727E+03  0.12700000000E+01 0.  1.
          4   -1    0    0  501    0  0.00000000000E+00 -0.00000000000E+00 -0.21017250620E+02  0.21055586518E+02  0.12700000000E+01 0.  1.
         25    2    1    2    0    0  0.00000000000E+00  0.00000000000E+00  0.16463591285E+03  0.20671309379E+03  0.12500127737E+03 0.  0.
    9000005    1    3    3    0    0  0.55741374587E+02 -0.14321980389E+02  0.12259161766E+03  0.13543236202E+03  0.10000000000E+01 0.  0.
    9000005    1    3    3    0    0 -0.55741374587E+02  0.14321980389E+02  0.42044295195E+02  0.71280731770E+02  0.10000000000E+01 0.  0.
<mgrwt>
<rscale>  0 0.12500128E+03</rscale>
<asrwt>0</asrwt>
<pdfrwt beam="2">  1        4 0.32367062E-02 0.12500128E+03</pdfrwt>
<pdfrwt beam="1">  1       -4 0.28565309E-01 0.12500128E+03</pdfrwt>
<totfact> 0.89012961E+03</totfact>
</mgrwt>
</event>
<event>
 5    1  0.3269032E-002  0.1250004E+03  0.7818608E-02  0.1235069E+00
          4   -1    0    0  501    0  0.00000000000E+00  0.00000000000E+00  0.40666722942E+02  0.40686548819E+02  0.12700000000E+01 0. -1.
         -4   -1    0    0    0  501 -0.00000000000E+00 -0.00000000000E+00 -0.96008435814E+02  0.96016835230E+02  0.12700000000E+01 0. -1.
         25    2    1    2    0    0  0.00000000000E+00  0.00000000000E+00 -0.55341712872E+02  0.13670338405E+03  0.12500044011E+03 0.  0.
    9000005    1    3    3    0    0 -0.45199127109E+02  0.16149786606E+02 -0.71436296983E+02  0.86069281544E+02  0.10000000000E+01 0.  0.
    9000005    1    3    3    0    0  0.45199127109E+02 -0.16149786606E+02  0.16094584111E+02  0.50634102505E+02  0.10000000000E+01 0.  0.
<mgrwt>
<rscale>  0 0.12500044E+03</rscale>
<asrwt>0</asrwt>
<pdfrwt beam="1">  1        4 0.62585901E-02 0.12500044E+03</pdfrwt>
<pdfrwt beam="2">  1       -4 0.14772700E-01 0.12500044E+03</pdfrwt>
<totfact> 0.10202190E+04</totfact>
</mgrwt>
</event>
<event>
 5    1  0.3269032E-002  0.1250005E+03  0.7818608E-02  0.1235069E+00
          4   -1    0    0  501    0  0.00000000000E+00  0.00000000000E+00  0.84388256985E+02  0.84397812869E+02  0.12700000000E+01 0. -1.
         -4   -1    0    0    0  501 -0.00000000000E+00 -0.00000000000E+00 -0.46268467252E+02  0.46285893767E+02  0.12700000000E+01 0. -1.
         25    2    1    2    0    0  0.00000000000E+00  0.00000000000E+00  0.38119789733E+02  0.13068370664E+03  0.12500045124E+03 0.  0.
    9000005    1    3    3    0    0 -0.23241929271E+02 -0.34004542053E+02 -0.30074577311E+02  0.51009571228E+02  0.10000000000E+01 0.  0.
    9000005    1    3    3    0    0  0.23241929271E+02  0.34004542053E+02  0.68194367044E+02  0.79674135408E+02  0.10000000000E+01 0.  0.
<mgrwt>
<rscale>  0 0.12500045E+03</rscale>
<asrwt>0</asrwt>
<pdfrwt beam="1">  1        4 0.12984884E-01 0.12500045E+03</pdfrwt>
<pdfrwt beam="2">  1       -4 0.71203013E-02 0.12500045E+03</pdfrwt>
<totfact> 0.10329770E+04</totfact>
</mgrwt>
</event>
<event>
 5    1  0.3269032E-002  0.1250086E+03  0.7818608E-02  0.1235056E+00
         -4   -1    0    0    0  501 -0.00000000000E+00  0.00000000000E+00  0.34832014900E+02  0.34855159761E+02  0.12700000000E+01 0. -1.
          4   -1    0    0  501    0  0.00000000000E+00 -0.00000000000E+00 -0.11209690584E+03  0.11210409983E+03  0.12700000000E+01 0. -1.
         25    2    1    2    0    0  0.00000000000E+00  0.00000000000E+00 -0.77264890941E+02  0.14695925959E+03  0.12500864213E+03 0.  0.
    9000005    1    3    3    0    0  0.93830443335E+01  0.61064086134E+02 -0.49718355112E+02  0.79308126768E+02  0.10000000000E+01 0.  0.
    9000005    1    3    3    0    0 -0.93830443335E+01 -0.61064086134E+02 -0.27546535828E+02  0.67651132825E+02  0.10000000000E+01 0.  0.
<mgrwt>
<rscale>  0 0.12500864E+03</rscale>
<asrwt>0</asrwt>
<pdfrwt beam="2">  1        4 0.17248011E-01 0.12500864E+03</pdfrwt>
<pdfrwt beam="1">  1       -4 0.53611053E-02 0.12500864E+03</pdfrwt>
<totfact> 0.99893878E+03</totfact>
</mgrwt>
</event>
<event>
 5    1  0.3269032E-002  0.1249981E+03  0.7818608E-02  0.1235072E+00
         -4   -1    0    0    0  501 -0.00000000000E+00  0.00000000000E+00  0.84722775051E+02  0.84732293208E+02  0.12700000000E+01 0. -1.
          4   -1    0    0  501    0  0.00000000000E+00 -0.00000000000E+00 -0.46083999741E+02  0.46101495986E+02  0.12700000000E+01 0. -1.
         25    2    1    2    0    0  0.00000000000E+00  0.00000000000E+00  0.38638775310E+02  0.13083378919E+03  0.12499810174E+03 0.  0.
    9000005    1    3    3    0    0  0.23950255679E+02  0.44040386195E+02  0.58370196611E+02  0.76949660271E+02  0.10000000000E+01 0.  0.
    9000005    1    3    3    0    0 -0.23950255679E+02 -0.44040386195E+02 -0.19731421302E+02  0.53884128924E+02  0.10000000000E+01 0.  0.
<mgrwt>
<rscale>  0 0.12499810E+03</rscale>
<asrwt>0</asrwt>
<pdfrwt beam="2">  1        4 0.70919242E-02 0.12499810E+03</pdfrwt>
<pdfrwt beam="1">  1       -4 0.13036351E-01 0.12499810E+03</pdfrwt>
<totfact> 0.10327096E+04</totfact>
</mgrwt>
</event>
<event>
 5    1  0.3269032E-002  0.1250295E+03  0.7818608E-02  0.1235023E+00
         -4   -1    0    0    0  501 -0.00000000000E+00  0.00000000000E+00  0.27632250505E+02  0.27661420209E+02  0.12700000000E+01 0. -1.
          4   -1    0    0  501    0  0.00000000000E+00 -0.00000000000E+00 -0.14132575077E+03  0.14133145698E+03  0.12700000000E+01 0. -1.
         25    2    1    2    0    0  0.00000000000E+00  0.00000000000E+00 -0.11369350027E+03  0.16899287719E+03  0.12502951866E+03 0.  0.
    9000005    1    3    3    0    0 -0.38789821987E+02  0.48573051424E+02 -0.65720602687E+02  0.90466508897E+02  0.10000000000E+01 0.  0.
    9000005    1    3    3    0    0  0.38789821987E+02 -0.48573051424E+02 -0.47972897581E+02  0.78526368290E+02  0.10000000000E+01 0.  0.
<mgrwt>
<rscale>  0 0.12502952E+03</rscale>
<asrwt>0</asrwt>
<pdfrwt beam="2">  1        4 0.21745106E-01 0.12502952E+03</pdfrwt>
<pdfrwt beam="1">  1       -4 0.42537983E-02 0.12502952E+03</pdfrwt>
<totfact> 0.95573139E+03</totfact>
</mgrwt>
</event>
<event>
 5    1  0.3269032E-002  0.1250101E+03  0.7818608E-02  0.1235054E+00
         -4   -1    0    0    0  501 -0.00000000000E+00  0.00000000000E+00  0.78239573366E+03  0.78239676441E+03  0.12700000000E+01 0. -1.
          4   -1    0    0  501    0  0.00000000000E+00 -0.00000000000E+00 -0.49116809730E+01  0.50732149551E+01  0.12700000000E+01 0. -1.
         25    2    1    2    0    0  0.00000000000E+00  0.00000000000E+00  0.77748405269E+03  0.78746997936E+03  0.12501006443E+03 0.  0.
    9000005    1    3    3    0    0 -0.40970779745E+00 -0.57370983997E+02  0.54486711761E+03  0.54788025473E+03  0.10000000000E+01 0.  0.
    9000005    1    3    3    0    0  0.40970779745E+00  0.57370983997E+02  0.23261693508E+03  0.23958972464E+03  0.10000000000E+01 0.  0.
<mgrwt>
<rscale>  0 0.12501006E+03</rscale>
<asrwt>0</asrwt>
<pdfrwt beam="2">  1        4 0.76814806E-03 0.12501006E+03</pdfrwt>
<pdfrwt beam="1">  1       -4 0.12038110E+00 0.12501006E+03</pdfrwt>
<totfact> 0.38821713E+03</totfact>
</mgrwt>
</event>
<event>
 5    1  0.3269032E-002  0.1249909E+03  0.7818608E-02  0.1235083E+00
         -4   -1    0    0    0  501 -0.00000000000E+00  0.00000000000E+00  0.15835043154E+03  0.15835552427E+03  0.12700000000E+01 0.  1.
          4   -1    0    0  501    0  0.00000000000E+00 -0.00000000000E+00 -0.24642968407E+02  0.24675672066E+02  0.12700000000E+01 0.  1.
         25    2    1    2    0    0  0.00000000000E+00  0.00000000000E+00  0.13370746313E+03  0.18303119634E+03  0.12499093222E+03 0.  0.
    9000005    1    3    3    0    0  0.47009516851E+02 -0.39245301030E+02  0.85060978077E+02  0.10481630750E+03  0.10000000000E+01 0.  0.
    9000005    1    3    3    0    0 -0.47009516851E+02  0.39245301030E+02  0.48646485054E+02  0.78214888836E+02  0.10000000000E+01 0.  0.
<mgrwt>
<rscale>  0 0.12499093E+03</rscale>
<asrwt>0</asrwt>
<pdfrwt beam="2">  1        4 0.37941335E-02 0.12499093E+03</pdfrwt>
<pdfrwt beam="1">  1       -4 0.24364511E-01 0.12499093E+03</pdfrwt>
<totfact> 0.93093127E+03</totfact>
</mgrwt>
</event>
<event>
 5    1  0.3269032E-002  0.1249991E+03  0.7818608E-02  0.1235071E+00
         -4   -1    0    0    0  501 -0.00000000000E+00  0.00000000000E+00  0.34243826963E+02  0.34267369100E+02  0.12700000000E+01 0. -1.
          4   -1    0    0  501    0  0.00000000000E+00 -0.00000000000E+00 -0.11400379114E+03  0.11401086481E+03  0.12700000000E+01 0. -1.
         25    2    1    2    0    0  0.00000000000E+00  0.00000000000E+00 -0.79759964176E+02  0.14827823391E+03  0.12499913106E+03 0.  0.
    9000005    1    3    3    0    0 -0.72509457095E+01 -0.21394560769E+02  0.29236783714E+02  0.36960694881E+02  0.10000000000E+01 0.  0.
    9000005    1    3    3    0    0  0.72509457095E+01  0.21394560769E+02 -0.10899674789E+03  0.11131753903E+03  0.10000000000E+01 0.  0.
<mgrwt>
<rscale>  0 0.12499913E+03</rscale>
<asrwt>0</asrwt>
<pdfrwt beam="2">  1        4 0.17541400E-01 0.12499913E+03</pdfrwt>
<pdfrwt beam="1">  1       -4 0.52706362E-02 0.12499913E+03</pdfrwt>
<totfact> 0.99649969E+03</totfact>
</mgrwt>
</event>
<event>
 5    1  0.3269032E-002  0.1249998E+03  0.7818608E-02  0.1235070E+00
         -4   -1    0    0    0  501 -0.00000000000E+00  0.00000000000E+00  0.16278076940E+02  0.16327543872E+02  0.12700000000E+01 0. -1.
          4   -1    0    0  501    0  0.00000000000E+00 -0.00000000000E+00 -0.23955407184E+03  0.23955743828E+03  0.12700000000E+01 0. -1.
         25    2    1    2    0    0  0.00000000000E+00  0.00000000000E+00 -0.22327599490E+03  0.25588498215E+03  0.12499981677E+03 0.  0.
    9000005    1    3    3    0    0 -0.39534255624E+02 -0.48559322400E+01 -0.21021095923E+03  0.21395369786E+03  0.10000000000E+01 0.  0.
    9000005    1    3    3    0    0  0.39534255624E+02  0.48559322400E+01 -0.13065035670E+02  0.41931284296E+02  0.10000000000E+01 0.  0.
<mgrwt>
<rscale>  0 0.12499982E+03</rscale>
<asrwt>0</asrwt>
<pdfrwt beam="2">  1        4 0.36858534E-01 0.12499982E+03</pdfrwt>
<pdfrwt beam="1">  1       -4 0.25083838E-02 0.12499982E+03</pdfrwt>
<totfact> 0.81487369E+03</totfact>
</mgrwt>
</event>
<event>
 5    1  0.3269032E-002  0.1249937E+03  0.7818608E-02  0.1235079E+00
         -4   -1    0    0    0  501 -0.00000000000E+00  0.00000000000E+00  0.17138811431E+03  0.17139281965E+03  0.12700000000E+01 0.  1.
          4   -1    0    0  501    0  0.00000000000E+00 -0.00000000000E+00 -0.22766823413E+02  0.22802218056E+02  0.12700000000E+01 0.  1.
         25    2    1    2    0    0  0.00000000000E+00  0.00000000000E+00  0.14862129090E+03  0.19419503770E+03  0.12499369808E+03 0.  0.
    9000005    1    3    3    0    0 -0.16794671603E+02 -0.46450405525E+01 -0.18923450013E+02  0.25743627491E+02  0.10000000000E+01 0.  0.
    9000005    1    3    3    0    0  0.16794671603E+02  0.46450405525E+01  0.16754474091E+03  0.16845141021E+03  0.10000000000E+01 0.  0.
<mgrwt>
<rscale>  0 0.12499370E+03</rscale>
<asrwt>0</asrwt>
<pdfrwt beam="2">  1        4 0.35056727E-02 0.12499370E+03</pdfrwt>
<pdfrwt beam="1">  1       -4 0.26370488E-01 0.12499370E+03</pdfrwt>
<totfact> 0.91135330E+03</totfact>
</mgrwt>
</event>
<event>
 5    1  0.3269032E-002  0.1250007E+03  0.7818608E-02  0.1235068E+00
         -4   -1    0    0    0  501 -0.00000000000E+00  0.00000000000E+00  0.30847615865E+01  0.33359637356E+01  0.12700000000E+01 0. -1.
          4   -1    0    0  501    0  0.00000000000E+00 -0.00000000000E+00 -0.12165250773E+04  0.12165257402E+04  0.12700000000E+01 0. -1.
         25    2    1    2    0    0  0.00000000000E+00  0.00000000000E+00 -0.12134403157E+04  0.12198617039E+04  0.12500070784E+03 0.  0.
    9000005    1    3    3    0    0  0.13842577628E+02 -0.20533394599E+02 -0.46792658071E+02  0.52950827175E+02  0.10000000000E+01 0.  0.
    9000005    1    3    3    0    0 -0.13842577628E+02  0.20533394599E+02 -0.11666476576E+04  0.11669108767E+04  0.10000000000E+01 0.  0.
<mgrwt>
<rscale>  0 0.12500071E+03</rscale>
<asrwt>0</asrwt>
<pdfrwt beam="2">  1        4 0.18717671E+00 0.12500071E+03</pdfrwt>
<pdfrwt beam="1">  1       -4 0.49395391E-03 0.12500071E+03</pdfrwt>
<totfact> 0.24198403E+03</totfact>
</mgrwt>
</event>
<event>
 5    1  0.3269032E-002  0.1250011E+03  0.7818608E-02  0.1235068E+00
          4   -1    0    0  501    0  0.00000000000E+00  0.00000000000E+00  0.75409981828E+02  0.75420675278E+02  0.12700000000E+01 0. -1.
         -4   -1    0    0    0  501 -0.00000000000E+00 -0.00000000000E+00 -0.51778909565E+02  0.51794482097E+02  0.12700000000E+01 0. -1.
         25    2    1    2    0    0  0.00000000000E+00  0.00000000000E+00  0.23631072264E+02  0.12721515737E+03  0.12500107475E+03 0.  0.
    9000005    1    3    3    0    0 -0.42828161268E+02 -0.45221219954E+02  0.66155290539E+01  0.62641642351E+02  0.10000000000E+01 0.  0.
    9000005    1    3    3    0    0  0.42828161268E+02  0.45221219954E+02  0.17015543210E+02  0.64573515024E+02  0.10000000000E+01 0.  0.
<mgrwt>
<rscale>  0 0.12500107E+03</rscale>
<asrwt>0</asrwt>
<pdfrwt beam="1">  1        4 0.11603556E-01 0.12500107E+03</pdfrwt>
<pdfrwt beam="2">  1       -4 0.79680066E-02 0.12500107E+03</pdfrwt>
<totfact> 0.10404222E+04</totfact>
</mgrwt>
</event>
<event>
 5    1  0.3269032E-002  0.1250014E+03  0.7818608E-02  0.1235067E+00
          4   -1    0    0  501    0  0.00000000000E+00  0.00000000000E+00  0.34283175450E+03  0.34283410681E+03  0.12700000000E+01 0. -1.
         -4   -1    0    0    0  501 -0.00000000000E+00 -0.00000000000E+00 -0.11356532728E+02  0.11427324079E+02  0.12700000000E+01 0. -1.
         25    2    1    2    0    0  0.00000000000E+00  0.00000000000E+00  0.33147522177E+03  0.35426143089E+03  0.12500135507E+03 0.  0.
    9000005    1    3    3    0    0  0.11643487110E+02 -0.49224186221E+02  0.26974197857E+03  0.27444548876E+03  0.10000000000E+01 0.  0.
    9000005    1    3    3    0    0 -0.11643487110E+02  0.49224186221E+02  0.61733243207E+02  0.79815942129E+02  0.10000000000E+01 0.  0.
<mgrwt>
<rscale>  0 0.12500136E+03</rscale>
<asrwt>0</asrwt>
<pdfrwt beam="1">  1        4 0.52748985E-01 0.12500136E+03</pdfrwt>
<pdfrwt beam="2">  1       -4 0.17527849E-02 0.12500136E+03</pdfrwt>
<totfact> 0.69256190E+03</totfact>
</mgrwt>
</event>
<event>
 5    1  0.3269032E-002  0.1249976E+03  0.7818608E-02  0.1235073E+00
         -4   -1    0    0    0  501 -0.00000000000E+00  0.00000000000E+00  0.44394927798E+01  0.46175747034E+01  0.12700000000E+01 0. -1.
          4   -1    0    0  501    0  0.00000000000E+00 -0.00000000000E+00 -0.86237376003E+03  0.86237469518E+03  0.12700000000E+01 0. -1.
         25    2    1    2    0    0  0.00000000000E+00  0.00000000000E+00 -0.85793426725E+03  0.86699226989E+03  0.12499755644E+03 0.  0.
    9000005    1    3    3    0    0  0.52586731740E+02  0.33463814443E+02 -0.45991325435E+03  0.46411894247E+03  0.10000000000E+01 0.  0.
    9000005    1    3    3    0    0 -0.52586731740E+02 -0.33463814443E+02 -0.39802101290E+03  0.40287332741E+03  0.10000000000E+01 0.  0.
<mgrwt>
<rscale>  0 0.12499756E+03</rscale>
<asrwt>0</asrwt>
<pdfrwt beam="2">  1        4 0.13268653E+00 0.12499756E+03</pdfrwt>
<pdfrwt beam="1">  1       -4 0.69677012E-03 0.12499756E+03</pdfrwt>
<totfact> 0.35443822E+03</totfact>
</mgrwt>
</event>
<event>
 5    1  0.3269032E-002  0.1250080E+03  0.7818608E-02  0.1235057E+00
         -4   -1    0    0    0  501 -0.00000000000E+00  0.00000000000E+00  0.52248058324E+02  0.52263491068E+02  0.12700000000E+01 0.  1.
          4   -1    0    0  501    0  0.00000000000E+00 -0.00000000000E+00 -0.74741288900E+02  0.74752078007E+02  0.12700000000E+01 0.  1.
         25    2    1    2    0    0  0.00000000000E+00  0.00000000000E+00 -0.22493230576E+02  0.12701556908E+03  0.12500803720E+03 0.  0.
    9000005    1    3    3    0    0  0.26328713596E+02 -0.87165457526E+00 -0.68829403180E+02  0.73705140143E+02  0.10000000000E+01 0.  0.
    9000005    1    3    3    0    0 -0.26328713596E+02  0.87165457526E+00  0.46336172604E+02  0.53310428932E+02  0.10000000000E+01 0.  0.
<mgrwt>
<rscale>  0 0.12500804E+03</rscale>
<asrwt>0</asrwt>
<pdfrwt beam="2">  1        4 0.11500677E-01 0.12500804E+03</pdfrwt>
<pdfrwt beam="1">  1       -4 0.80401799E-02 0.12500804E+03</pdfrwt>
<totfact> 0.10406919E+04</totfact>
</mgrwt>
</event>
<event>
 5    1  0.3269032E-002  0.1250002E+03  0.7818608E-02  0.1235069E+00
          4   -1    0    0  501    0  0.00000000000E+00  0.00000000000E+00  0.60509386992E+02  0.60522713209E+02  0.12700000000E+01 0. -1.
         -4   -1    0    0    0  501 -0.00000000000E+00 -0.00000000000E+00 -0.64529593961E+02  0.64542090118E+02  0.12700000000E+01 0. -1.
         25    2    1    2    0    0  0.00000000000E+00  0.00000000000E+00 -0.40202069687E+01  0.12506480333E+03  0.12500017187E+03 0.  0.
    9000005    1    3    3    0    0  0.52561118703E+02 -0.14063836663E+02  0.28743356660E+02  0.61543831966E+02  0.10000000000E+01 0.  0.
    9000005    1    3    3    0    0 -0.52561118703E+02  0.14063836663E+02 -0.32763563629E+02  0.63520971361E+02  0.10000000000E+01 0.  0.
<mgrwt>
<rscale>  0 0.12500017E+03</rscale>
<asrwt>0</asrwt>
<pdfrwt beam="1">  1        4 0.93111228E-02 0.12500017E+03</pdfrwt>
<pdfrwt beam="2">  1       -4 0.99296162E-02 0.12500017E+03</pdfrwt>
<totfact> 0.10451415E+04</totfact>
</mgrwt>
</event>
<event>
 5    1  0.3269032E-002  0.1249986E+03  0.7818608E-02  0.1235072E+00
         -4   -1    0    0    0  501 -0.00000000000E+00  0.00000000000E+00  0.23199797718E+01  0.26448452018E+01  0.12700000000E+01 0.  1.
          4   -1    0    0  501    0  0.00000000000E+00 -0.00000000000E+00 -0.15732087068E+04  0.15732092194E+04  0.12700000000E+01 0.  1.
         25    2    1    2    0    0  0.00000000000E+00  0.00000000000E+00 -0.15708887270E+04  0.15758540646E+04  0.12499856105E+03 0.  0.
    9000005    1    3    3    0    0  0.33979129612E+02 -0.23723037637E+02 -0.13751216838E+04  0.13757463462E+04  0.10000000000E+01 0.  0.
    9000005    1    3    3    0    0 -0.33979129612E+02  0.23723037637E+02 -0.19576704317E+03  0.20010771838E+03  0.10000000000E+01 0.  0.
<mgrwt>
<rscale>  0 0.12499856E+03</rscale>
<asrwt>0</asrwt>
<pdfrwt beam="2">  1        4 0.24205634E+00 0.12499856E+03</pdfrwt>
<pdfrwt beam="1">  1       -4 0.38195030E-03 0.12499856E+03</pdfrwt>
<totfact> 0.16487207E+03</totfact>
</mgrwt>
</event>
<event>
 5    1  0.3269032E-002  0.1249453E+03  0.7818608E-02  0.1235155E+00
          4   -1    0    0  501    0  0.00000000000E+00  0.00000000000E+00  0.23756156664E+03  0.23756496131E+03  0.12700000000E+01 0.  1.
         -4   -1    0    0    0  501 -0.00000000000E+00 -0.00000000000E+00 -0.16400647096E+02  0.16449745443E+02  0.12700000000E+01 0.  1.
         25    2    1    2    0    0  0.00000000000E+00  0.00000000000E+00  0.22116091954E+03  0.25401470676E+03  0.12494526368E+03 0.  0.
    9000005    1    3    3    0    0 -0.38788842070E+02  0.48332252362E+02  0.94669806826E+02  0.11315455453E+03  0.10000000000E+01 0.  0.
    9000005    1    3    3    0    0  0.38788842070E+02 -0.48332252362E+02  0.12649111272E+03  0.14086015222E+03  0.10000000000E+01 0.  0.
<mgrwt>
<rscale>  0 0.12494526E+03</rscale>
<asrwt>0</asrwt>
<pdfrwt beam="1">  1        4 0.36551970E-01 0.12494526E+03</pdfrwt>
<pdfrwt beam="2">  1       -4 0.25272145E-02 0.12494526E+03</pdfrwt>
<totfact> 0.81853153E+03</totfact>
</mgrwt>
</event>
<event>
 5    1  0.3269032E-002  0.1250033E+03  0.7818608E-02  0.1235064E+00
         -4   -1    0    0    0  501 -0.00000000000E+00  0.00000000000E+00  0.10503874338E+03  0.10504642074E+03  0.12700000000E+01 0. -1.
          4   -1    0    0  501    0  0.00000000000E+00 -0.00000000000E+00 -0.37170731728E+02  0.37192421234E+02  0.12700000000E+01 0. -1.
         25    2    1    2    0    0  0.00000000000E+00  0.00000000000E+00  0.67868011652E+02  0.14223884198E+03  0.12500328460E+03 0.  0.
    9000005    1    3    3    0    0  0.21391445589E+01  0.48961367228E+02  0.78057730446E+02  0.92172667872E+02  0.10000000000E+01 0.  0.
    9000005    1    3    3    0    0 -0.21391445589E+01 -0.48961367228E+02 -0.10189718794E+02  0.50066174104E+02  0.10000000000E+01 0.  0.
<mgrwt>
<rscale>  0 0.12500328E+03</rscale>
<asrwt>0</asrwt>
<pdfrwt beam="2">  1        4 0.57208331E-02 0.12500328E+03</pdfrwt>
<pdfrwt beam="1">  1       -4 0.16162066E-01 0.12500328E+03</pdfrwt>
<totfact> 0.10086647E+04</totfact>
</mgrwt>
</event>
<event>
 5    1  0.3269032E-002  0.1249985E+03  0.7818608E-02  0.1235072E+00
          4   -1    0    0  501    0  0.00000000000E+00  0.00000000000E+00  0.82969686050E+02  0.82979405295E+02  0.12700000000E+01 0. -1.
         -4   -1    0    0    0  501 -0.00000000000E+00 -0.00000000000E+00 -0.47058270833E+02  0.47075404977E+02  0.12700000000E+01 0. -1.
         25    2    1    2    0    0  0.00000000000E+00  0.00000000000E+00  0.35911415217E+02  0.13005481027E+03  0.12499849572E+03 0.  0.
    9000005    1    3    3    0    0  0.29286321551E+02  0.47950006293E+02  0.46416640503E+02  0.72886186957E+02  0.10000000000E+01 0.  0.
    9000005    1    3    3    0    0 -0.29286321551E+02 -0.47950006293E+02 -0.10505225286E+02  0.57168623316E+02  0.10000000000E+01 0.  0.
<mgrwt>
<rscale>  0 0.12499850E+03</rscale>
<asrwt>0</asrwt>
<pdfrwt beam="1">  1        4 0.12766633E-01 0.12499850E+03</pdfrwt>
<pdfrwt beam="2">  1       -4 0.72417997E-02 0.12499850E+03</pdfrwt>
<totfact> 0.10343686E+04</totfact>
</mgrwt>
</event>
<event>
 5    1  0.3269032E-002  0.1249604E+03  0.7818608E-02  0.1235131E+00
         -4   -1    0    0    0  501 -0.00000000000E+00  0.00000000000E+00  0.39873286058E+01  0.41846970512E+01  0.12700000000E+01 0. -1.
          4   -1    0    0  501    0  0.00000000000E+00 -0.00000000000E+00 -0.95520244379E+03  0.95520328806E+03  0.12700000000E+01 0. -1.
         25    2    1    2    0    0  0.00000000000E+00  0.00000000000E+00 -0.95121511519E+03  0.95938798512E+03  0.12496043623E+03 0.  0.
    9000005    1    3    3    0    0  0.41661268457E+02 -0.38049088024E+02 -0.26968595548E+03  0.27552660302E+03  0.10000000000E+01 0.  0.
    9000005    1    3    3    0    0 -0.41661268457E+02  0.38049088024E+02 -0.68152915971E+03  0.68386138210E+03  0.10000000000E+01 0.  0.
<mgrwt>
<rscale>  0 0.12496044E+03</rscale>
<asrwt>0</asrwt>
<pdfrwt beam="2">  1        4 0.14696929E+00 0.12496044E+03</pdfrwt>
<pdfrwt beam="1">  1       -4 0.62868306E-03 0.12496044E+03</pdfrwt>
<totfact> 0.32012650E+03</totfact>
</mgrwt>
</event>
<event>
 5    1  0.3269032E-002  0.1250007E+03  0.7818608E-02  0.1235068E+00
          4   -1    0    0  501    0  0.00000000000E+00  0.00000000000E+00  0.62877405066E+03  0.62877533324E+03  0.12700000000E+01 0.  1.
         -4   -1    0    0    0  501 -0.00000000000E+00 -0.00000000000E+00 -0.61463526912E+01  0.62761892422E+01  0.12700000000E+01 0.  1.
         25    2    1    2    0    0  0.00000000000E+00  0.00000000000E+00  0.62262769797E+03  0.63505152248E+03  0.12500074368E+03 0.  0.
    9000005    1    3    3    0    0 -0.64920850887E+01 -0.61143727913E+02  0.25460580534E+03  0.26192712488E+03  0.10000000000E+01 0.  0.
    9000005    1    3    3    0    0  0.64920850887E+01  0.61143727913E+02  0.36802189263E+03  0.37312439760E+03  0.10000000000E+01 0.  0.
<mgrwt>
<rscale>  0 0.12500074E+03</rscale>
<asrwt>0</asrwt>
<pdfrwt beam="1">  1        4 0.96744558E-01 0.12500074E+03</pdfrwt>
<pdfrwt beam="2">  1       -4 0.95567878E-03 0.12500074E+03</pdfrwt>
<totfact> 0.46726498E+03</totfact>
</mgrwt>
</event>
<event>
 5    1  0.3269032E-002  0.1250005E+03  0.7818608E-02  0.1235068E+00
          4   -1    0    0  501    0  0.00000000000E+00  0.00000000000E+00  0.40357612223E+01  0.42308709083E+01  0.12700000000E+01 0. -1.
         -4   -1    0    0    0  501 -0.00000000000E+00 -0.00000000000E+00 -0.94487697923E+03  0.94487783272E+03  0.12700000000E+01 0. -1.
         25    2    1    2    0    0  0.00000000000E+00  0.00000000000E+00 -0.94084121800E+03  0.94910870363E+03  0.12500053525E+03 0.  0.
    9000005    1    3    3    0    0  0.58435474181E+02  0.21918484932E+02 -0.44622002151E+03  0.45056457053E+03  0.10000000000E+01 0.  0.
    9000005    1    3    3    0    0 -0.58435474181E+02 -0.21918484932E+02 -0.49462119649E+03  0.49854413310E+03  0.10000000000E+01 0.  0.
<mgrwt>
<rscale>  0 0.12500054E+03</rscale>
<asrwt>0</asrwt>
<pdfrwt beam="1">  1        4 0.63596118E-03 0.12500054E+03</pdfrwt>
<pdfrwt beam="2">  1       -4 0.14538059E+00 0.12500054E+03</pdfrwt>
<totfact> 0.32347296E+03</totfact>
</mgrwt>
</event>
<event>
 5    1  0.3269032E-002  0.1250055E+03  0.7818608E-02  0.1235061E+00
          4   -1    0    0  501    0  0.00000000000E+00  0.00000000000E+00  0.31873869158E+02  0.31899160414E+02  0.12700000000E+01 0. -1.
         -4   -1    0    0    0  501 -0.00000000000E+00 -0.00000000000E+00 -0.12248688116E+03  0.12249346495E+03  0.12700000000E+01 0. -1.
         25    2    1    2    0    0  0.00000000000E+00  0.00000000000E+00 -0.90613011997E+02  0.15439262536E+03  0.12500545917E+03 0.  0.
    9000005    1    3    3    0    0 -0.15741635458E+01  0.58761795066E+02 -0.19101559985E+02  0.61816633232E+02  0.10000000000E+01 0.  0.
    9000005    1    3    3    0    0  0.15741635458E+01 -0.58761795066E+02 -0.71511452012E+02  0.92575992131E+02  0.10000000000E+01 0.  0.
<mgrwt>
<rscale>  0 0.12500546E+03</rscale>
<asrwt>0</asrwt>
<pdfrwt beam="1">  1        4 0.49061242E-02 0.12500546E+03</pdfrwt>
<pdfrwt beam="2">  1       -4 0.18846587E-01 0.12500546E+03</pdfrwt>
<totfact> 0.98422781E+03</totfact>
</mgrwt>
</event>
<event>
 5    1  0.3269032E-002  0.1250069E+03  0.7818608E-02  0.1235059E+00
         -4   -1    0    0    0  501 -0.00000000000E+00  0.00000000000E+00  0.42843727503E+01  0.44686407176E+01  0.12700000000E+01 0.  1.
          4   -1    0    0  501    0  0.00000000000E+00 -0.00000000000E+00 -0.89246297064E+03  0.89246387426E+03  0.12700000000E+01 0.  1.
         25    2    1    2    0    0  0.00000000000E+00  0.00000000000E+00 -0.88817859789E+03  0.89693251498E+03  0.12500685853E+03 0.  0.
    9000005    1    3    3    0    0  0.39271781871E+02 -0.45249000041E+02 -0.31655588610E+03  0.32217755025E+03  0.10000000000E+01 0.  0.
    9000005    1    3    3    0    0 -0.39271781871E+02  0.45249000041E+02 -0.57162271179E+03  0.57475496474E+03  0.10000000000E+01 0.  0.
<mgrwt>
<rscale>  0 0.12500686E+03</rscale>
<asrwt>0</asrwt>
<pdfrwt beam="2">  1        4 0.13731609E+00 0.12500686E+03</pdfrwt>
<pdfrwt beam="1">  1       -4 0.67337895E-03 0.12500686E+03</pdfrwt>
<totfact> 0.34272550E+03</totfact>
</mgrwt>
</event>
<event>
 5    1  0.3269032E-002  0.1249765E+03  0.7818608E-02  0.1235106E+00
          4   -1    0    0  501    0  0.00000000000E+00  0.00000000000E+00  0.40487506376E+03  0.40487705561E+03  0.12700000000E+01 0.  1.
         -4   -1    0    0    0  501 -0.00000000000E+00 -0.00000000000E+00 -0.96005719773E+01  0.96842078815E+01  0.12700000000E+01 0.  1.
         25    2    1    2    0    0  0.00000000000E+00  0.00000000000E+00  0.39527449178E+03  0.41456126349E+03  0.12497646710E+03 0.  0.
    9000005    1    3    3    0    0 -0.48134217528E+02  0.39816049064E+02  0.20177855702E+03  0.21122927527E+03  0.10000000000E+01 0.  0.
    9000005    1    3    3    0    0  0.48134217528E+02 -0.39816049064E+02  0.19349593477E+03  0.20333198821E+03  0.10000000000E+01 0.  0.
<mgrwt>
<rscale>  0 0.12497647E+03</rscale>
<asrwt>0</asrwt>
<pdfrwt beam="1">  1        4 0.62295071E-01 0.12497647E+03</pdfrwt>
<pdfrwt beam="2">  1       -4 0.14835975E-02 0.12497647E+03</pdfrwt>
<totfact> 0.63193590E+03</totfact>
</mgrwt>
</event>
<event>
 5    1  0.3269032E-002  0.1249952E+03  0.7818608E-02  0.1235077E+00
          4   -1    0    0  501    0  0.00000000000E+00  0.00000000000E+00  0.41109028739E+02  0.41128641405E+02  0.12700000000E+01 0. -1.
         -4   -1    0    0    0  501 -0.00000000000E+00 -0.00000000000E+00 -0.94967886669E+02  0.94976378107E+02  0.12700000000E+01 0. -1.
         25    2    1    2    0    0  0.00000000000E+00  0.00000000000E+00 -0.53858857930E+02  0.13610501951E+03  0.12499519894E+03 0.  0.
    9000005    1    3    3    0    0 -0.38754546637E+02  0.67236402037E+01 -0.79802780994E+02  0.88975311615E+02  0.10000000000E+01 0.  0.
    9000005    1    3    3    0    0  0.38754546637E+02 -0.67236402037E+01  0.25943923063E+02  0.47129707898E+02  0.10000000000E+01 0.  0.
<mgrwt>
<rscale>  0 0.12499520E+03</rscale>
<asrwt>0</asrwt>
<pdfrwt beam="1">  1        4 0.63266278E-02 0.12499520E+03</pdfrwt>
<pdfrwt beam="2">  1       -4 0.14612606E-01 0.12499520E+03</pdfrwt>
<totfact> 0.10215938E+04</totfact>
</mgrwt>
</event>
<event>
 5    1  0.3269032E-002  0.1249988E+03  0.7818608E-02  0.1235071E+00
          4   -1    0    0  501    0  0.00000000000E+00  0.00000000000E+00  0.18024347615E+02  0.18069034478E+02  0.12700000000E+01 0. -1.
         -4   -1    0    0    0  501 -0.00000000000E+00 -0.00000000000E+00 -0.21640188191E+03  0.21640560851E+03  0.12700000000E+01 0. -1.
         25    2    1    2    0    0  0.00000000000E+00  0.00000000000E+00 -0.19837753429E+03  0.23447464299E+03  0.12499884836E+03 0.  0.
    9000005    1    3    3    0    0 -0.22146384450E+02  0.35184300276E+02 -0.18670673197E+03  0.19128199364E+03  0.10000000000E+01 0.  0.
    9000005    1    3    3    0    0  0.22146384450E+02 -0.35184300276E+02 -0.11670802324E+02  0.43192649340E+02  0.10000000000E+01 0.  0.
<mgrwt>
<rscale>  0 0.12499885E+03</rscale>
<asrwt>0</asrwt>
<pdfrwt beam="1">  1        4 0.27767008E-02 0.12499885E+03</pdfrwt>
<pdfrwt beam="2">  1       -4 0.33296320E-01 0.12499885E+03</pdfrwt>
<totfact> 0.84629389E+03</totfact>
</mgrwt>
</event>
<event>
 5    1  0.3269032E-002  0.1249993E+03  0.7818608E-02  0.1235070E+00
          4   -1    0    0  501    0  0.00000000000E+00  0.00000000000E+00  0.40537513878E+03  0.40537712817E+03  0.12700000000E+01 0. -1.
         -4   -1    0    0    0  501 -0.00000000000E+00 -0.00000000000E+00 -0.95921610561E+01  0.96758696625E+01  0.12700000000E+01 0. -1.
         25    2    1    2    0    0  0.00000000000E+00  0.00000000000E+00  0.39578297773E+03  0.41505299783E+03  0.12499930220E+03 0.  0.
    9000005    1    3    3    0    0 -0.47904465793E+02 -0.33372426697E+02  0.12389330738E+03  0.13696389423E+03  0.10000000000E+01 0.  0.
    9000005    1    3    3    0    0  0.47904465793E+02  0.33372426697E+02  0.27188967034E+03  0.27808910361E+03  0.10000000000E+01 0.  0.
<mgrwt>
<rscale>  0 0.12499930E+03</rscale>
<asrwt>0</asrwt>
<pdfrwt beam="1">  1        4 0.62371994E-01 0.12499930E+03</pdfrwt>
<pdfrwt beam="2">  1       -4 0.14823093E-02 0.12499930E+03</pdfrwt>
<totfact> 0.63115590E+03</totfact>
</mgrwt>
</event>
<event>
 5    1  0.3269032E-002  0.1249987E+03  0.7818608E-02  0.1235071E+00
         -4   -1    0    0    0  501 -0.00000000000E+00  0.00000000000E+00  0.57001503227E+02  0.57015649344E+02  0.12700000000E+01 0.  1.
          4   -1    0    0  501    0  0.00000000000E+00 -0.00000000000E+00 -0.68498952692E+02  0.68510724853E+02  0.12700000000E+01 0.  1.
         25    2    1    2    0    0  0.00000000000E+00  0.00000000000E+00 -0.11497449465E+02  0.12552637420E+03  0.12499871709E+03 0.  0.
    9000005    1    3    3    0    0 -0.32946695691E+02  0.52160478211E+02  0.42416155369E+01  0.61848132927E+02  0.10000000000E+01 0.  0.
    9000005    1    3    3    0    0  0.32946695691E+02 -0.52160478211E+02 -0.15739065002E+02  0.63678241270E+02  0.10000000000E+01 0.  0.
<mgrwt>
<rscale>  0 0.12499872E+03</rscale>
<asrwt>0</asrwt>
<pdfrwt beam="2">  1        4 0.10540294E-01 0.12499872E+03</pdfrwt>
<pdfrwt beam="1">  1       -4 0.87714558E-02 0.12499872E+03</pdfrwt>
<totfact> 0.10441674E+04</totfact>
</mgrwt>
</event>
<event>
 5    1  0.3269032E-002  0.1249917E+03  0.7818608E-02  0.1235082E+00
         -4   -1    0    0    0  501 -0.00000000000E+00  0.00000000000E+00  0.12847588301E+03  0.12848215991E+03  0.12700000000E+01 0. -1.
          4   -1    0    0  501    0  0.00000000000E+00 -0.00000000000E+00 -0.30380229417E+02  0.30406763054E+02  0.12700000000E+01 0. -1.
         25    2    1    2    0    0  0.00000000000E+00  0.00000000000E+00  0.98095653595E+02  0.15888892297E+03  0.12499173008E+03 0.  0.
    9000005    1    3    3    0    0 -0.18563653587E+02  0.59629703990E+02  0.51721061877E+02  0.81094876990E+02  0.10000000000E+01 0.  0.
    9000005    1    3    3    0    0  0.18563653587E+02 -0.59629703990E+02  0.46374591718E+02  0.77794045976E+02  0.10000000000E+01 0.  0.
<mgrwt>
<rscale>  0 0.12499173E+03</rscale>
<asrwt>0</asrwt>
<pdfrwt beam="2">  1        4 0.46764053E-02 0.12499173E+03</pdfrwt>
<pdfrwt beam="1">  1       -4 0.19768044E-01 0.12499173E+03</pdfrwt>
<totfact> 0.97575559E+03</totfact>
</mgrwt>
</event>
<event>
 5    1  0.3269032E-002  0.1249748E+03  0.7818608E-02  0.1235109E+00
         -4   -1    0    0    0  501 -0.00000000000E+00  0.00000000000E+00  0.32601483329E+03  0.32601730694E+03  0.12700000000E+01 0.  1.
          4   -1    0    0  501    0  0.00000000000E+00 -0.00000000000E+00 -0.11940789688E+02  0.12008137173E+02  0.12700000000E+01 0.  1.
         25    2    1    2    0    0  0.00000000000E+00  0.00000000000E+00  0.31407404361E+03  0.33802544412E+03  0.12497478147E+03 0.  0.
    9000005    1    3    3    0    0 -0.18019893622E+02  0.20304538992E+02  0.30924215880E+03  0.31043309046E+03  0.10000000000E+01 0.  0.
    9000005    1    3    3    0    0  0.18019893622E+02 -0.20304538992E+02  0.48318848044E+01  0.27592353662E+02  0.10000000000E+01 0.  0.
<mgrwt>
<rscale>  0 0.12497478E+03</rscale>
<asrwt>0</asrwt>
<pdfrwt beam="2">  1        4 0.18424158E-02 0.12497478E+03</pdfrwt>
<pdfrwt beam="1">  1       -4 0.50161490E-01 0.12497478E+03</pdfrwt>
<totfact> 0.71102013E+03</totfact>
</mgrwt>
</event>
<event>
 5    1  0.3269032E-002  0.1249987E+03  0.7818608E-02  0.1235071E+00
         -4   -1    0    0    0  501 -0.00000000000E+00  0.00000000000E+00  0.66939563245E+02  0.66951609596E+02  0.12700000000E+01 0. -1.
          4   -1    0    0  501    0  0.00000000000E+00 -0.00000000000E+00 -0.58329484245E+02  0.58343308376E+02  0.12700000000E+01 0. -1.
         25    2    1    2    0    0  0.00000000000E+00  0.00000000000E+00  0.86100790007E+01  0.12529491797E+03  0.12499873203E+03 0.  0.
    9000005    1    3    3    0    0 -0.24749256641E+02 -0.55473675910E+02 -0.10403390974E+02  0.61636717685E+02  0.10000000000E+01 0.  0.
    9000005    1    3    3    0    0  0.24749256641E+02  0.55473675910E+02  0.19013469975E+02  0.63658200287E+02  0.10000000000E+01 0.  0.
<mgrwt>
<rscale>  0 0.12499873E+03</rscale>
<asrwt>0</asrwt>
<pdfrwt beam="2">  1        4 0.89757569E-02 0.12499873E+03</pdfrwt>
<pdfrwt beam="1">  1       -4 0.10300384E-01 0.12499873E+03</pdfrwt>
<totfact> 0.10446760E+04</totfact>
</mgrwt>
</event>
<event>
 5    1  0.3269032E-002  0.1250081E+03  0.7818608E-02  0.1235057E+00
         -4   -1    0    0    0  501 -0.00000000000E+00  0.00000000000E+00  0.20289923260E+03  0.20290320719E+03  0.12700000000E+01 0.  1.
          4   -1    0    0  501    0  0.00000000000E+00 -0.00000000000E+00 -0.19229554666E+02  0.19271447082E+02  0.12700000000E+01 0.  1.
         25    2    1    2    0    0  0.00000000000E+00  0.00000000000E+00  0.18366967793E+03  0.22217465428E+03  0.12500810538E+03 0.  0.
    9000005    1    3    3    0    0 -0.29822598436E+02  0.48016502594E+02  0.13921814690E+03  0.15025865807E+03  0.10000000000E+01 0.  0.
    9000005    1    3    3    0    0  0.29822598436E+02 -0.48016502594E+02  0.44451531029E+02  0.71915996202E+02  0.10000000000E+01 0.  0.
<mgrwt>
<rscale>  0 0.12500811E+03</rscale>
<asrwt>0</asrwt>
<pdfrwt beam="2">  1        4 0.29619215E-02 0.12500811E+03</pdfrwt>
<pdfrwt beam="1">  1       -4 0.31218792E-01 0.12500811E+03</pdfrwt>
<totfact> 0.86509746E+03</totfact>
</mgrwt>
</event>
<event>
 4    1  0.3269032E-002  0.1250825E+03  0.7818608E-02  0.1234940E+00
          4   -1    0    0  501    0  0.00000000000E+00  0.00000000000E+00  0.45891319918E+02  0.45908889595E+02  0.12700000000E+01 0. -1.
         -4   -1    0    0    0  501 -0.00000000000E+00 -0.00000000000E+00 -0.85193410628E+02  0.85202876210E+02  0.12700000000E+01 0. -1.
    9000005    1    1    2    0    0  0.30128458665E+02  0.50750868301E+02 -0.41311970501E+02  0.72048966416E+02  0.10000000000E+01 0.  0.
    9000005    1    1    2    0    0 -0.30128458665E+02 -0.50750868301E+02  0.20098797915E+01  0.59062799389E+02  0.10000000000E+01 0.  0.
<mgrwt>
<rscale>  0 0.12508254E+03</rscale>
<asrwt>0</asrwt>
<pdfrwt beam="1">  1        4 0.70622827E-02 0.12508254E+03</pdfrwt>
<pdfrwt beam="2">  1       -4 0.13108758E-01 0.12508254E+03</pdfrwt>
<totfact> 0.10301500E+04</totfact>
</mgrwt>
</event>
<event>
 5    1  0.3269032E-002  0.1250007E+03  0.7818608E-02  0.1235068E+00
         -4   -1    0    0    0  501 -0.00000000000E+00  0.00000000000E+00  0.12293444055E+02  0.12358869962E+02  0.12700000000E+01 0. -1.
          4   -1    0    0  501    0  0.00000000000E+00 -0.00000000000E+00 -0.31684402897E+03  0.31684657421E+03  0.12700000000E+01 0. -1.
         25    2    1    2    0    0  0.00000000000E+00  0.00000000000E+00 -0.30455058491E+03  0.32920544418E+03  0.12500066282E+03 0.  0.
    9000005    1    3    3    0    0 -0.16656152847E+02 -0.53432695279E+02 -0.22548882485E+03  0.23233314547E+03  0.10000000000E+01 0.  0.
    9000005    1    3    3    0    0  0.16656152847E+02  0.53432695279E+02 -0.79061760058E+02  0.96872298702E+02  0.10000000000E+01 0.  0.
<mgrwt>
<rscale>  0 0.12500066E+03</rscale>
<asrwt>0</asrwt>
<pdfrwt beam="2">  1        4 0.48750458E-01 0.12500066E+03</pdfrwt>
<pdfrwt beam="1">  1       -4 0.18965279E-02 0.12500066E+03</pdfrwt>
<totfact> 0.72073417E+03</totfact>
</mgrwt>
</event>
<event>
 5    1  0.3269032E-002  0.1250027E+03  0.7818608E-02  0.1235065E+00
         -4   -1    0    0    0  501 -0.00000000000E+00  0.00000000000E+00  0.37843413415E+02  0.37864717600E+02  0.12700000000E+01 0.  1.
          4   -1    0    0  501    0  0.00000000000E+00 -0.00000000000E+00 -0.10317161179E+03  0.10317942808E+03  0.12700000000E+01 0.  1.
         25    2    1    2    0    0  0.00000000000E+00  0.00000000000E+00 -0.65328198378E+02  0.14104414568E+03  0.12500271008E+03 0.  0.
    9000005    1    3    3    0    0 -0.21927466117E+02 -0.53501781853E+02 -0.59114054168E+01  0.58130879451E+02  0.10000000000E+01 0.  0.
    9000005    1    3    3    0    0  0.21927466117E+02  0.53501781853E+02 -0.59416792961E+02  0.82913266233E+02  0.10000000000E+01 0.  0.
<mgrwt>
<rscale>  0 0.12500271E+03</rscale>
<asrwt>0</asrwt>
<pdfrwt beam="2">  1        4 0.15874796E-01 0.12500271E+03</pdfrwt>
<pdfrwt beam="1">  1       -4 0.58243037E-02 0.12500271E+03</pdfrwt>
<totfact> 0.10111374E+04</totfact>
</mgrwt>
</event>
<event>
 5    1  0.3269032E-002  0.1249886E+03  0.7818608E-02  0.1235087E+00
         -4   -1    0    0    0  501 -0.00000000000E+00  0.00000000000E+00  0.98439916809E+02  0.98448108775E+02  0.12700000000E+01 0.  1.
          4   -1    0    0  501    0  0.00000000000E+00 -0.00000000000E+00 -0.39654287983E+02  0.39674619789E+02  0.12700000000E+01 0.  1.
         25    2    1    2    0    0  0.00000000000E+00  0.00000000000E+00  0.58785628826E+02  0.13812272856E+03  0.12498855143E+03 0.  0.
    9000005    1    3    3    0    0  0.25708018835E+02 -0.56370318304E+02  0.20413752596E+02  0.65239836858E+02  0.10000000000E+01 0.  0.
    9000005    1    3    3    0    0 -0.25708018835E+02  0.56370318304E+02  0.38371876229E+02  0.72882891707E+02  0.10000000000E+01 0.  0.
<mgrwt>
<rscale>  0 0.12498855E+03</rscale>
<asrwt>0</asrwt>
<pdfrwt beam="2">  1        4 0.61028539E-02 0.12498855E+03</pdfrwt>
<pdfrwt beam="1">  1       -4 0.15146797E-01 0.12498855E+03</pdfrwt>
<totfact> 0.10175267E+04</totfact>
</mgrwt>
</event>
<event>
 5    1  0.3269032E-002  0.1249990E+03  0.7818608E-02  0.1235071E+00
         -4   -1    0    0    0  501 -0.00000000000E+00  0.00000000000E+00  0.21355971318E+03  0.21356348938E+03  0.12700000000E+01 0.  1.
          4   -1    0    0  501    0  0.00000000000E+00 -0.00000000000E+00 -0.18264861476E+02  0.18308961323E+02  0.12700000000E+01 0.  1.
         25    2    1    2    0    0  0.00000000000E+00  0.00000000000E+00  0.19529485171E+03  0.23187245070E+03  0.12499901716E+03 0.  0.
    9000005    1    3    3    0    0  0.18369606971E+02  0.57150330598E+02  0.65433176476E+02  0.88803734896E+02  0.10000000000E+01 0.  0.
    9000005    1    3    3    0    0 -0.18369606971E+02 -0.57150330598E+02  0.12986167523E+03  0.14306871580E+03  0.10000000000E+01 0.  0.
<mgrwt>
<rscale>  0 0.12499902E+03</rscale>
<asrwt>0</asrwt>
<pdfrwt beam="2">  1        4 0.28136614E-02 0.12499902E+03</pdfrwt>
<pdfrwt beam="1">  1       -4 0.32859024E-01 0.12499902E+03</pdfrwt>
<totfact> 0.85024770E+03</totfact>
</mgrwt>
</event>
<event>
 5    1  0.3269032E-002  0.1250059E+03  0.7818608E-02  0.1235060E+00
          4   -1    0    0  501    0  0.00000000000E+00  0.00000000000E+00  0.17424894450E+03  0.17425357259E+03  0.12700000000E+01 0.  1.
         -4   -1    0    0    0  501 -0.00000000000E+00 -0.00000000000E+00 -0.22396842454E+02  0.22432820864E+02  0.12700000000E+01 0.  1.
         25    2    1    2    0    0  0.00000000000E+00  0.00000000000E+00  0.15185210204E+03  0.19668639345E+03  0.12500590575E+03 0.  0.
    9000005    1    3    3    0    0  0.37016196828E+02 -0.50243202636E+01 -0.29047455662E+01  0.37481731130E+02  0.10000000000E+01 0.  0.
    9000005    1    3    3    0    0 -0.37016196828E+02  0.50243202636E+01  0.15475684761E+03  0.15920466232E+03  0.10000000000E+01 0.  0.
<mgrwt>
<rscale>  0 0.12500591E+03</rscale>
<asrwt>0</asrwt>
<pdfrwt beam="1">  1        4 0.26810653E-01 0.12500591E+03</pdfrwt>
<pdfrwt beam="2">  1       -4 0.34487917E-02 0.12500591E+03</pdfrwt>
<totfact> 0.90684754E+03</totfact>
</mgrwt>
</event>
<event>
 5    1  0.3269032E-002  0.1249976E+03  0.7818608E-02  0.1235073E+00
         -4   -1    0    0    0  501 -0.00000000000E+00  0.00000000000E+00  0.76493032624E+01  0.77540144700E+01  0.12700000000E+01 0.  1.
          4   -1    0    0  501    0  0.00000000000E+00 -0.00000000000E+00 -0.50707100662E+03  0.50707259703E+03  0.12700000000E+01 0.  1.
         25    2    1    2    0    0  0.00000000000E+00  0.00000000000E+00 -0.49942170336E+03  0.51482661150E+03  0.12499760846E+03 0.  0.
    9000005    1    3    3    0    0 -0.11525304613E+02 -0.14571611284E+02 -0.49545341307E+03  0.49580263112E+03  0.10000000000E+01 0.  0.
    9000005    1    3    3    0    0  0.11525304613E+02  0.14571611284E+02 -0.39682902955E+01  0.19023980385E+02  0.10000000000E+01 0.  0.
<mgrwt>
<rscale>  0 0.12499761E+03</rscale>
<asrwt>0</asrwt>
<pdfrwt beam="2">  1        4 0.78019075E-01 0.12499761E+03</pdfrwt>
<pdfrwt beam="1">  1       -4 0.11849933E-02 0.12499761E+03</pdfrwt>
<totfact> 0.54734967E+03</totfact>
</mgrwt>
</event>
<event>
 5    1  0.3269032E-002  0.1250003E+03  0.7818608E-02  0.1235069E+00
         -4   -1    0    0    0  501 -0.00000000000E+00  0.00000000000E+00  0.20649666125E+02  0.20688683165E+02  0.12700000000E+01 0.  1.
          4   -1    0    0  501    0  0.00000000000E+00 -0.00000000000E+00 -0.18894896110E+03  0.18895322914E+03  0.12700000000E+01 0.  1.
         25    2    1    2    0    0  0.00000000000E+00  0.00000000000E+00 -0.16829929498E+03  0.20964191230E+03  0.12500031482E+03 0.  0.
    9000005    1    3    3    0    0  0.54825910175E+02 -0.25135512418E+02 -0.11158472668E+03  0.12684567647E+03  0.10000000000E+01 0.  0.
    9000005    1    3    3    0    0 -0.54825910175E+02  0.25135512418E+02 -0.56714568302E+02  0.82796235837E+02  0.10000000000E+01 0.  0.
<mgrwt>
<rscale>  0 0.12500031E+03</rscale>
<asrwt>0</asrwt>
<pdfrwt beam="2">  1        4 0.29072399E-01 0.12500031E+03</pdfrwt>
<pdfrwt beam="1">  1       -4 0.31802015E-02 0.12500031E+03</pdfrwt>
<totfact> 0.88533772E+03</totfact>
</mgrwt>
</event>
<event>
 5    1  0.3269032E-002  0.1249993E+03  0.7818608E-02  0.1235070E+00
          4   -1    0    0  501    0  0.00000000000E+00  0.00000000000E+00  0.74317539783E+02  0.74328390400E+02  0.12700000000E+01 0.  1.
         -4   -1    0    0    0  501 -0.00000000000E+00 -0.00000000000E+00 -0.52538650423E+02  0.52553997833E+02  0.12700000000E+01 0.  1.
         25    2    1    2    0    0  0.00000000000E+00  0.00000000000E+00  0.21778889361E+02  0.12688238823E+03  0.12499928169E+03 0.  0.
    9000005    1    3    3    0    0 -0.21074267699E+01  0.62453375660E+02  0.10297803264E+02  0.63339641071E+02  0.10000000000E+01 0.  0.
    9000005    1    3    3    0    0  0.21074267699E+01 -0.62453375660E+02  0.11481086097E+02  0.63542747162E+02  0.10000000000E+01 0.  0.
<mgrwt>
<rscale>  0 0.12499928E+03</rscale>
<asrwt>0</asrwt>
<pdfrwt beam="1">  1        4 0.11435483E-01 0.12499928E+03</pdfrwt>
<pdfrwt beam="2">  1       -4 0.80848846E-02 0.12499928E+03</pdfrwt>
<totfact> 0.10411871E+04</totfact>
</mgrwt>
</event>
<event>
 5    1  0.3269032E-002  0.1249810E+03  0.7818608E-02  0.1235099E+00
          4   -1    0    0  501    0  0.00000000000E+00  0.00000000000E+00  0.18759352148E+02  0.18802292227E+02  0.12700000000E+01 0. -1.
         -4   -1    0    0    0  501 -0.00000000000E+00 -0.00000000000E+00 -0.20788340405E+03  0.20788728336E+03  0.12700000000E+01 0. -1.
         25    2    1    2    0    0  0.00000000000E+00  0.00000000000E+00 -0.18912405191E+03  0.22668957558E+03  0.12498102523E+03 0.  0.
    9000005    1    3    3    0    0  0.25224372447E+02 -0.11777776291E+02  0.68981809055E+01  0.28697907232E+02  0.10000000000E+01 0.  0.
    9000005    1    3    3    0    0 -0.25224372447E+02  0.11777776291E+02 -0.19602223281E+03  0.19799166835E+03  0.10000000000E+01 0.  0.
<mgrwt>
<rscale>  0 0.12498103E+03</rscale>
<asrwt>0</asrwt>
<pdfrwt beam="1">  1        4 0.28896558E-02 0.12498103E+03</pdfrwt>
<pdfrwt beam="2">  1       -4 0.31985662E-01 0.12498103E+03</pdfrwt>
<totfact> 0.85856875E+03</totfact>
</mgrwt>
</event>
<event>
 5    1  0.3269032E-002  0.1250185E+03  0.7818608E-02  0.1235040E+00
          4   -1    0    0  501    0  0.00000000000E+00  0.00000000000E+00  0.33370882389E+02  0.33395039922E+02  0.12700000000E+01 0. -1.
         -4   -1    0    0    0  501 -0.00000000000E+00 -0.00000000000E+00 -0.11702037030E+03  0.11702726163E+03  0.12700000000E+01 0. -1.
         25    2    1    2    0    0  0.00000000000E+00  0.00000000000E+00 -0.83649487911E+02  0.15042230156E+03  0.12501852654E+03 0.  0.
    9000005    1    3    3    0    0  0.36426244590E+02  0.39596763438E+02 -0.35555466907E+01  0.53929740236E+02  0.10000000000E+01 0.  0.
    9000005    1    3    3    0    0 -0.36426244590E+02 -0.39596763438E+02 -0.80093941221E+02  0.96492561319E+02  0.10000000000E+01 0.  0.
<mgrwt>
<rscale>  0 0.12501853E+03</rscale>
<asrwt>0</asrwt>
<pdfrwt beam="1">  1        4 0.51363703E-02 0.12501853E+03</pdfrwt>
<pdfrwt beam="2">  1       -4 0.18005522E-01 0.12501853E+03</pdfrwt>
<totfact> 0.99178229E+03</totfact>
</mgrwt>
</event>
<event>
 5    1  0.3269032E-002  0.1250038E+03  0.7818608E-02  0.1235063E+00
         -4   -1    0    0    0  501 -0.00000000000E+00  0.00000000000E+00  0.31017588358E+03  0.31017848354E+03  0.12700000000E+01 0. -1.
          4   -1    0    0  501    0  0.00000000000E+00 -0.00000000000E+00 -0.12559751812E+02  0.12623797589E+02  0.12700000000E+01 0. -1.
         25    2    1    2    0    0  0.00000000000E+00  0.00000000000E+00  0.29761613176E+03  0.32280228113E+03  0.12500380321E+03 0.  0.
    9000005    1    3    3    0    0 -0.45903259921E+02 -0.21357650146E+02  0.54200316331E+02  0.74175014537E+02  0.10000000000E+01 0.  0.
    9000005    1    3    3    0    0  0.45903259921E+02  0.21357650146E+02  0.24341581543E+03  0.24862726659E+03  0.10000000000E+01 0.  0.
<mgrwt>
<rscale>  0 0.12500380E+03</rscale>
<asrwt>0</asrwt>
<pdfrwt beam="2">  1        4 0.19373962E-02 0.12500380E+03</pdfrwt>
<pdfrwt beam="1">  1       -4 0.47724491E-01 0.12500380E+03</pdfrwt>
<totfact> 0.72817927E+03</totfact>
</mgrwt>
</event>
<event>
 5    1  0.3269032E-002  0.1250106E+03  0.7818608E-02  0.1235053E+00
         -4   -1    0    0    0  501 -0.00000000000E+00  0.00000000000E+00  0.48865880100E+02  0.48882380649E+02  0.12700000000E+01 0. -1.
          4   -1    0    0  501    0  0.00000000000E+00 -0.00000000000E+00 -0.79916687058E+02  0.79926777555E+02  0.12700000000E+01 0. -1.
         25    2    1    2    0    0  0.00000000000E+00  0.00000000000E+00 -0.31050806958E+02  0.12880915820E+03  0.12501058605E+03 0.  0.
    9000005    1    3    3    0    0 -0.29667312145E+02  0.44183583210E+02 -0.49286441098E+02  0.72543033513E+02  0.10000000000E+01 0.  0.
    9000005    1    3    3    0    0  0.29667312145E+02 -0.44183583210E+02  0.18235634140E+02  0.56266124691E+02  0.10000000000E+01 0.  0.
<mgrwt>
<rscale>  0 0.12501059E+03</rscale>
<asrwt>0</asrwt>
<pdfrwt beam="2">  1        4 0.12296920E-01 0.12501059E+03</pdfrwt>
<pdfrwt beam="1">  1       -4 0.75198732E-02 0.12501059E+03</pdfrwt>
<totfact> 0.10367572E+04</totfact>
</mgrwt>
</event>
<event>
 5    1  0.3269032E-002  0.1250010E+03  0.7818608E-02  0.1235068E+00
         -4   -1    0    0    0  501 -0.00000000000E+00  0.00000000000E+00  0.39254025183E+01  0.41257344716E+01  0.12700000000E+01 0.  1.
          4   -1    0    0  501    0  0.00000000000E+00 -0.00000000000E+00 -0.97017496796E+03  0.97017579920E+03  0.12700000000E+01 0.  1.
         25    2    1    2    0    0  0.00000000000E+00  0.00000000000E+00 -0.96624956544E+03  0.97430153367E+03  0.12500102320E+03 0.  0.
    9000005    1    3    3    0    0  0.48426092216E+02 -0.27019076439E+02 -0.25854512712E+03  0.26442711596E+03  0.10000000000E+01 0.  0.
    9000005    1    3    3    0    0 -0.48426092216E+02  0.27019076439E+02 -0.70770443832E+03  0.70987441771E+03  0.10000000000E+01 0.  0.
<mgrwt>
<rscale>  0 0.12500102E+03</rscale>
<asrwt>0</asrwt>
<pdfrwt beam="2">  1        4 0.14927298E+00 0.12500102E+03</pdfrwt>
<pdfrwt beam="1">  1       -4 0.61938294E-03 0.12500102E+03</pdfrwt>
<totfact> 0.31467918E+03</totfact>
</mgrwt>
</event>
<event>
 5    1  0.3269032E-002  0.1249996E+03  0.7818608E-02  0.1235070E+00
          4   -1    0    0  501    0  0.00000000000E+00  0.00000000000E+00  0.14750780210E+03  0.14751326917E+03  0.12700000000E+01 0.  1.
         -4   -1    0    0    0  501 -0.00000000000E+00 -0.00000000000E+00 -0.26460310277E+02  0.26490770467E+02  0.12700000000E+01 0.  1.
         25    2    1    2    0    0  0.00000000000E+00  0.00000000000E+00  0.12104749183E+03  0.17400403964E+03  0.12499964213E+03 0.  0.
    9000005    1    3    3    0    0  0.15854943316E+02  0.98748165433E+01  0.14353786791E+03  0.14475154836E+03  0.10000000000E+01 0.  0.
    9000005    1    3    3    0    0 -0.15854943316E+02 -0.98748165433E+01 -0.22490376084E+02  0.29252491274E+02  0.10000000000E+01 0.  0.
<mgrwt>
<rscale>  0 0.12499964E+03</rscale>
<asrwt>0</asrwt>
<pdfrwt beam="1">  1        4 0.22696272E-01 0.12499964E+03</pdfrwt>
<pdfrwt beam="2">  1       -4 0.40735806E-02 0.12499964E+03</pdfrwt>
<totfact> 0.94708326E+03</totfact>
</mgrwt>
</event>
<event>
 5    1  0.3269032E-002  0.1250020E+03  0.7818608E-02  0.1235066E+00
          4   -1    0    0  501    0  0.00000000000E+00  0.00000000000E+00  0.29158593176E+02  0.29186237442E+02  0.12700000000E+01 0. -1.
         -4   -1    0    0    0  501 -0.00000000000E+00 -0.00000000000E+00 -0.13387570360E+03  0.13388172733E+03  0.12700000000E+01 0. -1.
         25    2    1    2    0    0  0.00000000000E+00  0.00000000000E+00 -0.10471711042E+03  0.16306796477E+03  0.12500195167E+03 0.  0.
    9000005    1    3    3    0    0  0.29548985218E+02  0.17979862346E+02 -0.12025588149E+03  0.12513550659E+03  0.10000000000E+01 0.  0.
    9000005    1    3    3    0    0 -0.29548985218E+02 -0.17979862346E+02  0.15538771069E+02  0.37932458182E+02  0.10000000000E+01 0.  0.
<mgrwt>
<rscale>  0 0.12500195E+03</rscale>
<asrwt>0</asrwt>
<pdfrwt beam="1">  1        4 0.44885273E-02 0.12500195E+03</pdfrwt>
<pdfrwt beam="2">  1       -4 0.20598852E-01 0.12500195E+03</pdfrwt>
<totfact> 0.96750302E+03</totfact>
</mgrwt>
</event>
<event>
 5    1  0.3269032E-002  0.1249980E+03  0.7818608E-02  0.1235072E+00
          4   -1    0    0  501    0  0.00000000000E+00  0.00000000000E+00  0.13341009024E+04  0.13341015069E+04  0.12700000000E+01 0.  1.
         -4   -1    0    0    0  501 -0.00000000000E+00 -0.00000000000E+00 -0.27895565586E+01  0.30650490687E+01  0.12700000000E+01 0.  1.
         25    2    1    2    0    0  0.00000000000E+00  0.00000000000E+00  0.13313113459E+04  0.13371665560E+04  0.12499799521E+03 0.  0.
    9000005    1    3    3    0    0  0.13633672830E+02 -0.33825045059E+02  0.12085067298E+04  0.12090572884E+04  0.10000000000E+01 0.  0.
    9000005    1    3    3    0    0 -0.13633672830E+02  0.33825045059E+02  0.12280461603E+03  0.12810926753E+03  0.10000000000E+01 0.  0.
<mgrwt>
<rscale>  0 0.12499800E+03</rscale>
<asrwt>0</asrwt>
<pdfrwt beam="1">  1        4 0.20526731E+00 0.12499800E+03</pdfrwt>
<pdfrwt beam="2">  1       -4 0.45040126E-03 0.12499800E+03</pdfrwt>
<totfact> 0.21368911E+03</totfact>
</mgrwt>
</event>
<event>
 5    1  0.3269032E-002  0.1249979E+03  0.7818608E-02  0.1235073E+00
         -4   -1    0    0    0  501 -0.00000000000E+00  0.00000000000E+00  0.23085042655E+03  0.23085391991E+03  0.12700000000E+01 0. -1.
          4   -1    0    0  501    0  0.00000000000E+00 -0.00000000000E+00 -0.16893112139E+02  0.16940783268E+02  0.12700000000E+01 0. -1.
         25    2    1    2    0    0  0.00000000000E+00  0.00000000000E+00  0.21395731441E+03  0.24779470318E+03  0.12499793012E+03 0.  0.
    9000005    1    3    3    0    0  0.59952681820E+02  0.75193394023E+01  0.75368627996E+02  0.96603802247E+02  0.10000000000E+01 0.  0.
    9000005    1    3    3    0    0 -0.59952681820E+02 -0.75193394023E+01  0.13858868641E+03  0.15119090093E+03  0.10000000000E+01 0.  0.
<mgrwt>
<rscale>  0 0.12499793E+03</rscale>
<asrwt>0</asrwt>
<pdfrwt beam="2">  1        4 0.26028760E-02 0.12499793E+03</pdfrwt>
<pdfrwt beam="1">  1       -4 0.35519387E-01 0.12499793E+03</pdfrwt>
<totfact> 0.82653820E+03</totfact>
</mgrwt>
</event>
<event>
 5    1  0.3269032E-002  0.1249983E+03  0.7818608E-02  0.1235072E+00
         -4   -1    0    0    0  501 -0.00000000000E+00  0.00000000000E+00  0.27768942756E+03  0.27769233169E+03  0.12700000000E+01 0.  1.
          4   -1    0    0  501    0  0.00000000000E+00 -0.00000000000E+00 -0.14034932221E+02  0.14092275276E+02  0.12700000000E+01 0.  1.
         25    2    1    2    0    0  0.00000000000E+00  0.00000000000E+00  0.26365449534E+03  0.29178460697E+03  0.12499825578E+03 0.  0.
    9000005    1    3    3    0    0  0.78940594937E+01  0.46045751622E+00 -0.12873820194E+02  0.15141447844E+02  0.10000000000E+01 0.  0.
    9000005    1    3    3    0    0 -0.78940594937E+01 -0.46045751622E+00  0.27652831554E+03  0.27664315912E+03  0.10000000000E+01 0.  0.
<mgrwt>
<rscale>  0 0.12499826E+03</rscale>
<asrwt>0</asrwt>
<pdfrwt beam="2">  1        4 0.21638550E-02 0.12499826E+03</pdfrwt>
<pdfrwt beam="1">  1       -4 0.42726080E-01 0.12499826E+03</pdfrwt>
<totfact> 0.76644027E+03</totfact>
</mgrwt>
</event>
<event>
 5    1  0.3269032E-002  0.1250003E+03  0.7818608E-02  0.1235069E+00
         -4   -1    0    0    0  501 -0.00000000000E+00  0.00000000000E+00  0.21338573114E+02  0.21376332767E+02  0.12700000000E+01 0. -1.
          4   -1    0    0  501    0  0.00000000000E+00 -0.00000000000E+00 -0.18285959893E+03  0.18286400909E+03  0.12700000000E+01 0. -1.
         25    2    1    2    0    0  0.00000000000E+00  0.00000000000E+00 -0.16152102581E+03  0.20424034185E+03  0.12500030184E+03 0.  0.
    9000005    1    3    3    0    0  0.22053182613E+02  0.26885444003E+02  0.40790411020E+01  0.35025826742E+02  0.10000000000E+01 0.  0.
    9000005    1    3    3    0    0 -0.22053182613E+02 -0.26885444003E+02 -0.16560006692E+03  0.16921451511E+03  0.10000000000E+01 0.  0.
<mgrwt>
<rscale>  0 0.12500030E+03</rscale>
<asrwt>0</asrwt>
<pdfrwt beam="2">  1        4 0.28135489E-01 0.12500030E+03</pdfrwt>
<pdfrwt beam="1">  1       -4 0.32861014E-02 0.12500030E+03</pdfrwt>
<totfact> 0.89424630E+03</totfact>
</mgrwt>
</event>
<event>
 5    1  0.3269032E-002  0.1249867E+03  0.7818608E-02  0.1235090E+00
         -4   -1    0    0    0  501 -0.00000000000E+00  0.00000000000E+00  0.23228152720E+02  0.23262845458E+02  0.12700000000E+01 0. -1.
          4   -1    0    0  501    0  0.00000000000E+00 -0.00000000000E+00 -0.16797039109E+03  0.16797519216E+03  0.12700000000E+01 0. -1.
         25    2    1    2    0    0  0.00000000000E+00  0.00000000000E+00 -0.14474223837E+03  0.19123803762E+03  0.12498668515E+03 0.  0.
    9000005    1    3    3    0    0 -0.78459692396E+01  0.51620517876E+02 -0.12489012460E+03  0.13536905231E+03  0.10000000000E+01 0.  0.
    9000005    1    3    3    0    0  0.78459692396E+01 -0.51620517876E+02 -0.19852113765E+02  0.55868985314E+02  0.10000000000E+01 0.  0.
<mgrwt>
<rscale>  0 0.12498669E+03</rscale>
<asrwt>0</asrwt>
<pdfrwt beam="2">  1        4 0.25844636E-01 0.12498669E+03</pdfrwt>
<pdfrwt beam="1">  1       -4 0.35766000E-02 0.12498669E+03</pdfrwt>
<totfact> 0.91659677E+03</totfact>
</mgrwt>
</event>
<event>
 5    1  0.3269032E-002  0.1249934E+03  0.7818608E-02  0.1235080E+00
          4   -1    0    0  501    0  0.00000000000E+00  0.00000000000E+00  0.93734903487E+02  0.93743506611E+02  0.12700000000E+01 0. -1.
         -4   -1    0    0    0  501 -0.00000000000E+00 -0.00000000000E+00 -0.41648752158E+02  0.41668110784E+02  0.12700000000E+01 0. -1.
         25    2    1    2    0    0  0.00000000000E+00  0.00000000000E+00  0.52086151329E+02  0.13541161739E+03  0.12499335568E+03 0.  0.
    9000005    1    3    3    0    0  0.15574667003E+02  0.35834218127E+02 -0.26788157420E+02  0.47384246528E+02  0.10000000000E+01 0.  0.
    9000005    1    3    3    0    0 -0.15574667003E+02 -0.35834218127E+02  0.78874308749E+02  0.88027370867E+02  0.10000000000E+01 0.  0.
<mgrwt>
<rscale>  0 0.12499336E+03</rscale>
<asrwt>0</asrwt>
<pdfrwt beam="1">  1        4 0.14422905E-01 0.12499336E+03</pdfrwt>
<pdfrwt beam="2">  1       -4 0.64096513E-02 0.12499336E+03</pdfrwt>
<totfact> 0.10230935E+04</totfact>
</mgrwt>
</event>
<event>
 5    1  0.3269032E-002  0.1250019E+03  0.7818608E-02  0.1235066E+00
         -4   -1    0    0    0  501 -0.00000000000E+00  0.00000000000E+00  0.22148036049E+01  0.25530873484E+01  0.12700000000E+01 0. -1.
          4   -1    0    0  501    0  0.00000000000E+00 -0.00000000000E+00 -0.16382765462E+04  0.16382770384E+04  0.12700000000E+01 0. -1.
         25    2    1    2    0    0  0.00000000000E+00  0.00000000000E+00 -0.16360617426E+04  0.16408301258E+04  0.12500190463E+03 0.  0.
    9000005    1    3    3    0    0 -0.48147754719E+02 -0.38751054245E+02 -0.93941926280E+03  0.94145069006E+03  0.10000000000E+01 0.  0.
    9000005    1    3    3    0    0  0.48147754719E+02  0.38751054245E+02 -0.69664247978E+03  0.69937943573E+03  0.10000000000E+01 0.  0.
<mgrwt>
<rscale>  0 0.12500190E+03</rscale>
<asrwt>0</asrwt>
<pdfrwt beam="2">  1        4 0.25206770E+00 0.12500190E+03</pdfrwt>
<pdfrwt beam="1">  1       -4 0.36680002E-03 0.12500190E+03</pdfrwt>
<totfact> 0.15318852E+03</totfact>
</mgrwt>
</event>
<event>
 5    1  0.3269032E-002  0.1249998E+03  0.7818608E-02  0.1235070E+00
         -4   -1    0    0    0  501 -0.00000000000E+00  0.00000000000E+00  0.52835308381E+02  0.52850569645E+02  0.12700000000E+01 0.  1.
          4   -1    0    0  501    0  0.00000000000E+00 -0.00000000000E+00 -0.73900994855E+02  0.73911906622E+02  0.12700000000E+01 0.  1.
         25    2    1    2    0    0  0.00000000000E+00  0.00000000000E+00 -0.21065686473E+02  0.12676247627E+03  0.12499984897E+03 0.  0.
    9000005    1    3    3    0    0  0.55641271460E+02  0.27352405355E+02 -0.26036759969E+01  0.62063550471E+02  0.10000000000E+01 0.  0.
    9000005    1    3    3    0    0 -0.55641271460E+02 -0.27352405355E+02 -0.18462010476E+02  0.64698925796E+02  0.10000000000E+01 0.  0.
<mgrwt>
<rscale>  0 0.12499985E+03</rscale>
<asrwt>0</asrwt>
<pdfrwt beam="2">  1        4 0.11371397E-01 0.12499985E+03</pdfrwt>
<pdfrwt beam="1">  1       -4 0.81305222E-02 0.12499985E+03</pdfrwt>
<totfact> 0.10414346E+04</totfact>
</mgrwt>
</event>
<event>
 5    1  0.3269032E-002  0.1250010E+03  0.7818608E-02  0.1235068E+00
          4   -1    0    0  501    0  0.00000000000E+00  0.00000000000E+00  0.76124941786E+01  0.77177048155E+01  0.12700000000E+01 0. -1.
         -4   -1    0    0    0  501 -0.00000000000E+00 -0.00000000000E+00 -0.50951756498E+03  0.50951914775E+03  0.12700000000E+01 0. -1.
         25    2    1    2    0    0  0.00000000000E+00  0.00000000000E+00 -0.50190507080E+03  0.51723685257E+03  0.12500104622E+03 0.  0.
    9000005    1    3    3    0    0 -0.22527651461E+02  0.99934844608E+00 -0.97886998900E+01  0.24603097838E+02  0.10000000000E+01 0.  0.
    9000005    1    3    3    0    0  0.22527651461E+02 -0.99934844608E+00 -0.49211637091E+03  0.49263375473E+03  0.10000000000E+01 0.  0.
<mgrwt>
<rscale>  0 0.12500105E+03</rscale>
<asrwt>0</asrwt>
<pdfrwt beam="1">  1        4 0.11793682E-02 0.12500105E+03</pdfrwt>
<pdfrwt beam="2">  1       -4 0.78395506E-01 0.12500105E+03</pdfrwt>
<totfact> 0.54550125E+03</totfact>
</mgrwt>
</event>
<event>
 5    1  0.3269032E-002  0.1250064E+03  0.7818608E-02  0.1235059E+00
         -4   -1    0    0    0  501 -0.00000000000E+00  0.00000000000E+00  0.32554503569E+02  0.32579266453E+02  0.12700000000E+01 0. -1.
          4   -1    0    0  501    0  0.00000000000E+00 -0.00000000000E+00 -0.11992969286E+03  0.11993641703E+03  0.12700000000E+01 0. -1.
         25    2    1    2    0    0  0.00000000000E+00  0.00000000000E+00 -0.87375189294E+02  0.15251568348E+03  0.12500643985E+03 0.  0.
    9000005    1    3    3    0    0  0.46098712162E+02 -0.37126087866E+02 -0.68156309645E+02  0.90275800787E+02  0.10000000000E+01 0.  0.
    9000005    1    3    3    0    0 -0.46098712162E+02  0.37126087866E+02 -0.19218879648E+02  0.62239882697E+02  0.10000000000E+01 0.  0.
<mgrwt>
<rscale>  0 0.12500644E+03</rscale>
<asrwt>0</asrwt>
<pdfrwt beam="2">  1        4 0.18453144E-01 0.12500644E+03</pdfrwt>
<pdfrwt beam="1">  1       -4 0.50108073E-02 0.12500644E+03</pdfrwt>
<totfact> 0.98790263E+03</totfact>
</mgrwt>
</event>
<event>
 5    1  0.3269032E-002  0.1250024E+03  0.7818608E-02  0.1235066E+00
         -4   -1    0    0    0  501 -0.00000000000E+00  0.00000000000E+00  0.10709302884E+04  0.10709310414E+04  0.12700000000E+01 0. -1.
          4   -1    0    0  501    0  0.00000000000E+00 -0.00000000000E+00 -0.35363501117E+01  0.37574821507E+01  0.12700000000E+01 0. -1.
         25    2    1    2    0    0  0.00000000000E+00  0.00000000000E+00  0.10673939382E+04  0.10746885235E+04  0.12500241292E+03 0.  0.
    9000005    1    3    3    0    0 -0.29300854395E+02 -0.22532862005E+02  0.10047870516E+03  0.10706652198E+03  0.10000000000E+01 0.  0.
    9000005    1    3    3    0    0  0.29300854395E+02  0.22532862005E+02  0.96691523308E+03  0.96762200156E+03  0.10000000000E+01 0.  0.
<mgrwt>
<rscale>  0 0.12500241E+03</rscale>
<asrwt>0</asrwt>
<pdfrwt beam="2">  1        4 0.56112181E-03 0.12500241E+03</pdfrwt>
<pdfrwt beam="1">  1       -4 0.16477561E+00 0.12500241E+03</pdfrwt>
<totfact> 0.28234754E+03</totfact>
</mgrwt>
</event>
<event>
 5    1  0.3269032E-002  0.1249931E+03  0.7818608E-02  0.1235080E+00
         -4   -1    0    0    0  501 -0.00000000000E+00  0.00000000000E+00  0.21633100169E+03  0.21633472951E+03  0.12700000000E+01 0.  1.
          4   -1    0    0  501    0  0.00000000000E+00 -0.00000000000E+00 -0.18028601223E+02  0.18073277569E+02  0.12700000000E+01 0.  1.
         25    2    1    2    0    0  0.00000000000E+00  0.00000000000E+00  0.19830240046E+03  0.23440800708E+03  0.12499308681E+03 0.  0.
    9000005    1    3    3    0    0  0.13859615870E+02  0.60480521404E+02  0.85263912989E+02  0.10545575982E+03  0.10000000000E+01 0.  0.
    9000005    1    3    3    0    0 -0.13859615870E+02 -0.60480521404E+02  0.11303848748E+03  0.12895224725E+03  0.10000000000E+01 0.  0.
<mgrwt>
<rscale>  0 0.12499309E+03</rscale>
<asrwt>0</asrwt>
<pdfrwt beam="2">  1        4 0.27773543E-02 0.12499309E+03</pdfrwt>
<pdfrwt beam="1">  1       -4 0.33285417E-01 0.12499309E+03</pdfrwt>
<totfact> 0.84650357E+03</totfact>
</mgrwt>
</event>
<event>
 5    1  0.3269032E-002  0.1249940E+03  0.7818608E-02  0.1235079E+00
          4   -1    0    0  501    0  0.00000000000E+00  0.00000000000E+00  0.83481120867E+02  0.83490780576E+02  0.12700000000E+01 0.  1.
         -4   -1    0    0    0  501 -0.00000000000E+00 -0.00000000000E+00 -0.46766554728E+02  0.46783795711E+02  0.12700000000E+01 0.  1.
         25    2    1    2    0    0  0.00000000000E+00  0.00000000000E+00  0.36714566138E+02  0.13027457629E+03  0.12499402330E+03 0.  0.
    9000005    1    3    3    0    0  0.38311084779E+02  0.94219738546E+00 -0.33086311229E+02  0.50639223371E+02  0.10000000000E+01 0.  0.
    9000005    1    3    3    0    0 -0.38311084779E+02 -0.94219738546E+00  0.69800877367E+02  0.79635352916E+02  0.10000000000E+01 0.  0.
<mgrwt>
<rscale>  0 0.12499402E+03</rscale>
<asrwt>0</asrwt>
<pdfrwt beam="1">  1        4 0.12845319E-01 0.12499402E+03</pdfrwt>
<pdfrwt beam="2">  1       -4 0.71969239E-02 0.12499402E+03</pdfrwt>
<totfact> 0.10340032E+04</totfact>
</mgrwt>
</event>
<event>
 5    1  0.3269032E-002  0.1249946E+03  0.7818608E-02  0.1235078E+00
          4   -1    0    0  501    0  0.00000000000E+00  0.00000000000E+00  0.19411772559E+03  0.19412187998E+03  0.12700000000E+01 0.  1.
         -4   -1    0    0    0  501 -0.00000000000E+00 -0.00000000000E+00 -0.20096945736E+02  0.20137033742E+02  0.12700000000E+01 0.  1.
         25    2    1    2    0    0  0.00000000000E+00  0.00000000000E+00  0.17402077985E+03  0.21425891372E+03  0.12499460104E+03 0.  0.
    9000005    1    3    3    0    0  0.53378830305E+02 -0.86296169291E+01  0.33317875114E+02  0.63520473985E+02  0.10000000000E+01 0.  0.
    9000005    1    3    3    0    0 -0.53378830305E+02  0.86296169291E+01  0.14070290474E+03  0.15073843974E+03  0.10000000000E+01 0.  0.
<mgrwt>
<rscale>  0 0.12499460E+03</rscale>
<asrwt>0</asrwt>
<pdfrwt beam="1">  1        4 0.29867667E-01 0.12499460E+03</pdfrwt>
<pdfrwt beam="2">  1       -4 0.30952412E-02 0.12499460E+03</pdfrwt>
<totfact> 0.87795627E+03</totfact>
</mgrwt>
</event>
<event>
 5    1  0.3269032E-002  0.1249951E+03  0.7818608E-02  0.1235077E+00
         -4   -1    0    0    0  501 -0.00000000000E+00  0.00000000000E+00  0.13444541957E+02  0.13504392190E+02  0.12700000000E+01 0. -1.
          4   -1    0    0  501    0  0.00000000000E+00 -0.00000000000E+00 -0.28981596209E+03  0.28981874471E+03  0.12700000000E+01 0. -1.
         25    2    1    2    0    0  0.00000000000E+00  0.00000000000E+00 -0.27637142014E+03  0.30332313690E+03  0.12499505394E+03 0.  0.
    9000005    1    3    3    0    0  0.32986952385E+02 -0.19708720785E+02 -0.18602563515E+02  0.42703958505E+02  0.10000000000E+01 0.  0.
    9000005    1    3    3    0    0 -0.32986952385E+02  0.19708720785E+02 -0.25776885662E+03  0.26061917839E+03  0.10000000000E+01 0.  0.
<mgrwt>
<rscale>  0 0.12499505E+03</rscale>
<asrwt>0</asrwt>
<pdfrwt beam="2">  1        4 0.44591884E-01 0.12499505E+03</pdfrwt>
<pdfrwt beam="1">  1       -4 0.20732092E-02 0.12499505E+03</pdfrwt>
<totfact> 0.75192128E+03</totfact>
</mgrwt>
</event>
<event>
 5    1  0.3269032E-002  0.1250014E+03  0.7818608E-02  0.1235067E+00
          4   -1    0    0  501    0  0.00000000000E+00  0.00000000000E+00  0.16505375327E+03  0.16505863919E+03  0.12700000000E+01 0.  1.
         -4   -1    0    0    0  501 -0.00000000000E+00 -0.00000000000E+00 -0.23644803133E+02  0.23678885429E+02  0.12700000000E+01 0.  1.
         25    2    1    2    0    0  0.00000000000E+00  0.00000000000E+00  0.14140895014E+03  0.18873752462E+03  0.12500144806E+03 0.  0.
    9000005    1    3    3    0    0  0.26627257313E+02  0.41974900291E+02  0.13519226471E+02  0.51523514736E+02  0.10000000000E+01 0.  0.
    9000005    1    3    3    0    0 -0.26627257313E+02 -0.41974900291E+02  0.12788972367E+03  0.13721400988E+03  0.10000000000E+01 0.  0.
<mgrwt>
<rscale>  0 0.12500145E+03</rscale>
<asrwt>0</asrwt>
<pdfrwt beam="1">  1        4 0.25395883E-01 0.12500145E+03</pdfrwt>
<pdfrwt beam="2">  1       -4 0.36406596E-02 0.12500145E+03</pdfrwt>
<totfact> 0.92064459E+03</totfact>
</mgrwt>
</event>
<event>
 5    1  0.3269032E-002  0.1250015E+03  0.7818608E-02  0.1235067E+00
         -4   -1    0    0    0  501 -0.00000000000E+00  0.00000000000E+00  0.77465922489E+02  0.77476332173E+02  0.12700000000E+01 0.  1.
          4   -1    0    0  501    0  0.00000000000E+00 -0.00000000000E+00 -0.50404804443E+02  0.50420801372E+02  0.12700000000E+01 0.  1.
         25    2    1    2    0    0  0.00000000000E+00  0.00000000000E+00  0.27061118046E+02  0.12789713355E+03  0.12500149063E+03 0.  0.
    9000005    1    3    3    0    0  0.30689462551E+02  0.52180674557E+02 -0.23425918718E+01  0.60590045763E+02  0.10000000000E+01 0.  0.
    9000005    1    3    3    0    0 -0.30689462551E+02 -0.52180674557E+02  0.29403709917E+02  0.67307087782E+02  0.10000000000E+01 0.  0.
<mgrwt>
<rscale>  0 0.12500149E+03</rscale>
<asrwt>0</asrwt>
<pdfrwt beam="2">  1        4 0.77566167E-02 0.12500149E+03</pdfrwt>
<pdfrwt beam="1">  1       -4 0.11919865E-01 0.12500149E+03</pdfrwt>
<totfact> 0.10389360E+04</totfact>
</mgrwt>
</event>
<event>
 5    1  0.3269032E-002  0.1249971E+03  0.7818608E-02  0.1235074E+00
          4   -1    0    0  501    0  0.00000000000E+00  0.00000000000E+00  0.24371857592E+01  0.27482311447E+01  0.12700000000E+01 0. -1.
         -4   -1    0    0    0  501 -0.00000000000E+00 -0.00000000000E+00 -0.15062487720E+04  0.15062493074E+04  0.12700000000E+01 0. -1.
         25    2    1    2    0    0  0.00000000000E+00  0.00000000000E+00 -0.15038115862E+04  0.15089975385E+04  0.12499713769E+03 0.  0.
    9000005    1    3    3    0    0  0.10105450137E+02 -0.52821277897E+02 -0.36769997058E+03  0.37161334191E+03  0.10000000000E+01 0.  0.
    9000005    1    3    3    0    0 -0.10105450137E+02  0.52821277897E+02 -0.11361116156E+04  0.11373841966E+04  0.10000000000E+01 0.  0.
<mgrwt>
<rscale>  0 0.12499714E+03</rscale>
<asrwt>0</asrwt>
<pdfrwt beam="1">  1        4 0.39892061E-03 0.12499714E+03</pdfrwt>
<pdfrwt beam="2">  1       -4 0.23175385E+00 0.12499714E+03</pdfrwt>
<totfact> 0.17755420E+03</totfact>
</mgrwt>
</event>
<event>
 5    1  0.3269032E-002  0.1250004E+03  0.7818608E-02  0.1235069E+00
          4   -1    0    0  501    0  0.00000000000E+00  0.00000000000E+00  0.16280927268E+02  0.16330385565E+02  0.12700000000E+01 0. -1.
         -4   -1    0    0    0  501 -0.00000000000E+00 -0.00000000000E+00 -0.23951442116E+03  0.23951778816E+03  0.12700000000E+01 0. -1.
         25    2    1    2    0    0  0.00000000000E+00  0.00000000000E+00 -0.22323349390E+03  0.25584817373E+03  0.12500038081E+03 0.  0.
    9000005    1    3    3    0    0 -0.78863028240E+01 -0.61898607778E+02 -0.11860054915E+03  0.13401761704E+03  0.10000000000E+01 0.  0.
    9000005    1    3    3    0    0  0.78863028240E+01  0.61898607778E+02 -0.10463294474E+03  0.12183055669E+03  0.10000000000E+01 0.  0.
<mgrwt>
<rscale>  0 0.12500038E+03</rscale>
<asrwt>0</asrwt>
<pdfrwt beam="1">  1        4 0.25088217E-02 0.12500038E+03</pdfrwt>
<pdfrwt beam="2">  1       -4 0.36852434E-01 0.12500038E+03</pdfrwt>
<totfact> 0.81491574E+03</totfact>
</mgrwt>
</event>
<event>
 5    1  0.3269032E-002  0.1249997E+03  0.7818608E-02  0.1235070E+00
          4   -1    0    0  501    0  0.00000000000E+00  0.00000000000E+00  0.71276381223E+02  0.71287694732E+02  0.12700000000E+01 0.  1.
         -4   -1    0    0    0  501 -0.00000000000E+00 -0.00000000000E+00 -0.54781003630E+02  0.54795722997E+02  0.12700000000E+01 0.  1.
         25    2    1    2    0    0  0.00000000000E+00  0.00000000000E+00  0.16495377593E+02  0.12608341773E+03  0.12499972298E+03 0.  0.
    9000005    1    3    3    0    0 -0.32657549377E+02  0.47546333128E+02 -0.16003701657E+02  0.59868921754E+02  0.10000000000E+01 0.  0.
    9000005    1    3    3    0    0  0.32657549377E+02 -0.47546333128E+02  0.32499079249E+02  0.66214495975E+02  0.10000000000E+01 0.  0.
<mgrwt>
<rscale>  0 0.12499972E+03</rscale>
<asrwt>0</asrwt>
<pdfrwt beam="1">  1        4 0.10967600E-01 0.12499972E+03</pdfrwt>
<pdfrwt beam="2">  1       -4 0.84298493E-02 0.12499972E+03</pdfrwt>
<totfact> 0.10429195E+04</totfact>
</mgrwt>
</event>
<event>
 5    1  0.3269032E-002  0.1250015E+03  0.7818608E-02  0.1235067E+00
         -4   -1    0    0    0  501 -0.00000000000E+00  0.00000000000E+00  0.50827805028E+03  0.50827963691E+03  0.12700000000E+01 0.  1.
          4   -1    0    0  501    0  0.00000000000E+00 -0.00000000000E+00 -0.76313749724E+01  0.77363288432E+01  0.12700000000E+01 0.  1.
         25    2    1    2    0    0  0.00000000000E+00  0.00000000000E+00  0.50064667531E+03  0.51601596575E+03  0.12500153365E+03 0.  0.
    9000005    1    3    3    0    0  0.39202360211E+02  0.17140564462E+02  0.43835359430E+03  0.44043784764E+03  0.10000000000E+01 0.  0.
    9000005    1    3    3    0    0 -0.39202360211E+02 -0.17140564462E+02  0.62293081004E+02  0.75578118111E+02  0.10000000000E+01 0.  0.
<mgrwt>
<rscale>  0 0.12500153E+03</rscale>
<asrwt>0</asrwt>
<pdfrwt beam="2">  1        4 0.11822527E-02 0.12500153E+03</pdfrwt>
<pdfrwt beam="1">  1       -4 0.78204843E-01 0.12500153E+03</pdfrwt>
<totfact> 0.54640936E+03</totfact>
</mgrwt>
</event>
<event>
 5    1  0.3269032E-002  0.1249990E+03  0.7818608E-02  0.1235071E+00
         -4   -1    0    0    0  501 -0.00000000000E+00  0.00000000000E+00  0.50486573863E+01  0.52059428929E+01  0.12700000000E+01 0. -1.
          4   -1    0    0  501    0  0.00000000000E+00 -0.00000000000E+00 -0.76168365853E+03  0.76168471730E+03  0.12700000000E+01 0. -1.
         25    2    1    2    0    0  0.00000000000E+00  0.00000000000E+00 -0.75663500114E+03  0.76689066019E+03  0.12499903895E+03 0.  0.
    9000005    1    3    3    0    0  0.33884452659E+02 -0.51744065899E+02 -0.32358521250E+03  0.32944497908E+03  0.10000000000E+01 0.  0.
    9000005    1    3    3    0    0 -0.33884452659E+02  0.51744065899E+02 -0.43304978864E+03  0.43744568112E+03  0.10000000000E+01 0.  0.
<mgrwt>
<rscale>  0 0.12499904E+03</rscale>
<asrwt>0</asrwt>
<pdfrwt beam="2">  1        4 0.11719419E+00 0.12499904E+03</pdfrwt>
<pdfrwt beam="1">  1       -4 0.78889745E-03 0.12499904E+03</pdfrwt>
<totfact> 0.39779852E+03</totfact>
</mgrwt>
</event>
<event>
 5    1  0.3269032E-002  0.1250014E+03  0.7818608E-02  0.1235067E+00
          4   -1    0    0  501    0  0.00000000000E+00  0.00000000000E+00  0.17966967677E+02  0.18011796898E+02  0.12700000000E+01 0. -1.
         -4   -1    0    0    0  501 -0.00000000000E+00 -0.00000000000E+00 -0.21710017751E+03  0.21710389212E+03  0.12700000000E+01 0. -1.
         25    2    1    2    0    0  0.00000000000E+00  0.00000000000E+00 -0.19913320983E+03  0.23511568902E+03  0.12500140785E+03 0.  0.
    9000005    1    3    3    0    0 -0.59177234472E+01 -0.60943886310E+02 -0.76061978077E+02  0.97650403166E+02  0.10000000000E+01 0.  0.
    9000005    1    3    3    0    0  0.59177234472E+01  0.60943886310E+02 -0.12307123176E+03  0.13746528586E+03  0.10000000000E+01 0.  0.
<mgrwt>
<rscale>  0 0.12500141E+03</rscale>
<asrwt>0</asrwt>
<pdfrwt beam="1">  1        4 0.27678832E-02 0.12500141E+03</pdfrwt>
<pdfrwt beam="2">  1       -4 0.33403760E-01 0.12500141E+03</pdfrwt>
<totfact> 0.84527565E+03</totfact>
</mgrwt>
</event>
<event>
 5    1  0.3269032E-002  0.1249930E+03  0.7818608E-02  0.1235080E+00
         -4   -1    0    0    0  501 -0.00000000000E+00  0.00000000000E+00  0.13828809298E+02  0.13887003514E+02  0.12700000000E+01 0.  1.
          4   -1    0    0  501    0  0.00000000000E+00 -0.00000000000E+00 -0.28178767015E+03  0.28179053204E+03  0.12700000000E+01 0.  1.
         25    2    1    2    0    0  0.00000000000E+00  0.00000000000E+00 -0.26795886085E+03  0.29567753556E+03  0.12499301550E+03 0.  0.
    9000005    1    3    3    0    0  0.30619148541E+02  0.23431034820E+01 -0.26271833077E+03  0.26450887266E+03  0.10000000000E+01 0.  0.
    9000005    1    3    3    0    0 -0.30619148541E+02 -0.23431034820E+01 -0.52405300807E+01  0.31168662898E+02  0.10000000000E+01 0.  0.
<mgrwt>
<rscale>  0 0.12499302E+03</rscale>
<asrwt>0</asrwt>
<pdfrwt beam="2">  1        4 0.43356642E-01 0.12499302E+03</pdfrwt>
<pdfrwt beam="1">  1       -4 0.21322059E-02 0.12499302E+03</pdfrwt>
<totfact> 0.76156072E+03</totfact>
</mgrwt>
</event>
<event>
 5    1  0.3269032E-002  0.1249947E+03  0.7818608E-02  0.1235078E+00
         -4   -1    0    0    0  501 -0.00000000000E+00  0.00000000000E+00  0.14089784700E+03  0.14090357053E+03  0.12700000000E+01 0.  1.
          4   -1    0    0  501    0  0.00000000000E+00 -0.00000000000E+00 -0.27700792056E+02  0.27729889660E+02  0.12700000000E+01 0.  1.
         25    2    1    2    0    0  0.00000000000E+00  0.00000000000E+00  0.11319705494E+03  0.16863346019E+03  0.12499468248E+03 0.  0.
    9000005    1    3    3    0    0 -0.61797767265E+02 -0.24646738839E+01  0.68656340335E+02  0.92410668889E+02  0.10000000000E+01 0.  0.
    9000005    1    3    3    0    0  0.61797767265E+02  0.24646738839E+01  0.44540714608E+02  0.76222791303E+02  0.10000000000E+01 0.  0.
<mgrwt>
<rscale>  0 0.12499468E+03</rscale>
<asrwt>0</asrwt>
<pdfrwt beam="2">  1        4 0.42643388E-02 0.12499468E+03</pdfrwt>
<pdfrwt beam="1">  1       -4 0.21679271E-01 0.12499468E+03</pdfrwt>
<totfact> 0.95715092E+03</totfact>
</mgrwt>
</event>
<event>
 5    1  0.3269032E-002  0.1250146E+03  0.7818608E-02  0.1235046E+00
         -4   -1    0    0    0  501 -0.00000000000E+00  0.00000000000E+00  0.11125019602E+02  0.11197274719E+02  0.12700000000E+01 0.  1.
          4   -1    0    0  501    0  0.00000000000E+00 -0.00000000000E+00 -0.34999475827E+03  0.34999706244E+03  0.12700000000E+01 0.  1.
         25    2    1    2    0    0  0.00000000000E+00  0.00000000000E+00 -0.33886973867E+03  0.36119433716E+03  0.12501459679E+03 0.  0.
    9000005    1    3    3    0    0  0.26707155980E+02 -0.18309552631E+02 -0.32388374846E+03  0.32549991462E+03  0.10000000000E+01 0.  0.
    9000005    1    3    3    0    0 -0.26707155980E+02  0.18309552631E+02 -0.14985990206E+02  0.35694422541E+02  0.10000000000E+01 0.  0.
<mgrwt>
<rscale>  0 0.12501460E+03</rscale>
<asrwt>0</asrwt>
<pdfrwt beam="2">  1        4 0.53851074E-01 0.12501460E+03</pdfrwt>
<pdfrwt beam="1">  1       -4 0.17172771E-02 0.12501460E+03</pdfrwt>
<totfact> 0.68488238E+03</totfact>
</mgrwt>
</event>
<event>
 4    1  0.3269032E-002  0.1248708E+03  0.7818608E-02  0.1235271E+00
          4   -1    0    0  501    0  0.00000000000E+00  0.00000000000E+00  0.89005317070E+02  0.89014377303E+02  0.12700000000E+01 0.  1.
         -4   -1    0    0    0  501 -0.00000000000E+00 -0.00000000000E+00 -0.43776667015E+02  0.43795085055E+02  0.12700000000E+01 0.  1.
    9000005    1    1    2    0    0 -0.11368564256E+02 -0.15293868658E+02 -0.40612795315E+02  0.44872550797E+02  0.10000000000E+01 0.  0.
    9000005    1    1    2    0    0  0.11368564256E+02  0.15293868658E+02  0.85841445369E+02  0.87936911561E+02  0.10000000000E+01 0.  0.
<mgrwt>
<rscale>  0 0.12487082E+03</rscale>
<asrwt>0</asrwt>
<pdfrwt beam="1">  1        4 0.13695239E-01 0.12487082E+03</pdfrwt>
<pdfrwt beam="2">  1       -4 0.67369856E-02 0.12487082E+03</pdfrwt>
<totfact> 0.10314476E+04</totfact>
</mgrwt>
</event>
<event>
 5    1  0.3269032E-002  0.1250436E+03  0.7818608E-02  0.1235001E+00
          4   -1    0    0  501    0  0.00000000000E+00  0.00000000000E+00  0.53952895336E+02  0.53967840564E+02  0.12700000000E+01 0.  1.
         -4   -1    0    0    0  501 -0.00000000000E+00 -0.00000000000E+00 -0.72421064360E+02  0.72432199076E+02  0.12700000000E+01 0.  1.
         25    2    1    2    0    0  0.00000000000E+00  0.00000000000E+00 -0.18468169024E+02  0.12640003964E+03  0.12504357942E+03 0.  0.
    9000005    1    3    3    0    0  0.44563824867E+01  0.25381626027E+02  0.48338898532E+02  0.54788095385E+02  0.10000000000E+01 0.  0.
    9000005    1    3    3    0    0 -0.44563824867E+01 -0.25381626027E+02 -0.66807067556E+02  0.71611944255E+02  0.10000000000E+01 0.  0.
<mgrwt>
<rscale>  0 0.12504358E+03</rscale>
<asrwt>0</asrwt>
<pdfrwt beam="1">  1        4 0.83024516E-02 0.12504358E+03</pdfrwt>
<pdfrwt beam="2">  1       -4 0.11143708E-01 0.12504358E+03</pdfrwt>
<totfact> 0.10411964E+04</totfact>
</mgrwt>
</event>
<event>
 5    1  0.3269032E-002  0.1249949E+03  0.7818608E-02  0.1235077E+00
          4   -1    0    0  501    0  0.00000000000E+00  0.00000000000E+00  0.19429955800E+03  0.19430370851E+03  0.12700000000E+01 0. -1.
         -4   -1    0    0    0  501 -0.00000000000E+00 -0.00000000000E+00 -0.20078203503E+02  0.20118328854E+02  0.12700000000E+01 0. -1.
         25    2    1    2    0    0  0.00000000000E+00  0.00000000000E+00  0.17422135450E+03  0.21442203736E+03  0.12499491887E+03 0.  0.
    9000005    1    3    3    0    0 -0.38491804615E+02 -0.48210932413E+02  0.10418082280E+03  0.12108078653E+03  0.10000000000E+01 0.  0.
    9000005    1    3    3    0    0  0.38491804615E+02  0.48210932413E+02  0.70040531699E+02  0.93341250835E+02  0.10000000000E+01 0.  0.
<mgrwt>
<rscale>  0 0.12499492E+03</rscale>
<asrwt>0</asrwt>
<pdfrwt beam="1">  1        4 0.29895645E-01 0.12499492E+03</pdfrwt>
<pdfrwt beam="2">  1       -4 0.30923602E-02 0.12499492E+03</pdfrwt>
<totfact> 0.87768724E+03</totfact>
</mgrwt>
</event>
<event>
 5    1  0.3269032E-002  0.1249943E+03  0.7818608E-02  0.1235078E+00
          4   -1    0    0  501    0  0.00000000000E+00  0.00000000000E+00  0.10583775375E+04  0.10583782994E+04  0.12700000000E+01 0.  1.
         -4   -1    0    0    0  501 -0.00000000000E+00 -0.00000000000E+00 -0.35804044095E+01  0.37989729843E+01  0.12700000000E+01 0.  1.
         25    2    1    2    0    0  0.00000000000E+00  0.00000000000E+00  0.10547971330E+04  0.10621772724E+04  0.12499426442E+03 0.  0.
    9000005    1    3    3    0    0 -0.26871470513E+02  0.55377280951E+02  0.43580640083E+03  0.44013286424E+03  0.10000000000E+01 0.  0.
    9000005    1    3    3    0    0  0.26871470513E+02 -0.55377280951E+02  0.61899073221E+03  0.62204440817E+03  0.10000000000E+01 0.  0.
<mgrwt>
<rscale>  0 0.12499426E+03</rscale>
<asrwt>0</asrwt>
<pdfrwt beam="1">  1        4 0.16284427E+00 0.12499426E+03</pdfrwt>
<pdfrwt beam="2">  1       -4 0.56770273E-03 0.12499426E+03</pdfrwt>
<totfact> 0.28621137E+03</totfact>
</mgrwt>
</event>
<event>
 5    1  0.3269032E-002  0.1250002E+03  0.7818608E-02  0.1235069E+00
          4   -1    0    0  501    0  0.00000000000E+00  0.00000000000E+00  0.41697403147E+02  0.41716739196E+02  0.12700000000E+01 0. -1.
         -4   -1    0    0    0  501 -0.00000000000E+00 -0.00000000000E+00 -0.93635834715E+02  0.93644446940E+02  0.12700000000E+01 0. -1.
         25    2    1    2    0    0  0.00000000000E+00  0.00000000000E+00 -0.51938431568E+02  0.13536118614E+03  0.12500020015E+03 0.  0.
    9000005    1    3    3    0    0 -0.13385090118E+02  0.47627481041E+02  0.15375616283E+02  0.51816475796E+02  0.10000000000E+01 0.  0.
    9000005    1    3    3    0    0  0.13385090118E+02 -0.47627481041E+02 -0.67314047851E+02  0.83544710341E+02  0.10000000000E+01 0.  0.
<mgrwt>
<rscale>  0 0.12500020E+03</rscale>
<asrwt>0</asrwt>
<pdfrwt beam="1">  1        4 0.64171350E-02 0.12500020E+03</pdfrwt>
<pdfrwt beam="2">  1       -4 0.14407663E-01 0.12500020E+03</pdfrwt>
<totfact> 0.10230417E+04</totfact>
</mgrwt>
</event>
<event>
 5    1  0.3269032E-002  0.1250003E+03  0.7818608E-02  0.1235069E+00
          4   -1    0    0  501    0  0.00000000000E+00  0.00000000000E+00  0.68242160063E+03  0.68242278237E+03  0.12700000000E+01 0.  1.
         -4   -1    0    0    0  501 -0.00000000000E+00 -0.00000000000E+00 -0.56524821050E+01  0.57933974442E+01  0.12700000000E+01 0.  1.
         25    2    1    2    0    0  0.00000000000E+00  0.00000000000E+00  0.67676911852E+03  0.68821617982E+03  0.12500028151E+03 0.  0.
    9000005    1    3    3    0    0 -0.14902396960E+02 -0.11374258768E+02  0.10167510208E+02  0.21350256708E+02  0.10000000000E+01 0.  0.
    9000005    1    3    3    0    0  0.14902396960E+02  0.11374258768E+02  0.66660160831E+03  0.66686592311E+03  0.10000000000E+01 0.  0.
<mgrwt>
<rscale>  0 0.12500028E+03</rscale>
<asrwt>0</asrwt>
<pdfrwt beam="1">  1        4 0.10499879E+00 0.12500028E+03</pdfrwt>
<pdfrwt beam="2">  1       -4 0.88054384E-03 0.12500028E+03</pdfrwt>
<totfact> 0.43715844E+03</totfact>
</mgrwt>
</event>
<event>
 4    1  0.3269032E-002  0.1256403E+03  0.7818608E-02  0.1234072E+00
         -4   -1    0    0    0  501 -0.00000000000E+00  0.00000000000E+00  0.46701053938E+03  0.46701226621E+03  0.12700000000E+01 0. -1.
          4   -1    0    0  501    0  0.00000000000E+00 -0.00000000000E+00 -0.84008112755E+01  0.84962656554E+01  0.12700000000E+01 0. -1.
    9000005    1    1    2    0    0 -0.61253369815E+02  0.88639468470E+01  0.18874948819E+03  0.19864016251E+03  0.10000000000E+01 0.  0.
    9000005    1    1    2    0    0  0.61253369815E+02 -0.88639468470E+01  0.26986023991E+03  0.27686836936E+03  0.10000000000E+01 0.  0.
<mgrwt>
<rscale>  0 0.12564028E+03</rscale>
<asrwt>0</asrwt>
<pdfrwt beam="2">  1        4 0.12999080E-02 0.12564028E+03</pdfrwt>
<pdfrwt beam="1">  1       -4 0.71855248E-01 0.12564028E+03</pdfrwt>
<totfact> 0.57008848E+03</totfact>
</mgrwt>
</event>
<event>
 5    1  0.3269032E-002  0.1250012E+03  0.7818608E-02  0.1235067E+00
          4   -1    0    0  501    0  0.00000000000E+00  0.00000000000E+00  0.42987664078E+03  0.42987851677E+03  0.12700000000E+01 0.  1.
         -4   -1    0    0    0  501 -0.00000000000E+00 -0.00000000000E+00 -0.90408080198E+01  0.91295733554E+01  0.12700000000E+01 0.  1.
         25    2    1    2    0    0  0.00000000000E+00  0.00000000000E+00  0.42083583276E+03  0.43900809013E+03  0.12500122027E+03 0.  0.
    9000005    1    3    3    0    0  0.41045140627E+00 -0.46691089719E+02  0.35628772081E+03  0.35933572927E+03  0.10000000000E+01 0.  0.
    9000005    1    3    3    0    0 -0.41045140627E+00  0.46691089719E+02  0.64548111950E+02  0.79672360865E+02  0.10000000000E+01 0.  0.
<mgrwt>
<rscale>  0 0.12500122E+03</rscale>
<asrwt>0</asrwt>
<pdfrwt beam="1">  1        4 0.66141841E-01 0.12500122E+03</pdfrwt>
<pdfrwt beam="2">  1       -4 0.13978659E-02 0.12500122E+03</pdfrwt>
<totfact> 0.60926224E+03</totfact>
</mgrwt>
</event>
<event>
 5    1  0.3269032E-002  0.1250018E+03  0.7818608E-02  0.1235066E+00
          4   -1    0    0  501    0  0.00000000000E+00  0.00000000000E+00  0.13540069889E+02  0.13599499719E+02  0.12700000000E+01 0. -1.
         -4   -1    0    0    0  501 -0.00000000000E+00 -0.00000000000E+00 -0.28781134764E+03  0.28781414963E+03  0.12700000000E+01 0. -1.
         25    2    1    2    0    0  0.00000000000E+00  0.00000000000E+00 -0.27427127775E+03  0.30141364935E+03  0.12500181686E+03 0.  0.
    9000005    1    3    3    0    0  0.59490305618E+02  0.19097290663E+02 -0.13412339743E+03  0.14796583630E+03  0.10000000000E+01 0.  0.
    9000005    1    3    3    0    0 -0.59490305618E+02 -0.19097290663E+02 -0.14014788031E+03  0.15344781305E+03  0.10000000000E+01 0.  0.
<mgrwt>
<rscale>  0 0.12500182E+03</rscale>
<asrwt>0</asrwt>
<pdfrwt beam="1">  1        4 0.20878750E-02 0.12500182E+03</pdfrwt>
<pdfrwt beam="2">  1       -4 0.44283451E-01 0.12500182E+03</pdfrwt>
<totfact> 0.75418815E+03</totfact>
</mgrwt>
</event>
<event>
 5    1  0.3269032E-002  0.1249829E+03  0.7818608E-02  0.1235096E+00
         -4   -1    0    0    0  501 -0.00000000000E+00  0.00000000000E+00  0.76717730055E+01  0.77761816496E+01  0.12700000000E+01 0.  1.
          4   -1    0    0  501    0  0.00000000000E+00 -0.00000000000E+00 -0.50548688823E+03  0.50548848362E+03  0.12700000000E+01 0.  1.
         25    2    1    2    0    0  0.00000000000E+00  0.00000000000E+00 -0.49781511523E+03  0.51326466527E+03  0.12498290951E+03 0.  0.
    9000005    1    3    3    0    0 -0.47313574256E+02 -0.30393966804E+02 -0.36075816930E+03  0.36511617911E+03  0.10000000000E+01 0.  0.
    9000005    1    3    3    0    0  0.47313574256E+02  0.30393966804E+02 -0.13705694592E+03  0.14814848616E+03  0.10000000000E+01 0.  0.
<mgrwt>
<rscale>  0 0.12498291E+03</rscale>
<asrwt>0</asrwt>
<pdfrwt beam="2">  1        4 0.77775342E-01 0.12498291E+03</pdfrwt>
<pdfrwt beam="1">  1       -4 0.11884273E-02 0.12498291E+03</pdfrwt>
<totfact> 0.54870301E+03</totfact>
</mgrwt>
</event>
<event>
 5    1  0.3269032E-002  0.1249778E+03  0.7818608E-02  0.1235104E+00
          4   -1    0    0  501    0  0.00000000000E+00  0.00000000000E+00  0.10054816894E+04  0.10054824914E+04  0.12700000000E+01 0. -1.
         -4   -1    0    0    0  501 -0.00000000000E+00 -0.00000000000E+00 -0.37789200596E+01  0.39866197232E+01  0.12700000000E+01 0. -1.
         25    2    1    2    0    0  0.00000000000E+00  0.00000000000E+00  0.10017027693E+04  0.10094691112E+04  0.12497779128E+03 0.  0.
    9000005    1    3    3    0    0  0.35194297448E+02  0.51587302464E+02  0.51695262667E+03  0.52071192282E+03  0.10000000000E+01 0.  0.
    9000005    1    3    3    0    0 -0.35194297448E+02 -0.51587302464E+02  0.48475014265E+03  0.48875718833E+03  0.10000000000E+01 0.  0.
<mgrwt>
<rscale>  0 0.12497779E+03</rscale>
<asrwt>0</asrwt>
<pdfrwt beam="1">  1        4 0.15470562E+00 0.12497779E+03</pdfrwt>
<pdfrwt beam="2">  1       -4 0.59741055E-03 0.12497779E+03</pdfrwt>
<totfact> 0.30308516E+03</totfact>
</mgrwt>
</event>
<event>
 5    1  0.3269032E-002  0.1249988E+03  0.7818608E-02  0.1235071E+00
          4   -1    0    0  501    0  0.00000000000E+00  0.00000000000E+00  0.26857339955E+02  0.26887350362E+02  0.12700000000E+01 0. -1.
         -4   -1    0    0    0  501 -0.00000000000E+00 -0.00000000000E+00 -0.14532758890E+03  0.14533313798E+03  0.12700000000E+01 0. -1.
         25    2    1    2    0    0  0.00000000000E+00  0.00000000000E+00 -0.11847024894E+03  0.17222048834E+03  0.12499878687E+03 0.  0.
    9000005    1    3    3    0    0  0.28056985714E+02  0.37743335827E+02 -0.25379516839E+01  0.47108333079E+02  0.10000000000E+01 0.  0.
    9000005    1    3    3    0    0 -0.28056985714E+02 -0.37743335827E+02 -0.11593229726E+03  0.12511215526E+03  0.10000000000E+01 0.  0.
<mgrwt>
<rscale>  0 0.12499879E+03</rscale>
<asrwt>0</asrwt>
<pdfrwt beam="1">  1        4 0.41346339E-02 0.12499879E+03</pdfrwt>
<pdfrwt beam="2">  1       -4 0.22360825E-01 0.12499879E+03</pdfrwt>
<totfact> 0.95038968E+03</totfact>
</mgrwt>
</event>
<event>
 5    1  0.3269032E-002  0.1250001E+03  0.7818608E-02  0.1235069E+00
          4   -1    0    0  501    0  0.00000000000E+00  0.00000000000E+00  0.53963896609E+02  0.53978838791E+02  0.12700000000E+01 0. -1.
         -4   -1    0    0    0  501 -0.00000000000E+00 -0.00000000000E+00 -0.72355983935E+02  0.72367128664E+02  0.12700000000E+01 0. -1.
         25    2    1    2    0    0  0.00000000000E+00  0.00000000000E+00 -0.18392087326E+02  0.12634596746E+03  0.12500013846E+03 0.  0.
    9000005    1    3    3    0    0 -0.33320678282E+01  0.13793753250E+02 -0.70710874567E+02  0.72127651333E+02  0.10000000000E+01 0.  0.
    9000005    1    3    3    0    0  0.33320678282E+01 -0.13793753250E+02  0.52318787242E+02  0.54218316123E+02  0.10000000000E+01 0.  0.
<mgrwt>
<rscale>  0 0.12500014E+03</rscale>
<asrwt>0</asrwt>
<pdfrwt beam="1">  1        4 0.83041446E-02 0.12500014E+03</pdfrwt>
<pdfrwt beam="2">  1       -4 0.11133697E-01 0.12500014E+03</pdfrwt>
<totfact> 0.10423357E+04</totfact>
</mgrwt>
</event>
<event>
 5    1  0.3269032E-002  0.1250008E+03  0.7818608E-02  0.1235068E+00
         -4   -1    0    0    0  501 -0.00000000000E+00  0.00000000000E+00  0.76882625149E+03  0.76882730042E+03  0.12700000000E+01 0.  1.
          4   -1    0    0  501    0  0.00000000000E+00 -0.00000000000E+00 -0.50004349959E+01  0.51591908423E+01  0.12700000000E+01 0.  1.
         25    2    1    2    0    0  0.00000000000E+00  0.00000000000E+00  0.76382581649E+03  0.77398649127E+03  0.12500084289E+03 0.  0.
    9000005    1    3    3    0    0 -0.89695973146E+01 -0.14128536876E+02  0.75472365987E+03  0.75490984362E+03  0.10000000000E+01 0.  0.
    9000005    1    3    3    0    0  0.89695973146E+01  0.14128536876E+02  0.91021566264E+01  0.19076647648E+02  0.10000000000E+01 0.  0.
<mgrwt>
<rscale>  0 0.12500084E+03</rscale>
<asrwt>0</asrwt>
<pdfrwt beam="2">  1        4 0.78159085E-03 0.12500084E+03</pdfrwt>
<pdfrwt beam="1">  1       -4 0.11829318E+00 0.12500084E+03</pdfrwt>
<totfact> 0.39451561E+03</totfact>
</mgrwt>
</event>
<event>
 5    1  0.3269032E-002  0.1249928E+03  0.7818608E-02  0.1235081E+00
         -4   -1    0    0    0  501 -0.00000000000E+00  0.00000000000E+00  0.17763107411E+03  0.17763561408E+03  0.12700000000E+01 0.  1.
          4   -1    0    0  501    0  0.00000000000E+00 -0.00000000000E+00 -0.21965113246E+02  0.22001797651E+02  0.12700000000E+01 0.  1.
         25    2    1    2    0    0  0.00000000000E+00  0.00000000000E+00  0.15566596086E+03  0.19963741173E+03  0.12499281896E+03 0.  0.
    9000005    1    3    3    0    0  0.39963900939E+02 -0.46896466386E+02  0.94462896510E+02  0.11278577372E+03  0.10000000000E+01 0.  0.
    9000005    1    3    3    0    0 -0.39963900939E+02  0.46896466386E+02  0.61203064351E+02  0.86851638002E+02  0.10000000000E+01 0.  0.
<mgrwt>
<rscale>  0 0.12499282E+03</rscale>
<asrwt>0</asrwt>
<pdfrwt beam="2">  1        4 0.33824194E-02 0.12499282E+03</pdfrwt>
<pdfrwt beam="1">  1       -4 0.27331028E-01 0.12499282E+03</pdfrwt>
<totfact> 0.90211192E+03</totfact>
</mgrwt>
</event>
<event>
 5    1  0.3269032E-002  0.1249965E+03  0.7818608E-02  0.1235075E+00
         -4   -1    0    0    0  501 -0.00000000000E+00  0.00000000000E+00  0.23627857126E+02  0.23661963832E+02  0.12700000000E+01 0. -1.
          4   -1    0    0  501    0  0.00000000000E+00 -0.00000000000E+00 -0.16515897954E+03  0.16516386234E+03  0.12700000000E+01 0. -1.
         25    2    1    2    0    0  0.00000000000E+00  0.00000000000E+00 -0.14153112241E+03  0.18882582617E+03  0.12499653602E+03 0.  0.
    9000005    1    3    3    0    0 -0.51550415680E+00  0.58194868228E+02 -0.10515148685E+03  0.12018628716E+03  0.10000000000E+01 0.  0.
    9000005    1    3    3    0    0  0.51550415680E+00 -0.58194868228E+02 -0.36379635557E+02  0.68639539012E+02  0.10000000000E+01 0.  0.
<mgrwt>
<rscale>  0 0.12499654E+03</rscale>
<asrwt>0</asrwt>
<pdfrwt beam="2">  1        4 0.25412072E-01 0.12499654E+03</pdfrwt>
<pdfrwt beam="1">  1       -4 0.36380542E-02 0.12499654E+03</pdfrwt>
<totfact> 0.92059163E+03</totfact>
</mgrwt>
</event>
<event>
 5    1  0.3269032E-002  0.1249990E+03  0.7818608E-02  0.1235071E+00
          4   -1    0    0  501    0  0.00000000000E+00  0.00000000000E+00  0.21849634173E+03  0.21850003261E+03  0.12700000000E+01 0. -1.
         -4   -1    0    0    0  501 -0.00000000000E+00 -0.00000000000E+00 -0.17851197455E+02  0.17896316676E+02  0.12700000000E+01 0. -1.
         25    2    1    2    0    0  0.00000000000E+00  0.00000000000E+00  0.20064514428E+03  0.23639634929E+03  0.12499904013E+03 0.  0.
    9000005    1    3    3    0    0  0.23486045391E+02 -0.38126890013E+02  0.18275603920E+03  0.18816488497E+03  0.10000000000E+01 0.  0.
    9000005    1    3    3    0    0 -0.23486045391E+02  0.38126890013E+02  0.17889105080E+02  0.48231464323E+02  0.10000000000E+01 0.  0.
<mgrwt>
<rscale>  0 0.12499904E+03</rscale>
<asrwt>0</asrwt>
<pdfrwt beam="1">  1        4 0.33618577E-01 0.12499904E+03</pdfrwt>
<pdfrwt beam="2">  1       -4 0.27500927E-02 0.12499904E+03</pdfrwt>
<totfact> 0.84338815E+03</totfact>
</mgrwt>
</event>
<event>
 5    1  0.3269032E-002  0.1250048E+03  0.7818608E-02  0.1235062E+00
          4   -1    0    0  501    0  0.00000000000E+00  0.00000000000E+00  0.74233544001E+02  0.74244406894E+02  0.12700000000E+01 0. -1.
         -4   -1    0    0    0  501 -0.00000000000E+00 -0.00000000000E+00 -0.52602730182E+02  0.52618058902E+02  0.12700000000E+01 0. -1.
         25    2    1    2    0    0  0.00000000000E+00  0.00000000000E+00  0.21630813819E+02  0.12686246580E+03  0.12500477239E+03 0.  0.
    9000005    1    3    3    0    0  0.10812576087E+02 -0.20033388556E+02 -0.48250023683E+02  0.53360221552E+02  0.10000000000E+01 0.  0.
    9000005    1    3    3    0    0 -0.10812576087E+02  0.20033388556E+02  0.69880837503E+02  0.73502244243E+02  0.10000000000E+01 0.  0.
<mgrwt>
<rscale>  0 0.12500477E+03</rscale>
<asrwt>0</asrwt>
<pdfrwt beam="1">  1        4 0.11422560E-01 0.12500477E+03</pdfrwt>
<pdfrwt beam="2">  1       -4 0.80947424E-02 0.12500477E+03</pdfrwt>
<totfact> 0.10411013E+04</totfact>
</mgrwt>
</event>
<event>
 5    1  0.3269032E-002  0.1250045E+03  0.7818608E-02  0.1235062E+00
          4   -1    0    0  501    0  0.00000000000E+00  0.00000000000E+00  0.38101714638E+01  0.40162552936E+01  0.12700000000E+01 0. -1.
         -4   -1    0    0    0  501 -0.00000000000E+00 -0.00000000000E+00 -0.99808519052E+03  0.99808599852E+03  0.12700000000E+01 0. -1.
         25    2    1    2    0    0  0.00000000000E+00  0.00000000000E+00 -0.99427501906E+03  0.10021022538E+04  0.12500445421E+03 0.  0.
    9000005    1    3    3    0    0  0.27209465452E+02  0.56254942712E+02 -0.50310863438E+03  0.50697561241E+03  0.10000000000E+01 0.  0.
    9000005    1    3    3    0    0 -0.27209465452E+02 -0.56254942712E+02 -0.49116638468E+03  0.49512664141E+03  0.10000000000E+01 0.  0.
<mgrwt>
<rscale>  0 0.12500445E+03</rscale>
<asrwt>0</asrwt>
<pdfrwt beam="1">  1        4 0.60209578E-03 0.12500445E+03</pdfrwt>
<pdfrwt beam="2">  1       -4 0.15356728E+00 0.12500445E+03</pdfrwt>
<totfact> 0.30532247E+03</totfact>
</mgrwt>
</event>
<event>
 5    1  0.3269032E-002  0.1250000E+03  0.7818608E-02  0.1235069E+00
          4   -1    0    0  501    0  0.00000000000E+00  0.00000000000E+00  0.17101654950E+02  0.17148746369E+02  0.12700000000E+01 0. -1.
         -4   -1    0    0    0  501 -0.00000000000E+00 -0.00000000000E+00 -0.22805069737E+03  0.22805423362E+03  0.12700000000E+01 0. -1.
         25    2    1    2    0    0  0.00000000000E+00  0.00000000000E+00 -0.21094904242E+03  0.24520297999E+03  0.12500001159E+03 0.  0.
    9000005    1    3    3    0    0  0.45352346924E+02  0.40590825083E+02 -0.13327151556E+03  0.14651534838E+03  0.10000000000E+01 0.  0.
    9000005    1    3    3    0    0 -0.45352346924E+02 -0.40590825083E+02 -0.77677526862E+02  0.98687631606E+02  0.10000000000E+01 0.  0.
<mgrwt>
<rscale>  0 0.12500001E+03</rscale>
<asrwt>0</asrwt>
<pdfrwt beam="1">  1        4 0.26349184E-02 0.12500001E+03</pdfrwt>
<pdfrwt beam="2">  1       -4 0.35088615E-01 0.12500001E+03</pdfrwt>
<totfact> 0.83028507E+03</totfact>
</mgrwt>
</event>
<event>
 4    1  0.3269032E-002  0.1249108E+03  0.7818608E-02  0.1235209E+00
          4   -1    0    0  501    0  0.00000000000E+00  0.00000000000E+00  0.13864332753E+03  0.13864914413E+03  0.12700000000E+01 0. -1.
         -4   -1    0    0    0  501 -0.00000000000E+00 -0.00000000000E+00 -0.28113886218E+02  0.28142556711E+02  0.12700000000E+01 0. -1.
    9000005    1    1    2    0    0  0.55336174931E+02  0.26797831944E+02  0.69859250178E+02  0.93067345983E+02  0.10000000000E+01 0.  0.
    9000005    1    1    2    0    0 -0.55336174931E+02 -0.26797831944E+02  0.40670191137E+02  0.73724354863E+02  0.10000000000E+01 0.  0.
<mgrwt>
<rscale>  0 0.12491082E+03</rscale>
<asrwt>0</asrwt>
<pdfrwt beam="1">  1        4 0.21332395E-01 0.12491082E+03</pdfrwt>
<pdfrwt beam="2">  1       -4 0.43278662E-02 0.12491082E+03</pdfrwt>
<totfact> 0.96241776E+03</totfact>
</mgrwt>
</event>
<event>
 5    1  0.3269032E-002  0.1249992E+03  0.7818608E-02  0.1235071E+00
         -4   -1    0    0    0  501 -0.00000000000E+00  0.00000000000E+00  0.96155779570E+03  0.96155863439E+03  0.12700000000E+01 0. -1.
          4   -1    0    0  501    0  0.00000000000E+00 -0.00000000000E+00 -0.39622478183E+01  0.41608061447E+01  0.12700000000E+01 0. -1.
         25    2    1    2    0    0  0.00000000000E+00  0.00000000000E+00  0.95759554788E+03  0.96571944054E+03  0.12499921802E+03 0.  0.
    9000005    1    3    3    0    0 -0.18976848503E+02  0.17257709506E+02  0.91905010256E+03  0.91940852745E+03  0.10000000000E+01 0.  0.
    9000005    1    3    3    0    0  0.18976848503E+02 -0.17257709506E+02  0.38545445318E+02  0.46310913090E+02  0.10000000000E+01 0.  0.
<mgrwt>
<rscale>  0 0.12499922E+03</rscale>
<asrwt>0</asrwt>
<pdfrwt beam="2">  1        4 0.62491604E-03 0.12499922E+03</pdfrwt>
<pdfrwt beam="1">  1       -4 0.14794702E+00 0.12499922E+03</pdfrwt>
<totfact> 0.31764968E+03</totfact>
</mgrwt>
</event>
<event>
 5    1  0.3269032E-002  0.1250063E+03  0.7818608E-02  0.1235060E+00
          4   -1    0    0  501    0  0.00000000000E+00  0.00000000000E+00  0.96089948881E+02  0.96098341172E+02  0.12700000000E+01 0. -1.
         -4   -1    0    0    0  501 -0.00000000000E+00 -0.00000000000E+00 -0.40635994456E+02  0.40655835318E+02  0.12700000000E+01 0. -1.
         25    2    1    2    0    0  0.00000000000E+00  0.00000000000E+00  0.55453954425E+02  0.13675417649E+03  0.12500625475E+03 0.  0.
    9000005    1    3    3    0    0 -0.38978447844E+02 -0.41873642688E+02  0.55249175639E+02  0.79537367049E+02  0.10000000000E+01 0.  0.
    9000005    1    3    3    0    0  0.38978447844E+02  0.41873642688E+02  0.20477878655E+00  0.57216809441E+02  0.10000000000E+01 0.  0.
<mgrwt>
<rscale>  0 0.12500625E+03</rscale>
<asrwt>0</asrwt>
<pdfrwt beam="1">  1        4 0.14785241E-01 0.12500625E+03</pdfrwt>
<pdfrwt beam="2">  1       -4 0.62538633E-02 0.12500625E+03</pdfrwt>
<totfact> 0.10199790E+04</totfact>
</mgrwt>
</event>
<event>
 5    1  0.3269032E-002  0.1250003E+03  0.7818608E-02  0.1235069E+00
          4   -1    0    0  501    0  0.00000000000E+00  0.00000000000E+00  0.47466267372E+02  0.47483254292E+02  0.12700000000E+01 0.  1.
         -4   -1    0    0    0  501 -0.00000000000E+00 -0.00000000000E+00 -0.82259118173E+02  0.82268921365E+02  0.12700000000E+01 0.  1.
         25    2    1    2    0    0  0.00000000000E+00  0.00000000000E+00 -0.34792850801E+02  0.12975217566E+03  0.12500033848E+03 0.  0.
    9000005    1    3    3    0    0  0.28641793583E+02 -0.35601595065E+02 -0.61648550089E+02  0.76742228524E+02  0.10000000000E+01 0.  0.
    9000005    1    3    3    0    0 -0.28641793583E+02  0.35601595065E+02  0.26855699288E+02  0.53009947133E+02  0.10000000000E+01 0.  0.
<mgrwt>
<rscale>  0 0.12500034E+03</rscale>
<asrwt>0</asrwt>
<pdfrwt beam="1">  1        4 0.73045635E-02 0.12500034E+03</pdfrwt>
<pdfrwt beam="2">  1       -4 0.12657310E-01 0.12500034E+03</pdfrwt>
<totfact> 0.10349733E+04</totfact>
</mgrwt>
</event>
<event>
 5    1  0.3269032E-002  0.1250004E+03  0.7818608E-02  0.1235069E+00
          4   -1    0    0  501    0  0.00000000000E+00  0.00000000000E+00  0.11832366369E+03  0.11833047912E+03  0.12700000000E+01 0. -1.
         -4   -1    0    0    0  501 -0.00000000000E+00 -0.00000000000E+00 -0.32993489344E+02  0.33017922998E+02  0.12700000000E+01 0. -1.
         25    2    1    2    0    0  0.00000000000E+00  0.00000000000E+00  0.85330174343E+02  0.15134840212E+03  0.12500040068E+03 0.  0.
    9000005    1    3    3    0    0 -0.29950740594E+02 -0.80420333431E+01 -0.23025392024E+02  0.38637932660E+02  0.10000000000E+01 0.  0.
    9000005    1    3    3    0    0  0.29950740594E+02  0.80420333431E+01  0.10835556637E+03  0.11271046946E+03  0.10000000000E+01 0.  0.
<mgrwt>
<rscale>  0 0.12500040E+03</rscale>
<asrwt>0</asrwt>
<pdfrwt beam="1">  1        4 0.18206044E-01 0.12500040E+03</pdfrwt>
<pdfrwt beam="2">  1       -4 0.50783253E-02 0.12500040E+03</pdfrwt>
<totfact> 0.99034698E+03</totfact>
</mgrwt>
</event>
<event>
 5    1  0.3269032E-002  0.1250010E+03  0.7818608E-02  0.1235068E+00
          4   -1    0    0  501    0  0.00000000000E+00  0.00000000000E+00  0.23138575120E+02  0.23173401964E+02  0.12700000000E+01 0.  1.
         -4   -1    0    0    0  501 -0.00000000000E+00 -0.00000000000E+00 -0.16865826765E+03  0.16866304914E+03  0.12700000000E+01 0.  1.
         25    2    1    2    0    0  0.00000000000E+00  0.00000000000E+00 -0.14551969253E+03  0.19183645110E+03  0.12500097224E+03 0.  0.
    9000005    1    3    3    0    0  0.17477575545E+02 -0.52071584278E+02 -0.11850244660E+03  0.13061678830E+03  0.10000000000E+01 0.  0.
    9000005    1    3    3    0    0 -0.17477575545E+02  0.52071584278E+02 -0.27017245923E+02  0.61219662800E+02  0.10000000000E+01 0.  0.
<mgrwt>
<rscale>  0 0.12500097E+03</rscale>
<asrwt>0</asrwt>
<pdfrwt beam="1">  1        4 0.35628277E-02 0.12500097E+03</pdfrwt>
<pdfrwt beam="2">  1       -4 0.25950472E-01 0.12500097E+03</pdfrwt>
<totfact> 0.91526764E+03</totfact>
</mgrwt>
</event>
<event>
 5    1  0.3269032E-002  0.1250019E+03  0.7818608E-02  0.1235066E+00
          4   -1    0    0  501    0  0.00000000000E+00  0.00000000000E+00  0.82305561158E+01  0.83279621742E+01  0.12700000000E+01 0.  1.
         -4   -1    0    0    0  501 -0.00000000000E+00 -0.00000000000E+00 -0.47172764492E+03  0.47172935448E+03  0.12700000000E+01 0.  1.
         25    2    1    2    0    0  0.00000000000E+00  0.00000000000E+00 -0.46349708880E+03  0.48005731665E+03  0.12500190377E+03 0.  0.
    9000005    1    3    3    0    0  0.53723597096E+02 -0.24655856765E+02 -0.30962754228E+03  0.31522111461E+03  0.10000000000E+01 0.  0.
    9000005    1    3    3    0    0 -0.53723597096E+02  0.24655856765E+02 -0.15386954652E+03  0.16483620204E+03  0.10000000000E+01 0.  0.
<mgrwt>
<rscale>  0 0.12500190E+03</rscale>
<asrwt>0</asrwt>
<pdfrwt beam="1">  1        4 0.12738641E-02 0.12500190E+03</pdfrwt>
<pdfrwt beam="2">  1       -4 0.72581087E-01 0.12500190E+03</pdfrwt>
<totfact> 0.57443170E+03</totfact>
</mgrwt>
</event>
<event>
 5    1  0.3269032E-002  0.1250007E+03  0.7818608E-02  0.1235068E+00
          4   -1    0    0  501    0  0.00000000000E+00  0.00000000000E+00  0.75347515088E+02  0.75358217401E+02  0.12700000000E+01 0. -1.
         -4   -1    0    0    0  501 -0.00000000000E+00 -0.00000000000E+00 -0.51821493480E+02  0.51837053220E+02  0.12700000000E+01 0. -1.
         25    2    1    2    0    0  0.00000000000E+00  0.00000000000E+00  0.23526021608E+02  0.12719527062E+03  0.12500065270E+03 0.  0.
    9000005    1    3    3    0    0 -0.30388339159E+01 -0.70678272248E+01 -0.51342761699E+02  0.51925599391E+02  0.10000000000E+01 0.  0.
    9000005    1    3    3    0    0  0.30388339159E+01  0.70678272248E+01  0.74868783307E+02  0.75269671230E+02  0.10000000000E+01 0.  0.
<mgrwt>
<rscale>  0 0.12500065E+03</rscale>
<asrwt>0</asrwt>
<pdfrwt beam="1">  1        4 0.11593946E-01 0.12500065E+03</pdfrwt>
<pdfrwt beam="2">  1       -4 0.79745576E-02 0.12500065E+03</pdfrwt>
<totfact> 0.10404753E+04</totfact>
</mgrwt>
</event>
<event>
 5    1  0.3269032E-002  0.1249985E+03  0.7818608E-02  0.1235072E+00
         -4   -1    0    0    0  501 -0.00000000000E+00  0.00000000000E+00  0.21267109622E+02  0.21304995932E+02  0.12700000000E+01 0.  1.
          4   -1    0    0  501    0  0.00000000000E+00 -0.00000000000E+00 -0.18346763885E+03  0.18347203440E+03  0.12700000000E+01 0.  1.
         25    2    1    2    0    0  0.00000000000E+00  0.00000000000E+00 -0.16220052923E+03  0.20477703033E+03  0.12499848186E+03 0.  0.
    9000005    1    3    3    0    0 -0.22836931695E+02 -0.38799467832E+01 -0.17618255981E+03  0.17770164270E+03  0.10000000000E+01 0.  0.
    9000005    1    3    3    0    0  0.22836931695E+02  0.38799467832E+01  0.13982030579E+02  0.27075387632E+02  0.10000000000E+01 0.  0.
<mgrwt>
<rscale>  0 0.12499848E+03</rscale>
<asrwt>0</asrwt>
<pdfrwt beam="2">  1        4 0.28229042E-01 0.12499848E+03</pdfrwt>
<pdfrwt beam="1">  1       -4 0.32751156E-02 0.12499848E+03</pdfrwt>
<totfact> 0.89339062E+03</totfact>
</mgrwt>
</event>
<event>
 5    1  0.3269032E-002  0.1250033E+03  0.7818608E-02  0.1235064E+00
         -4   -1    0    0    0  501 -0.00000000000E+00  0.00000000000E+00  0.40425951792E+02  0.40445895692E+02  0.12700000000E+01 0.  1.
          4   -1    0    0  501    0  0.00000000000E+00 -0.00000000000E+00 -0.96584509802E+02  0.96592859124E+02  0.12700000000E+01 0.  1.
         25    2    1    2    0    0  0.00000000000E+00  0.00000000000E+00 -0.56158558010E+02  0.13703875482E+03  0.12500334669E+03 0.  0.
    9000005    1    3    3    0    0  0.43602914896E+02 -0.38723935090E+02 -0.34507085062E+01  0.58426575507E+02  0.10000000000E+01 0.  0.
    9000005    1    3    3    0    0 -0.43602914896E+02  0.38723935090E+02 -0.52707849504E+02  0.78612179309E+02  0.10000000000E+01 0.  0.
<mgrwt>
<rscale>  0 0.12500335E+03</rscale>
<asrwt>0</asrwt>
<pdfrwt beam="2">  1        4 0.14861332E-01 0.12500335E+03</pdfrwt>
<pdfrwt beam="1">  1       -4 0.62215536E-02 0.12500335E+03</pdfrwt>
<totfact> 0.10194506E+04</totfact>
</mgrwt>
</event>
<event>
 5    1  0.3269032E-002  0.1249955E+03  0.7818608E-02  0.1235076E+00
          4   -1    0    0  501    0  0.00000000000E+00  0.00000000000E+00  0.12692656027E+02  0.12756034534E+02  0.12700000000E+01 0.  1.
         -4   -1    0    0    0  501 -0.00000000000E+00 -0.00000000000E+00 -0.30690329708E+03  0.30690592477E+03  0.12700000000E+01 0.  1.
         25    2    1    2    0    0  0.00000000000E+00  0.00000000000E+00 -0.29421064105E+03  0.31966195930E+03  0.12499546758E+03 0.  0.
    9000005    1    3    3    0    0  0.14717870500E+02  0.51317612852E+02 -0.64045155037E+02  0.83384021158E+02  0.10000000000E+01 0.  0.
    9000005    1    3    3    0    0 -0.14717870500E+02 -0.51317612852E+02 -0.23016548601E+03  0.23627793814E+03  0.10000000000E+01 0.  0.
<mgrwt>
<rscale>  0 0.12499547E+03</rscale>
<asrwt>0</asrwt>
<pdfrwt beam="1">  1        4 0.19577939E-02 0.12499547E+03</pdfrwt>
<pdfrwt beam="2">  1       -4 0.47220964E-01 0.12499547E+03</pdfrwt>
<totfact> 0.73203706E+03</totfact>
</mgrwt>
</event>
<event>
 5    1  0.3269032E-002  0.1249991E+03  0.7818608E-02  0.1235071E+00
         -4   -1    0    0    0  501 -0.00000000000E+00  0.00000000000E+00  0.28684080024E+02  0.28712181157E+02  0.12700000000E+01 0. -1.
          4   -1    0    0  501    0  0.00000000000E+00 -0.00000000000E+00 -0.13608221099E+03  0.13608813706E+03  0.12700000000E+01 0. -1.
         25    2    1    2    0    0  0.00000000000E+00  0.00000000000E+00 -0.10739813097E+03  0.16480031822E+03  0.12499914539E+03 0.  0.
    9000005    1    3    3    0    0 -0.51511774327E+02 -0.29846297340E+02 -0.78746533651E+02  0.98723254207E+02  0.10000000000E+01 0.  0.
    9000005    1    3    3    0    0  0.51511774327E+02  0.29846297340E+02 -0.28651597317E+02  0.66077064009E+02  0.10000000000E+01 0.  0.
<mgrwt>
<rscale>  0 0.12499915E+03</rscale>
<asrwt>0</asrwt>
<pdfrwt beam="2">  1        4 0.20938342E-01 0.12499915E+03</pdfrwt>
<pdfrwt beam="1">  1       -4 0.44155529E-02 0.12499915E+03</pdfrwt>
<totfact> 0.96427074E+03</totfact>
</mgrwt>
</event>
<event>
 5    1  0.3269032E-002  0.1250047E+03  0.7818608E-02  0.1235062E+00
          4   -1    0    0  501    0  0.00000000000E+00  0.00000000000E+00  0.31566901001E+03  0.31567156473E+03  0.12700000000E+01 0.  1.
         -4   -1    0    0    0  501 -0.00000000000E+00 -0.00000000000E+00 -0.12340254094E+02  0.12405433129E+02  0.12700000000E+01 0.  1.
         25    2    1    2    0    0  0.00000000000E+00  0.00000000000E+00  0.30332875592E+03  0.32807699786E+03  0.12500472935E+03 0.  0.
    9000005    1    3    3    0    0 -0.33648204408E+02 -0.38396968349E+02  0.57071875732E+02  0.76581511071E+02  0.10000000000E+01 0.  0.
    9000005    1    3    3    0    0  0.33648204408E+02  0.38396968349E+02  0.24625688019E+03  0.25149548679E+03  0.10000000000E+01 0.  0.
<mgrwt>
<rscale>  0 0.12500473E+03</rscale>
<asrwt>0</asrwt>
<pdfrwt beam="1">  1        4 0.48569678E-01 0.12500473E+03</pdfrwt>
<pdfrwt beam="2">  1       -4 0.19037108E-02 0.12500473E+03</pdfrwt>
<totfact> 0.72198090E+03</totfact>
</mgrwt>
</event>
<event>
 5    1  0.3269032E-002  0.1249984E+03  0.7818608E-02  0.1235072E+00
         -4   -1    0    0    0  501 -0.00000000000E+00  0.00000000000E+00  0.18848737707E+04  0.18848741986E+04  0.12700000000E+01 0. -1.
          4   -1    0    0  501    0  0.00000000000E+00 -0.00000000000E+00 -0.18773245642E+01  0.22665496949E+01  0.12700000000E+01 0. -1.
         25    2    1    2    0    0  0.00000000000E+00  0.00000000000E+00  0.18829964462E+04  0.18871407483E+04  0.12499835015E+03 0.  0.
    9000005    1    3    3    0    0  0.42832450820E+02 -0.33912350916E+02  0.48345410868E+03  0.48653215884E+03  0.10000000000E+01 0.  0.
    9000005    1    3    3    0    0 -0.42832450820E+02  0.33912350916E+02  0.13995423375E+04  0.14006085894E+04  0.10000000000E+01 0.  0.
<mgrwt>
<rscale>  0 0.12499835E+03</rscale>
<asrwt>0</asrwt>
<pdfrwt beam="2">  1        4 0.31879367E-03 0.12499835E+03</pdfrwt>
<pdfrwt beam="1">  1       -4 0.29000946E+00 0.12499835E+03</pdfrwt>
<totfact> 0.11407634E+03</totfact>
</mgrwt>
</event>
<event>
 5    1  0.3269032E-002  0.1249956E+03  0.7818608E-02  0.1235076E+00
          4   -1    0    0  501    0  0.00000000000E+00  0.00000000000E+00  0.50046969840E+02  0.50063081110E+02  0.12700000000E+01 0. -1.
         -4   -1    0    0    0  501 -0.00000000000E+00 -0.00000000000E+00 -0.78012324019E+02  0.78022660804E+02  0.12700000000E+01 0. -1.
         25    2    1    2    0    0  0.00000000000E+00  0.00000000000E+00 -0.27965354179E+02  0.12808574191E+03  0.12499558491E+03 0.  0.
    9000005    1    3    3    0    0  0.45103496533E+02  0.39076046213E+01  0.30156320623E+02  0.54405867761E+02  0.10000000000E+01 0.  0.
    9000005    1    3    3    0    0 -0.45103496533E+02 -0.39076046213E+01 -0.58121674801E+02  0.73679874152E+02  0.10000000000E+01 0.  0.
<mgrwt>
<rscale>  0 0.12499558E+03</rscale>
<asrwt>0</asrwt>
<pdfrwt beam="1">  1        4 0.77015683E-02 0.12499558E+03</pdfrwt>
<pdfrwt beam="2">  1       -4 0.12003930E-01 0.12499558E+03</pdfrwt>
<totfact> 0.10386671E+04</totfact>
</mgrwt>
</event>
<event>
 5    1  0.3269032E-002  0.1250026E+03  0.7818608E-02  0.1235065E+00
         -4   -1    0    0    0  501 -0.00000000000E+00  0.00000000000E+00  0.16506626835E+02  0.16555410882E+02  0.12700000000E+01 0.  1.
          4   -1    0    0  501    0  0.00000000000E+00 -0.00000000000E+00 -0.23625750486E+03  0.23626091827E+03  0.12700000000E+01 0.  1.
         25    2    1    2    0    0  0.00000000000E+00  0.00000000000E+00 -0.21975087802E+03  0.25281632915E+03  0.12500259155E+03 0.  0.
    9000005    1    3    3    0    0  0.15146465156E+02  0.49834748465E+02 -0.40033822836E+02  0.65701023829E+02  0.10000000000E+01 0.  0.
    9000005    1    3    3    0    0 -0.15146465156E+02 -0.49834748465E+02 -0.17971705518E+03  0.18711530532E+03  0.10000000000E+01 0.  0.
<mgrwt>
<rscale>  0 0.12500259E+03</rscale>
<asrwt>0</asrwt>
<pdfrwt beam="2">  1        4 0.36351321E-01 0.12500259E+03</pdfrwt>
<pdfrwt beam="1">  1       -4 0.25434964E-02 0.12500259E+03</pdfrwt>
<totfact> 0.81920150E+03</totfact>
</mgrwt>
</event>
<event>
 5    1  0.3269032E-002  0.1249949E+03  0.7818608E-02  0.1235077E+00
         -4   -1    0    0    0  501 -0.00000000000E+00  0.00000000000E+00  0.67931932940E+02  0.67943803345E+02  0.12700000000E+01 0.  1.
          4   -1    0    0  501    0  0.00000000000E+00 -0.00000000000E+00 -0.57473767804E+02  0.57487797710E+02  0.12700000000E+01 0.  1.
         25    2    1    2    0    0  0.00000000000E+00  0.00000000000E+00  0.10458165137E+02  0.12543160106E+03  0.12499485320E+03 0.  0.
    9000005    1    3    3    0    0  0.52017148116E+02 -0.25429422950E+02  0.28816298613E+02  0.64682442095E+02  0.10000000000E+01 0.  0.
    9000005    1    3    3    0    0 -0.52017148116E+02  0.25429422950E+02 -0.18358133477E+02  0.60749158960E+02  0.10000000000E+01 0.  0.
<mgrwt>
<rscale>  0 0.12499485E+03</rscale>
<asrwt>0</asrwt>
<pdfrwt beam="2">  1        4 0.88441105E-02 0.12499485E+03</pdfrwt>
<pdfrwt beam="1">  1       -4 0.10453059E-01 0.12499485E+03</pdfrwt>
<totfact> 0.10444679E+04</totfact>
</mgrwt>
</event>
<event>
 5    1  0.3269032E-002  0.1250045E+03  0.7818608E-02  0.1235062E+00
         -4   -1    0    0    0  501 -0.00000000000E+00  0.00000000000E+00  0.66429991288E+01  0.67633081717E+01  0.12700000000E+01 0. -1.
          4   -1    0    0  501    0  0.00000000000E+00 -0.00000000000E+00 -0.58266931854E+03  0.58267070260E+03  0.12700000000E+01 0. -1.
         25    2    1    2    0    0  0.00000000000E+00  0.00000000000E+00 -0.57602631941E+03  0.58943401077E+03  0.12500452952E+03 0.  0.
    9000005    1    3    3    0    0 -0.32506586236E+02  0.30610191590E+01 -0.53927656394E+03  0.54026499091E+03  0.10000000000E+01 0.  0.
    9000005    1    3    3    0    0  0.32506586236E+02 -0.30610191590E+01 -0.36749755470E+02  0.49169019861E+02  0.10000000000E+01 0.  0.
<mgrwt>
<rscale>  0 0.12500453E+03</rscale>
<asrwt>0</asrwt>
<pdfrwt beam="2">  1        4 0.89650755E-01 0.12500453E+03</pdfrwt>
<pdfrwt beam="1">  1       -4 0.10313613E-02 0.12500453E+03</pdfrwt>
<totfact> 0.49536526E+03</totfact>
</mgrwt>
</event>
<event>
 5    1  0.3269032E-002  0.1250000E+03  0.7818608E-02  0.1235069E+00
         -4   -1    0    0    0  501 -0.00000000000E+00  0.00000000000E+00  0.16683845963E+02  0.16732113319E+02  0.12700000000E+01 0.  1.
          4   -1    0    0  501    0  0.00000000000E+00 -0.00000000000E+00 -0.23374537404E+03  0.23374882414E+03  0.12700000000E+01 0.  1.
         25    2    1    2    0    0  0.00000000000E+00  0.00000000000E+00 -0.21706152808E+03  0.25048093746E+03  0.12499997223E+03 0.  0.
    9000005    1    3    3    0    0 -0.57460507485E+01 -0.54655299798E+02 -0.16814412460E+03  0.17690015696E+03  0.10000000000E+01 0.  0.
    9000005    1    3    3    0    0  0.57460507485E+01  0.54655299798E+02 -0.48917403478E+02  0.73580780495E+02  0.10000000000E+01 0.  0.
<mgrwt>
<rscale>  0 0.12499997E+03</rscale>
<asrwt>0</asrwt>
<pdfrwt beam="2">  1        4 0.35964803E-01 0.12499997E+03</pdfrwt>
<pdfrwt beam="1">  1       -4 0.25707240E-02 0.12499997E+03</pdfrwt>
<totfact> 0.82260819E+03</totfact>
</mgrwt>
</event>
<event>
 5    1  0.3269032E-002  0.1250604E+03  0.7818608E-02  0.1234975E+00
         -4   -1    0    0    0  501 -0.00000000000E+00  0.00000000000E+00  0.38445998112E+02  0.38466968568E+02  0.12700000000E+01 0.  1.
          4   -1    0    0  501    0  0.00000000000E+00 -0.00000000000E+00 -0.10164909693E+03  0.10165703029E+03  0.12700000000E+01 0.  1.
         25    2    1    2    0    0  0.00000000000E+00  0.00000000000E+00 -0.63203098818E+02  0.14012399885E+03  0.12506039883E+03 0.  0.
    9000005    1    3    3    0    0  0.19433074335E+01  0.22255428985E+02 -0.97029967172E+02  0.99573566234E+02  0.10000000000E+01 0.  0.
    9000005    1    3    3    0    0 -0.19433074335E+01 -0.22255428985E+02  0.33826868354E+02  0.40550432621E+02  0.10000000000E+01 0.  0.
<mgrwt>
<rscale>  0 0.12506040E+03</rscale>
<asrwt>0</asrwt>
<pdfrwt beam="2">  1        4 0.15640546E-01 0.12506040E+03</pdfrwt>
<pdfrwt beam="1">  1       -4 0.59169924E-02 0.12506040E+03</pdfrwt>
<totfact> 0.10117243E+04</totfact>
</mgrwt>
</event>
<event>
 5    1  0.3269032E-002  0.1249994E+03  0.7818608E-02  0.1235070E+00
          4   -1    0    0  501    0  0.00000000000E+00  0.00000000000E+00  0.25088096258E+02  0.25120220418E+02  0.12700000000E+01 0. -1.
         -4   -1    0    0    0  501 -0.00000000000E+00 -0.00000000000E+00 -0.15556559724E+03  0.15557078114E+03  0.12700000000E+01 0. -1.
         25    2    1    2    0    0  0.00000000000E+00  0.00000000000E+00 -0.13047750098E+03  0.18069100156E+03  0.12499943913E+03 0.  0.
    9000005    1    3    3    0    0 -0.47802525359E+01 -0.43320855584E+02 -0.12997655109E+03  0.13709285603E+03  0.10000000000E+01 0.  0.
    9000005    1    3    3    0    0  0.47802525359E+01  0.43320855584E+02 -0.50094989864E+00  0.43598145530E+02  0.10000000000E+01 0.  0.
<mgrwt>
<rscale>  0 0.12499944E+03</rscale>
<asrwt>0</asrwt>
<pdfrwt beam="1">  1        4 0.38625771E-02 0.12499944E+03</pdfrwt>
<pdfrwt beam="2">  1       -4 0.23936038E-01 0.12499944E+03</pdfrwt>
<totfact> 0.93493944E+03</totfact>
</mgrwt>
</event>
<event>
 5    1  0.3269032E-002  0.1249975E+03  0.7818608E-02  0.1235073E+00
          4   -1    0    0  501    0  0.00000000000E+00  0.00000000000E+00  0.26860136338E+02  0.26890143623E+02  0.12700000000E+01 0. -1.
         -4   -1    0    0    0  501 -0.00000000000E+00 -0.00000000000E+00 -0.14530948791E+03  0.14531503768E+03  0.12700000000E+01 0. -1.
         25    2    1    2    0    0  0.00000000000E+00  0.00000000000E+00 -0.11844935157E+03  0.17220518130E+03  0.12499750230E+03 0.  0.
    9000005    1    3    3    0    0  0.16467243776E+02  0.33593617800E+01  0.23694958210E+02  0.29067274962E+02  0.10000000000E+01 0.  0.
    9000005    1    3    3    0    0 -0.16467243776E+02 -0.33593617800E+01 -0.14214430978E+03  0.14313790634E+03  0.10000000000E+01 0.  0.
<mgrwt>
<rscale>  0 0.12499750E+03</rscale>
<asrwt>0</asrwt>
<pdfrwt beam="1">  1        4 0.41350639E-02 0.12499750E+03</pdfrwt>
<pdfrwt beam="2">  1       -4 0.22358041E-01 0.12499750E+03</pdfrwt>
<totfact> 0.95044539E+03</totfact>
</mgrwt>
</event>
<event>
 5    1  0.3269032E-002  0.1250030E+03  0.7818608E-02  0.1235065E+00
         -4   -1    0    0    0  501 -0.00000000000E+00  0.00000000000E+00  0.78518442171E+02  0.78528712335E+02  0.12700000000E+01 0.  1.
          4   -1    0    0  501    0  0.00000000000E+00 -0.00000000000E+00 -0.49730245515E+02  0.49746459361E+02  0.12700000000E+01 0.  1.
         25    2    1    2    0    0  0.00000000000E+00  0.00000000000E+00  0.28788196656E+02  0.12827517170E+03  0.12500303759E+03 0.  0.
    9000005    1    3    3    0    0  0.82823863292E+01 -0.86817509426E+01 -0.48542141050E+02  0.50013100088E+02  0.10000000000E+01 0.  0.
    9000005    1    3    3    0    0 -0.82823863292E+01  0.86817509426E+01  0.77330337706E+02  0.78262071608E+02  0.10000000000E+01 0.  0.
<mgrwt>
<rscale>  0 0.12500304E+03</rscale>
<asrwt>0</asrwt>
<pdfrwt beam="2">  1        4 0.76528442E-02 0.12500304E+03</pdfrwt>
<pdfrwt beam="1">  1       -4 0.12081798E-01 0.12500304E+03</pdfrwt>
<totfact> 0.10380837E+04</totfact>
</mgrwt>
</event>
<event>
 5    1  0.3269032E-002  0.1250091E+03  0.7818608E-02  0.1235055E+00
          4   -1    0    0  501    0  0.00000000000E+00  0.00000000000E+00  0.10272528469E+03  0.10273313494E+03  0.12700000000E+01 0.  1.
         -4   -1    0    0    0  501 -0.00000000000E+00 -0.00000000000E+00 -0.38011782515E+02  0.38032992388E+02  0.12700000000E+01 0.  1.
         25    2    1    2    0    0  0.00000000000E+00  0.00000000000E+00  0.64713502174E+02  0.14076612733E+03  0.12500906063E+03 0.  0.
    9000005    1    3    3    0    0 -0.16117569097E+02 -0.55606937272E+02  0.58858577486E+02  0.82566577076E+02  0.10000000000E+01 0.  0.
    9000005    1    3    3    0    0  0.16117569097E+02  0.55606937272E+02  0.58549246876E+01  0.58199550251E+02  0.10000000000E+01 0.  0.
<mgrwt>
<rscale>  0 0.12500906E+03</rscale>
<asrwt>0</asrwt>
<pdfrwt beam="1">  1        4 0.15806125E-01 0.12500906E+03</pdfrwt>
<pdfrwt beam="2">  1       -4 0.58502020E-02 0.12500906E+03</pdfrwt>
<totfact> 0.10115667E+04</totfact>
</mgrwt>
</event>
<event>
 5    1  0.3269032E-002  0.1250013E+03  0.7818608E-02  0.1235067E+00
         -4   -1    0    0    0  501 -0.00000000000E+00  0.00000000000E+00  0.26452478035E+03  0.26452782901E+03  0.12700000000E+01 0. -1.
          4   -1    0    0  501    0  0.00000000000E+00 -0.00000000000E+00 -0.14736918585E+02  0.14791540467E+02  0.12700000000E+01 0. -1.
         25    2    1    2    0    0  0.00000000000E+00  0.00000000000E+00  0.24978786177E+03  0.27931936948E+03  0.12500133711E+03 0.  0.
    9000005    1    3    3    0    0 -0.58675413476E+01 -0.22723587831E+00  0.26391793217E+03  0.26398514087E+03  0.10000000000E+01 0.  0.
    9000005    1    3    3    0    0  0.58675413476E+01  0.22723587831E+00 -0.14130070400E+02  0.15334228612E+02  0.10000000000E+01 0.  0.
<mgrwt>
<rscale>  0 0.12500134E+03</rscale>
<asrwt>0</asrwt>
<pdfrwt beam="2">  1        4 0.22716545E-02 0.12500134E+03</pdfrwt>
<pdfrwt beam="1">  1       -4 0.40700556E-01 0.12500134E+03</pdfrwt>
<totfact> 0.78266111E+03</totfact>
</mgrwt>
</event>
<event>
 5    1  0.3269032E-002  0.1249965E+03  0.7818608E-02  0.1235075E+00
         -4   -1    0    0    0  501 -0.00000000000E+00  0.00000000000E+00  0.18345815574E+03  0.18346255152E+03  0.12700000000E+01 0. -1.
          4   -1    0    0  501    0  0.00000000000E+00 -0.00000000000E+00 -0.21267542470E+02  0.21305428010E+02  0.12700000000E+01 0. -1.
         25    2    1    2    0    0  0.00000000000E+00  0.00000000000E+00  0.16219061327E+03  0.20476797953E+03  0.12499652157E+03 0.  0.
    9000005    1    3    3    0    0  0.29717580627E+02 -0.95323877964E+01  0.16978524780E+03  0.17263264867E+03  0.10000000000E+01 0.  0.
    9000005    1    3    3    0    0 -0.29717580627E+02  0.95323877964E+01 -0.75946345314E+01  0.32135330854E+02  0.10000000000E+01 0.  0.
<mgrwt>
<rscale>  0 0.12499652E+03</rscale>
<asrwt>0</asrwt>
<pdfrwt beam="2">  1        4 0.32751821E-02 0.12499652E+03</pdfrwt>
<pdfrwt beam="1">  1       -4 0.28227583E-01 0.12499652E+03</pdfrwt>
<totfact> 0.89344482E+03</totfact>
</mgrwt>
</event>
<event>
 5    1  0.3269032E-002  0.1250038E+03  0.7818608E-02  0.1235063E+00
          4   -1    0    0  501    0  0.00000000000E+00  0.00000000000E+00  0.11902259619E+02  0.11969823894E+02  0.12700000000E+01 0.  1.
         -4   -1    0    0    0  501 -0.00000000000E+00 -0.00000000000E+00 -0.32721600010E+03  0.32721846468E+03  0.12700000000E+01 0.  1.
         25    2    1    2    0    0  0.00000000000E+00  0.00000000000E+00 -0.31531374049E+03  0.33918828857E+03  0.12500376060E+03 0.  0.
    9000005    1    3    3    0    0  0.56452847547E+02 -0.10283447623E+02 -0.90485947874E+02  0.10715120183E+03  0.10000000000E+01 0.  0.
    9000005    1    3    3    0    0 -0.56452847547E+02  0.10283447623E+02 -0.22482779261E+03  0.23203708674E+03  0.10000000000E+01 0.  0.
<mgrwt>
<rscale>  0 0.12500376E+03</rscale>
<asrwt>0</asrwt>
<pdfrwt beam="1">  1        4 0.18365039E-02 0.12500376E+03</pdfrwt>
<pdfrwt beam="2">  1       -4 0.50346303E-01 0.12500376E+03</pdfrwt>
<totfact> 0.70924682E+03</totfact>
</mgrwt>
</event>
<event>
 5    1  0.3269032E-002  0.1250020E+03  0.7818608E-02  0.1235066E+00
         -4   -1    0    0    0  501 -0.00000000000E+00  0.00000000000E+00  0.39820343525E+03  0.39820546046E+03  0.12700000000E+01 0. -1.
          4   -1    0    0  501    0  0.00000000000E+00 -0.00000000000E+00 -0.97668291378E+01  0.98490533255E+01  0.12700000000E+01 0. -1.
         25    2    1    2    0    0  0.00000000000E+00  0.00000000000E+00  0.38843660611E+03  0.40805451379E+03  0.12500195701E+03 0.  0.
    9000005    1    3    3    0    0 -0.19029302038E+02 -0.45088040798E+02  0.32108183645E+03  0.32479161236E+03  0.10000000000E+01 0.  0.
    9000005    1    3    3    0    0  0.19029302038E+02  0.45088040798E+02  0.67354769660E+02  0.83262901432E+02  0.10000000000E+01 0.  0.
<mgrwt>
<rscale>  0 0.12500196E+03</rscale>
<asrwt>0</asrwt>
<pdfrwt beam="2">  1        4 0.15090695E-02 0.12500196E+03</pdfrwt>
<pdfrwt beam="1">  1       -4 0.61268561E-01 0.12500196E+03</pdfrwt>
<totfact> 0.63774119E+03</totfact>
</mgrwt>
</event>
<event>
 5    1  0.3269032E-002  0.1249859E+03  0.7818608E-02  0.1235091E+00
         -4   -1    0    0    0  501 -0.00000000000E+00  0.00000000000E+00  0.12877398961E+02  0.12939872642E+02  0.12700000000E+01 0.  1.
          4   -1    0    0  501    0  0.00000000000E+00 -0.00000000000E+00 -0.30247545280E+03  0.30247811895E+03  0.12700000000E+01 0.  1.
         25    2    1    2    0    0  0.00000000000E+00  0.00000000000E+00 -0.28959805384E+03  0.31541799160E+03  0.12498590575E+03 0.  0.
    9000005    1    3    3    0    0 -0.58068618281E+02  0.22772325932E+02 -0.13541536938E+03  0.14909347913E+03  0.10000000000E+01 0.  0.
    9000005    1    3    3    0    0  0.58068618281E+02 -0.22772325932E+02 -0.15418268446E+03  0.16632451246E+03  0.10000000000E+01 0.  0.
<mgrwt>
<rscale>  0 0.12498591E+03</rscale>
<asrwt>0</asrwt>
<pdfrwt beam="2">  1        4 0.46539691E-01 0.12498591E+03</pdfrwt>
<pdfrwt beam="1">  1       -4 0.19861493E-02 0.12498591E+03</pdfrwt>
<totfact> 0.73727469E+03</totfact>
</mgrwt>
</event>
<event>
 5    1  0.3269032E-002  0.1250004E+03  0.7818608E-02  0.1235069E+00
          4   -1    0    0  501    0  0.00000000000E+00  0.00000000000E+00  0.50823550515E+02  0.50839415682E+02  0.12700000000E+01 0.  1.
         -4   -1    0    0    0  501 -0.00000000000E+00 -0.00000000000E+00 -0.76826477778E+02  0.76836974093E+02  0.12700000000E+01 0.  1.
         25    2    1    2    0    0  0.00000000000E+00  0.00000000000E+00 -0.26002927264E+02  0.12767638978E+03  0.12500043312E+03 0.  0.
    9000005    1    3    3    0    0 -0.18564532480E+01 -0.50015685590E+02  0.25219682308E+02  0.56053970416E+02  0.10000000000E+01 0.  0.
    9000005    1    3    3    0    0  0.18564532480E+01  0.50015685590E+02 -0.51222609571E+02  0.71622419360E+02  0.10000000000E+01 0.  0.
<mgrwt>
<rscale>  0 0.12500043E+03</rscale>
<asrwt>0</asrwt>
<pdfrwt beam="1">  1        4 0.78210356E-02 0.12500043E+03</pdfrwt>
<pdfrwt beam="2">  1       -4 0.11821486E-01 0.12500043E+03</pdfrwt>
<totfact> 0.10394381E+04</totfact>
</mgrwt>
</event>
<event>
 5    1  0.3269032E-002  0.1250014E+03  0.7818608E-02  0.1235067E+00
          4   -1    0    0  501    0  0.00000000000E+00  0.00000000000E+00  0.27391408523E+01  0.30192370905E+01  0.12700000000E+01 0. -1.
         -4   -1    0    0    0  501 -0.00000000000E+00 -0.00000000000E+00 -0.13564698885E+04  0.13564704830E+04  0.12700000000E+01 0. -1.
         25    2    1    2    0    0  0.00000000000E+00  0.00000000000E+00 -0.13537307477E+04  0.13594897201E+04  0.12500144784E+03 0.  0.
    9000005    1    3    3    0    0 -0.61399817589E+02 -0.99739978437E+01 -0.61168112040E+03  0.61483673547E+03  0.10000000000E+01 0.  0.
    9000005    1    3    3    0    0  0.61399817589E+02  0.99739978437E+01 -0.74204962725E+03  0.74465298464E+03  0.10000000000E+01 0.  0.
<mgrwt>
<rscale>  0 0.12500145E+03</rscale>
<asrwt>0</asrwt>
<pdfrwt beam="1">  1        4 0.44299896E-03 0.12500145E+03</pdfrwt>
<pdfrwt beam="2">  1       -4 0.20870876E+00 0.12500145E+03</pdfrwt>
<totfact> 0.20865813E+03</totfact>
</mgrwt>
</event>
<event>
 5    1  0.3269032E-002  0.1250050E+03  0.7818608E-02  0.1235061E+00
          4   -1    0    0  501    0  0.00000000000E+00  0.00000000000E+00  0.16392363547E+03  0.16392855506E+03  0.12700000000E+01 0.  1.
         -4   -1    0    0    0  501 -0.00000000000E+00 -0.00000000000E+00 -0.23809407397E+02  0.23843254405E+02  0.12700000000E+01 0.  1.
         25    2    1    2    0    0  0.00000000000E+00  0.00000000000E+00  0.14011422807E+03  0.18777180947E+03  0.12500502199E+03 0.  0.
    9000005    1    3    3    0    0 -0.45919254954E+02  0.27603194179E+02  0.11838340969E+03  0.12994670444E+03  0.10000000000E+01 0.  0.
    9000005    1    3    3    0    0  0.45919254954E+02 -0.27603194179E+02  0.21730818383E+02  0.57825105032E+02  0.10000000000E+01 0.  0.
<mgrwt>
<rscale>  0 0.12500502E+03</rscale>
<asrwt>0</asrwt>
<pdfrwt beam="1">  1        4 0.25222003E-01 0.12500502E+03</pdfrwt>
<pdfrwt beam="2">  1       -4 0.36659678E-02 0.12500502E+03</pdfrwt>
<totfact> 0.92226086E+03</totfact>
</mgrwt>
</event>
<event>
 5    1  0.3269032E-002  0.1249970E+03  0.7818608E-02  0.1235074E+00
          4   -1    0    0  501    0  0.00000000000E+00  0.00000000000E+00  0.50447676485E+01  0.52021707610E+01  0.12700000000E+01 0.  1.
         -4   -1    0    0    0  501 -0.00000000000E+00 -0.00000000000E+00 -0.76222865015E+03  0.76222970817E+03  0.12700000000E+01 0.  1.
         25    2    1    2    0    0  0.00000000000E+00  0.00000000000E+00 -0.75718388251E+03  0.76743187893E+03  0.12499702745E+03 0.  0.
    9000005    1    3    3    0    0  0.26541787790E+02 -0.54892859613E+02 -0.46263311876E+03  0.46663486272E+03  0.10000000000E+01 0.  0.
    9000005    1    3    3    0    0 -0.26541787790E+02  0.54892859613E+02 -0.29455076375E+03  0.30079701621E+03  0.10000000000E+01 0.  0.
<mgrwt>
<rscale>  0 0.12499703E+03</rscale>
<asrwt>0</asrwt>
<pdfrwt beam="1">  1        4 0.78830802E-03 0.12499703E+03</pdfrwt>
<pdfrwt beam="2">  1       -4 0.11727805E+00 0.12499703E+03</pdfrwt>
<totfact> 0.39756532E+03</totfact>
</mgrwt>
</event>
<event>
 5    1  0.3269032E-002  0.1249964E+03  0.7818608E-02  0.1235075E+00
         -4   -1    0    0    0  501 -0.00000000000E+00  0.00000000000E+00  0.28781372112E+03  0.28781652310E+03  0.12700000000E+01 0.  1.
          4   -1    0    0  501    0  0.00000000000E+00 -0.00000000000E+00 -0.13538789321E+02  0.13598224748E+02  0.12700000000E+01 0.  1.
         25    2    1    2    0    0  0.00000000000E+00  0.00000000000E+00  0.27427493180E+03  0.30141474784E+03  0.12499644796E+03 0.  0.
    9000005    1    3    3    0    0 -0.23047689394E+02  0.25960496622E+02  0.26243410719E+03  0.26472212599E+03  0.10000000000E+01 0.  0.
    9000005    1    3    3    0    0  0.23047689394E+02 -0.25960496622E+02  0.11840824615E+02  0.36692621858E+02  0.10000000000E+01 0.  0.
<mgrwt>
<rscale>  0 0.12499645E+03</rscale>
<asrwt>0</asrwt>
<pdfrwt beam="2">  1        4 0.20876781E-02 0.12499645E+03</pdfrwt>
<pdfrwt beam="1">  1       -4 0.44283822E-01 0.12499645E+03</pdfrwt>
<totfact> 0.75427662E+03</totfact>
</mgrwt>
</event>
<event>
 5    1  0.3269032E-002  0.1249963E+03  0.7818608E-02  0.1235075E+00
          4   -1    0    0  501    0  0.00000000000E+00  0.00000000000E+00  0.17865176269E+02  0.17910260275E+02  0.12700000000E+01 0. -1.
         -4   -1    0    0    0  501 -0.00000000000E+00 -0.00000000000E+00 -0.21831609344E+03  0.21831978736E+03  0.12700000000E+01 0. -1.
         25    2    1    2    0    0  0.00000000000E+00  0.00000000000E+00 -0.20045091717E+03  0.23623004764E+03  0.12499626080E+03 0.  0.
    9000005    1    3    3    0    0  0.49637671655E+02 -0.35195352835E+02 -0.12711285367E+03  0.14093008506E+03  0.10000000000E+01 0.  0.
    9000005    1    3    3    0    0 -0.49637671655E+02  0.35195352835E+02 -0.73338063500E+02  0.95299962573E+02  0.10000000000E+01 0.  0.
<mgrwt>
<rscale>  0 0.12499626E+03</rscale>
<asrwt>0</asrwt>
<pdfrwt beam="1">  1        4 0.27522410E-02 0.12499626E+03</pdfrwt>
<pdfrwt beam="2">  1       -4 0.33590842E-01 0.12499626E+03</pdfrwt>
<totfact> 0.84369094E+03</totfact>
</mgrwt>
</event>
<event>
 5    1  0.3269032E-002  0.1250085E+03  0.7818608E-02  0.1235056E+00
          4   -1    0    0  501    0  0.00000000000E+00  0.00000000000E+00  0.18147357984E+02  0.18191742681E+02  0.12700000000E+01 0. -1.
         -4   -1    0    0    0  501 -0.00000000000E+00 -0.00000000000E+00 -0.21497170707E+03  0.21497545846E+03  0.12700000000E+01 0. -1.
         25    2    1    2    0    0  0.00000000000E+00  0.00000000000E+00 -0.19682434908E+03  0.23316720114E+03  0.12500847689E+03 0.  0.
    9000005    1    3    3    0    0  0.24057514823E+02  0.34182370181E+02 -0.11753466822E+02  0.43432043850E+02  0.10000000000E+01 0.  0.
    9000005    1    3    3    0    0 -0.24057514823E+02 -0.34182370181E+02 -0.18507088226E+03  0.18973515729E+03  0.10000000000E+01 0.  0.
<mgrwt>
<rscale>  0 0.12500848E+03</rscale>
<asrwt>0</asrwt>
<pdfrwt beam="1">  1        4 0.27956042E-02 0.12500848E+03</pdfrwt>
<pdfrwt beam="2">  1       -4 0.33076271E-01 0.12500848E+03</pdfrwt>
<totfact> 0.84809595E+03</totfact>
</mgrwt>
</event>
<event>
 5    1  0.3269032E-002  0.1249985E+03  0.7818608E-02  0.1235072E+00
          4   -1    0    0  501    0  0.00000000000E+00  0.00000000000E+00  0.12275075826E+02  0.12340599116E+02  0.12700000000E+01 0. -1.
         -4   -1    0    0    0  501 -0.00000000000E+00 -0.00000000000E+00 -0.31730463566E+03  0.31730717721E+03  0.12700000000E+01 0. -1.
         25    2    1    2    0    0  0.00000000000E+00  0.00000000000E+00 -0.30502955983E+03  0.32964777633E+03  0.12499849626E+03 0.  0.
    9000005    1    3    3    0    0 -0.57667502280E+02 -0.35237243329E+01 -0.21532248476E+03  0.22294109064E+03  0.10000000000E+01 0.  0.
    9000005    1    3    3    0    0  0.57667502280E+02  0.35237243329E+01 -0.89707075068E+02  0.10670668568E+03  0.10000000000E+01 0.  0.
<mgrwt>
<rscale>  0 0.12499850E+03</rscale>
<asrwt>0</asrwt>
<pdfrwt beam="1">  1        4 0.18937092E-02 0.12499850E+03</pdfrwt>
<pdfrwt beam="2">  1       -4 0.48821327E-01 0.12499850E+03</pdfrwt>
<totfact> 0.72025557E+03</totfact>
</mgrwt>
</event>
<event>
 5    1  0.3269032E-002  0.1250009E+03  0.7818608E-02  0.1235068E+00
          4   -1    0    0  501    0  0.00000000000E+00  0.00000000000E+00  0.72318305551E+02  0.72329456087E+02  0.12700000000E+01 0. -1.
         -4   -1    0    0    0  501 -0.00000000000E+00 -0.00000000000E+00 -0.53992680626E+02  0.54007614844E+02  0.12700000000E+01 0. -1.
         25    2    1    2    0    0  0.00000000000E+00  0.00000000000E+00  0.18325624926E+02  0.12633707093E+03  0.12500090785E+03 0.  0.
    9000005    1    3    3    0    0 -0.57868464113E+02 -0.13886774660E+02  0.28437721042E+02  0.65964426984E+02  0.10000000000E+01 0.  0.
    9000005    1    3    3    0    0  0.57868464113E+02  0.13886774660E+02 -0.10112096117E+02  0.60372643947E+02  0.10000000000E+01 0.  0.
<mgrwt>
<rscale>  0 0.12500091E+03</rscale>
<asrwt>0</asrwt>
<pdfrwt beam="1">  1        4 0.11127900E-01 0.12500091E+03</pdfrwt>
<pdfrwt beam="2">  1       -4 0.83085727E-02 0.12500091E+03</pdfrwt>
<totfact> 0.10423370E+04</totfact>
</mgrwt>
</event>
<event>
 5    1  0.3269032E-002  0.1250014E+03  0.7818608E-02  0.1235067E+00
         -4   -1    0    0    0  501 -0.00000000000E+00  0.00000000000E+00  0.11705138768E+03  0.11705827719E+03  0.12700000000E+01 0. -1.
          4   -1    0    0  501    0  0.00000000000E+00 -0.00000000000E+00 -0.33352877255E+02  0.33377047820E+02  0.12700000000E+01 0. -1.
         25    2    1    2    0    0  0.00000000000E+00  0.00000000000E+00  0.83698510424E+02  0.15043532501E+03  0.12500138544E+03 0.  0.
    9000005    1    3    3    0    0  0.80003579707E+01 -0.31581024637E+02  0.10602892646E+03  0.11092565119E+03  0.10000000000E+01 0.  0.
    9000005    1    3    3    0    0 -0.80003579707E+01  0.31581024637E+02 -0.22330416038E+02  0.39509673818E+02  0.10000000000E+01 0.  0.
<mgrwt>
<rscale>  0 0.12500139E+03</rscale>
<asrwt>0</asrwt>
<pdfrwt beam="2">  1        4 0.51336011E-02 0.12500139E+03</pdfrwt>
<pdfrwt beam="1">  1       -4 0.18010295E-01 0.12500139E+03</pdfrwt>
<totfact> 0.99213900E+03</totfact>
</mgrwt>
</event>
<event>
 5    1  0.3269032E-002  0.1249995E+03  0.7818608E-02  0.1235070E+00
         -4   -1    0    0    0  501 -0.00000000000E+00  0.00000000000E+00  0.18875426008E+02  0.18918102626E+02  0.12700000000E+01 0.  1.
          4   -1    0    0  501    0  0.00000000000E+00 -0.00000000000E+00 -0.20666907273E+03  0.20667297483E+03  0.12700000000E+01 0.  1.
         25    2    1    2    0    0  0.00000000000E+00  0.00000000000E+00 -0.18779364673E+03  0.22559107746E+03  0.12499952191E+03 0.  0.
    9000005    1    3    3    0    0 -0.35953246433E+02  0.49592689491E+02 -0.11623106087E+03  0.13138770982E+03  0.10000000000E+01 0.  0.
    9000005    1    3    3    0    0  0.35953246433E+02 -0.49592689491E+02 -0.71562585855E+02  0.94203367638E+02  0.10000000000E+01 0.  0.
<mgrwt>
<rscale>  0 0.12499952E+03</rscale>
<asrwt>0</asrwt>
<pdfrwt beam="2">  1        4 0.31798823E-01 0.12499952E+03</pdfrwt>
<pdfrwt beam="1">  1       -4 0.29074948E-02 0.12499952E+03</pdfrwt>
<totfact> 0.85992140E+03</totfact>
</mgrwt>
</event>
<event>
 5    1  0.3269032E-002  0.1250055E+03  0.7818608E-02  0.1235061E+00
          4   -1    0    0  501    0  0.00000000000E+00  0.00000000000E+00  0.85994309262E+03  0.85994403041E+03  0.12700000000E+01 0. -1.
         -4   -1    0    0    0  501 -0.00000000000E+00 -0.00000000000E+00 -0.44531300918E+01  0.46306875963E+01  0.12700000000E+01 0. -1.
         25    2    1    2    0    0  0.00000000000E+00  0.00000000000E+00  0.85548996253E+03  0.86457471801E+03  0.12500546803E+03 0.  0.
    9000005    1    3    3    0    0 -0.49511364651E+02  0.10770987773E+02  0.17473688686E+03  0.18193781640E+03  0.10000000000E+01 0.  0.
    9000005    1    3    3    0    0  0.49511364651E+02 -0.10770987773E+02  0.68075307566E+03  0.68263690161E+03  0.10000000000E+01 0.  0.
<mgrwt>
<rscale>  0 0.12500547E+03</rscale>
<asrwt>0</asrwt>
<pdfrwt beam="1">  1        4 0.13231268E+00 0.12500547E+03</pdfrwt>
<pdfrwt beam="2">  1       -4 0.69882726E-03 0.12500547E+03</pdfrwt>
<totfact> 0.35533978E+03</totfact>
</mgrwt>
</event>
<event>
 5    1  0.3269032E-002  0.1250330E+03  0.7818608E-02  0.1235018E+00
          4   -1    0    0  501    0  0.00000000000E+00  0.00000000000E+00  0.96998269992E+02  0.97006583701E+02  0.12700000000E+01 0.  1.
         -4   -1    0    0    0  501 -0.00000000000E+00 -0.00000000000E+00 -0.40272559936E+02  0.40292579761E+02  0.12700000000E+01 0.  1.
         25    2    1    2    0    0  0.00000000000E+00  0.00000000000E+00  0.56725710055E+02  0.13729916346E+03  0.12503301207E+03 0.  0.
    9000005    1    3    3    0    0 -0.61351538779E+02  0.81409189798E+00  0.41477696839E+02  0.74068032181E+02  0.10000000000E+01 0.  0.
    9000005    1    3    3    0    0  0.61351538779E+02 -0.81409189798E+00  0.15248013217E+02  0.63231131282E+02  0.10000000000E+01 0.  0.
<mgrwt>
<rscale>  0 0.12503301E+03</rscale>
<asrwt>0</asrwt>
<pdfrwt beam="1">  1        4 0.14924990E-01 0.12503301E+03</pdfrwt>
<pdfrwt beam="2">  1       -4 0.61979580E-02 0.12503301E+03</pdfrwt>
<totfact> 0.10182254E+04</totfact>
</mgrwt>
</event>
<event>
 5    1  0.3269032E-002  0.1250000E+03  0.7818608E-02  0.1235069E+00
         -4   -1    0    0    0  501 -0.00000000000E+00  0.00000000000E+00  0.15201138772E+04  0.15201144077E+04  0.12700000000E+01 0.  1.
          4   -1    0    0  501    0  0.00000000000E+00 -0.00000000000E+00 -0.24122322080E+01  0.27261262306E+01  0.12700000000E+01 0.  1.
         25    2    1    2    0    0  0.00000000000E+00  0.00000000000E+00  0.15177016450E+04  0.15228405339E+04  0.12500003452E+03 0.  0.
    9000005    1    3    3    0    0  0.53977694607E+02 -0.31476073262E+02  0.74718174511E+03  0.74979056738E+03  0.10000000000E+01 0.  0.
    9000005    1    3    3    0    0 -0.53977694607E+02  0.31476073262E+02  0.77051989986E+03  0.77304996655E+03  0.10000000000E+01 0.  0.
<mgrwt>
<rscale>  0 0.12500003E+03</rscale>
<asrwt>0</asrwt>
<pdfrwt beam="2">  1        4 0.39529957E-03 0.12500003E+03</pdfrwt>
<pdfrwt beam="1">  1       -4 0.23388761E+00 0.12500003E+03</pdfrwt>
<totfact> 0.17485774E+03</totfact>
</mgrwt>
</event>
<event>
 5    1  0.3269032E-002  0.1250088E+03  0.7818608E-02  0.1235055E+00
          4   -1    0    0  501    0  0.00000000000E+00  0.00000000000E+00  0.72490434051E+03  0.72490545301E+03  0.12700000000E+01 0. -1.
         -4   -1    0    0    0  501 -0.00000000000E+00 -0.00000000000E+00 -0.53134540462E+01  0.54631212600E+01  0.12700000000E+01 0. -1.
         25    2    1    2    0    0  0.00000000000E+00  0.00000000000E+00  0.71959088647E+03  0.73036857427E+03  0.12500884123E+03 0.  0.
    9000005    1    3    3    0    0  0.54181554773E+02 -0.26737657017E+02  0.45314069572E+03  0.45715208990E+03  0.10000000000E+01 0.  0.
    9000005    1    3    3    0    0 -0.54181554773E+02  0.26737657017E+02  0.26645019075E+03  0.27321648437E+03  0.10000000000E+01 0.  0.
<mgrwt>
<rscale>  0 0.12500884E+03</rscale>
<asrwt>0</asrwt>
<pdfrwt beam="1">  1        4 0.11153532E+00 0.12500884E+03</pdfrwt>
<pdfrwt beam="2">  1       -4 0.82905310E-03 0.12500884E+03</pdfrwt>
<totfact> 0.41523145E+03</totfact>
</mgrwt>
</event>
<event>
 5    1  0.3269032E-002  0.1249973E+03  0.7818608E-02  0.1235074E+00
          4   -1    0    0  501    0  0.00000000000E+00  0.00000000000E+00  0.69333440952E+02  0.69345071449E+02  0.12700000000E+01 0.  1.
         -4   -1    0    0    0  501 -0.00000000000E+00 -0.00000000000E+00 -0.56314079451E+02  0.56328398206E+02  0.12700000000E+01 0.  1.
         25    2    1    2    0    0  0.00000000000E+00  0.00000000000E+00  0.13019361501E+02  0.12567346966E+03  0.12499726878E+03 0.  0.
    9000005    1    3    3    0    0 -0.63356430063E+01  0.56160750152E+02 -0.20297436229E+02  0.60059604955E+02  0.10000000000E+01 0.  0.
    9000005    1    3    3    0    0  0.63356430063E+01 -0.56160750152E+02  0.33316797730E+02  0.65613864700E+02  0.10000000000E+01 0.  0.
<mgrwt>
<rscale>  0 0.12499727E+03</rscale>
<asrwt>0</asrwt>
<pdfrwt beam="1">  1        4 0.10668679E-01 0.12499727E+03</pdfrwt>
<pdfrwt beam="2">  1       -4 0.86657006E-02 0.12499727E+03</pdfrwt>
<totfact> 0.10438771E+04</totfact>
</mgrwt>
</event>
<event>
 5    1  0.3269032E-002  0.1249986E+03  0.7818608E-02  0.1235072E+00
          4   -1    0    0  501    0  0.00000000000E+00  0.00000000000E+00  0.27369517986E+01  0.30172512570E+01  0.12700000000E+01 0. -1.
         -4   -1    0    0    0  501 -0.00000000000E+00 -0.00000000000E+00 -0.13573914642E+04  0.13573920583E+04  0.12700000000E+01 0. -1.
         25    2    1    2    0    0  0.00000000000E+00  0.00000000000E+00 -0.13546545124E+04  0.13604093096E+04  0.12499856642E+03 0.  0.
    9000005    1    3    3    0    0 -0.37980653321E+02 -0.44608559441E+02 -0.91395218039E+03  0.91582860931E+03  0.10000000000E+01 0.  0.
    9000005    1    3    3    0    0  0.37980653321E+02  0.44608559441E+02 -0.44070233202E+03  0.44458070027E+03  0.10000000000E+01 0.  0.
<mgrwt>
<rscale>  0 0.12499857E+03</rscale>
<asrwt>0</asrwt>
<pdfrwt beam="1">  1        4 0.44267779E-03 0.12499857E+03</pdfrwt>
<pdfrwt beam="2">  1       -4 0.20885055E+00 0.12499857E+03</pdfrwt>
<totfact> 0.20846701E+03</totfact>
</mgrwt>
</event>
<event>
 5    1  0.3269032E-002  0.1249984E+03  0.7818608E-02  0.1235072E+00
         -4   -1    0    0    0  501 -0.00000000000E+00  0.00000000000E+00  0.67152726451E+02  0.67164734570E+02  0.12700000000E+01 0.  1.
          4   -1    0    0  501    0  0.00000000000E+00 -0.00000000000E+00 -0.58144051519E+02  0.58157919727E+02  0.12700000000E+01 0.  1.
         25    2    1    2    0    0  0.00000000000E+00  0.00000000000E+00  0.90086749321E+01  0.12532265430E+03  0.12499844581E+03 0.  0.
    9000005    1    3    3    0    0 -0.58989250099E+02 -0.60728245947E+01  0.24266932820E+02  0.64081938596E+02  0.10000000000E+01 0.  0.
    9000005    1    3    3    0    0  0.58989250099E+02  0.60728245947E+01 -0.15258257888E+02  0.61240715701E+02  0.10000000000E+01 0.  0.
<mgrwt>
<rscale>  0 0.12499845E+03</rscale>
<asrwt>0</asrwt>
<pdfrwt beam="2">  1        4 0.89472291E-02 0.12499845E+03</pdfrwt>
<pdfrwt beam="1">  1       -4 0.10333179E-01 0.12499845E+03</pdfrwt>
<totfact> 0.10446225E+04</totfact>
</mgrwt>
</event>
<event>
 5    1  0.3269032E-002  0.1250002E+03  0.7818608E-02  0.1235069E+00
         -4   -1    0    0    0  501 -0.00000000000E+00  0.00000000000E+00  0.99527230707E+01  0.10033423968E+02  0.12700000000E+01 0.  1.
          4   -1    0    0  501    0  0.00000000000E+00 -0.00000000000E+00 -0.39081536302E+03  0.39081742652E+03  0.12700000000E+01 0.  1.
         25    2    1    2    0    0  0.00000000000E+00  0.00000000000E+00 -0.38086263995E+03  0.40085085049E+03  0.12500021531E+03 0.  0.
    9000005    1    3    3    0    0 -0.50670080220E+01  0.48212233130E+02 -0.31689357111E+03  0.32058170472E+03  0.10000000000E+01 0.  0.
    9000005    1    3    3    0    0  0.50670080220E+01 -0.48212233130E+02 -0.63969068845E+02  0.80269145769E+02  0.10000000000E+01 0.  0.
<mgrwt>
<rscale>  0 0.12500022E+03</rscale>
<asrwt>0</asrwt>
<pdfrwt beam="2">  1        4 0.60131795E-01 0.12500022E+03</pdfrwt>
<pdfrwt beam="1">  1       -4 0.15375550E-02 0.12500022E+03</pdfrwt>
<totfact> 0.64469820E+03</totfact>
</mgrwt>
</event>
<event>
 5    1  0.3269032E-002  0.1250046E+03  0.7818608E-02  0.1235062E+00
          4   -1    0    0  501    0  0.00000000000E+00  0.00000000000E+00  0.67719841206E+01  0.68900412865E+01  0.12700000000E+01 0. -1.
         -4   -1    0    0    0  501 -0.00000000000E+00 -0.00000000000E+00 -0.57176396989E+03  0.57176538035E+03  0.12700000000E+01 0. -1.
         25    2    1    2    0    0  0.00000000000E+00  0.00000000000E+00 -0.56499198577E+03  0.57865542163E+03  0.12500461193E+03 0.  0.
    9000005    1    3    3    0    0  0.53770296125E+02 -0.51960333605E+01 -0.13704476142E+03  0.14731093014E+03  0.10000000000E+01 0.  0.
    9000005    1    3    3    0    0 -0.53770296125E+02  0.51960333605E+01 -0.42794722435E+03  0.43134449149E+03  0.10000000000E+01 0.  0.
<mgrwt>
<rscale>  0 0.12500461E+03</rscale>
<asrwt>0</asrwt>
<pdfrwt beam="1">  1        4 0.10510340E-02 0.12500461E+03</pdfrwt>
<pdfrwt beam="2">  1       -4 0.87972840E-01 0.12500461E+03</pdfrwt>
<totfact> 0.50238201E+03</totfact>
</mgrwt>
</event>
<event>
 5    1  0.3269032E-002  0.1249907E+03  0.7818608E-02  0.1235084E+00
         -4   -1    0    0    0  501 -0.00000000000E+00  0.00000000000E+00  0.14235930396E+02  0.14292467046E+02  0.12700000000E+01 0. -1.
          4   -1    0    0  501    0  0.00000000000E+00 -0.00000000000E+00 -0.27375102601E+03  0.27375397192E+03  0.12700000000E+01 0. -1.
         25    2    1    2    0    0  0.00000000000E+00  0.00000000000E+00 -0.25951509561E+03  0.28804643896E+03  0.12499066425E+03 0.  0.
    9000005    1    3    3    0    0 -0.28293865070E+02  0.15130696573E+01 -0.25810706386E+03  0.25965956288E+03  0.10000000000E+01 0.  0.
    9000005    1    3    3    0    0  0.28293865070E+02 -0.15130696573E+01 -0.14080317520E+01  0.28386876084E+02  0.10000000000E+01 0.  0.
<mgrwt>
<rscale>  0 0.12499066E+03</rscale>
<asrwt>0</asrwt>
<pdfrwt beam="2">  1        4 0.42120114E-01 0.12499066E+03</pdfrwt>
<pdfrwt beam="1">  1       -4 0.21947189E-02 0.12499066E+03</pdfrwt>
<totfact> 0.77139161E+03</totfact>
</mgrwt>
</event>
<event>
 5    1  0.3269032E-002  0.1249970E+03  0.7818608E-02  0.1235074E+00
          4   -1    0    0  501    0  0.00000000000E+00  0.00000000000E+00  0.64982080862E+02  0.64994490021E+02  0.12700000000E+01 0. -1.
         -4   -1    0    0    0  501 -0.00000000000E+00 -0.00000000000E+00 -0.60084944639E+02  0.60098364972E+02  0.12700000000E+01 0. -1.
         25    2    1    2    0    0  0.00000000000E+00  0.00000000000E+00  0.48971362227E+01  0.12509285499E+03  0.12499696167E+03 0.  0.
    9000005    1    3    3    0    0  0.60478228645E+02  0.14366969515E+02  0.88592730498E+01  0.62797393831E+02  0.10000000000E+01 0.  0.
    9000005    1    3    3    0    0 -0.60478228645E+02 -0.14366969515E+02 -0.39621368271E+01  0.62295461161E+02  0.10000000000E+01 0.  0.
<mgrwt>
<rscale>  0 0.12499696E+03</rscale>
<asrwt>0</asrwt>
<pdfrwt beam="1">  1        4 0.99992301E-02 0.12499696E+03</pdfrwt>
<pdfrwt beam="2">  1       -4 0.92458245E-02 0.12499696E+03</pdfrwt>
<totfact> 0.10451564E+04</totfact>
</mgrwt>
</event>
<event>
 5    1  0.3269032E-002  0.1249982E+03  0.7818608E-02  0.1235072E+00
          4   -1    0    0  501    0  0.00000000000E+00  0.00000000000E+00  0.80123231391E+02  0.80133295879E+02  0.12700000000E+01 0.  1.
         -4   -1    0    0    0  501 -0.00000000000E+00 -0.00000000000E+00 -0.48730184985E+02  0.48746731466E+02  0.12700000000E+01 0.  1.
         25    2    1    2    0    0  0.00000000000E+00  0.00000000000E+00  0.31393046406E+02  0.12888002735E+03  0.12499815233E+03 0.  0.
    9000005    1    3    3    0    0 -0.28493121766E+02  0.92942743200E+01  0.72234597599E+02  0.78211754956E+02  0.10000000000E+01 0.  0.
    9000005    1    3    3    0    0  0.28493121766E+02 -0.92942743200E+01 -0.40841551193E+02  0.50668272389E+02  0.10000000000E+01 0.  0.
<mgrwt>
<rscale>  0 0.12499815E+03</rscale>
<asrwt>0</asrwt>
<pdfrwt beam="1">  1        4 0.12328698E-01 0.12499815E+03</pdfrwt>
<pdfrwt beam="2">  1       -4 0.74989985E-02 0.12499815E+03</pdfrwt>
<totfact> 0.10368958E+04</totfact>
</mgrwt>
</event>
<event>
 5    1  0.3269032E-002  0.1249991E+03  0.7818608E-02  0.1235071E+00
         -4   -1    0    0    0  501 -0.00000000000E+00  0.00000000000E+00  0.28922766380E+01  0.31588232224E+01  0.12700000000E+01 0. -1.
          4   -1    0    0  501    0  0.00000000000E+00 -0.00000000000E+00 -0.12908019594E+04  0.12908025841E+04  0.12700000000E+01 0. -1.
         25    2    1    2    0    0  0.00000000000E+00  0.00000000000E+00 -0.12879096827E+04  0.12939614073E+04  0.12499909143E+03 0.  0.
    9000005    1    3    3    0    0 -0.30530249655E+02 -0.32637976412E+02 -0.10961101866E+04  0.10970213648E+04  0.10000000000E+01 0.  0.
    9000005    1    3    3    0    0  0.30530249655E+02  0.32637976412E+02 -0.19179949610E+03  0.19694004253E+03  0.10000000000E+01 0.  0.
<mgrwt>
<rscale>  0 0.12499909E+03</rscale>
<asrwt>0</asrwt>
<pdfrwt beam="2">  1        4 0.19860503E+00 0.12499909E+03</pdfrwt>
<pdfrwt beam="1">  1       -4 0.46551831E-03 0.12499909E+03</pdfrwt>
<totfact> 0.22371997E+03</totfact>
</mgrwt>
</event>
<event>
 5    1  0.3269032E-002  0.1250002E+03  0.7818608E-02  0.1235069E+00
         -4   -1    0    0    0  501 -0.00000000000E+00  0.00000000000E+00  0.47714370463E+01  0.49375612895E+01  0.12700000000E+01 0. -1.
          4   -1    0    0  501    0  0.00000000000E+00 -0.00000000000E+00 -0.80450186941E+03  0.80450287183E+03  0.12700000000E+01 0. -1.
         25    2    1    2    0    0  0.00000000000E+00  0.00000000000E+00 -0.79973043236E+03  0.80944043312E+03  0.12500020129E+03 0.  0.
    9000005    1    3    3    0    0 -0.57733583626E+00  0.53586201401E+02 -0.60803541460E+03  0.61039321728E+03  0.10000000000E+01 0.  0.
    9000005    1    3    3    0    0  0.57733583626E+00 -0.53586201401E+02 -0.19169501776E+03  0.19904721584E+03  0.10000000000E+01 0.  0.
<mgrwt>
<rscale>  0 0.12500020E+03</rscale>
<asrwt>0</asrwt>
<pdfrwt beam="2">  1        4 0.12378227E+00 0.12500020E+03</pdfrwt>
<pdfrwt beam="1">  1       -4 0.74692378E-03 0.12500020E+03</pdfrwt>
<totfact> 0.37846602E+03</totfact>
</mgrwt>
</event>
<event>
 5    1  0.3269032E-002  0.1250019E+03  0.7818608E-02  0.1235066E+00
         -4   -1    0    0    0  501 -0.00000000000E+00  0.00000000000E+00  0.17875396762E+04  0.17875401274E+04  0.12700000000E+01 0.  1.
          4   -1    0    0  501    0  0.00000000000E+00 -0.00000000000E+00 -0.20003293523E+01  0.23694340079E+01  0.12700000000E+01 0.  1.
         25    2    1    2    0    0  0.00000000000E+00  0.00000000000E+00  0.17855393469E+04  0.17899095614E+04  0.12500191479E+03 0.  0.
    9000005    1    3    3    0    0 -0.29288819002E+02 -0.53950302473E+02  0.10603085287E+04  0.10620845757E+04  0.10000000000E+01 0.  0.
    9000005    1    3    3    0    0  0.29288819002E+02  0.53950302473E+02  0.72523081820E+03  0.72782498564E+03  0.10000000000E+01 0.  0.
<mgrwt>
<rscale>  0 0.12500191E+03</rscale>
<asrwt>0</asrwt>
<pdfrwt beam="2">  1        4 0.33617141E-03 0.12500191E+03</pdfrwt>
<pdfrwt beam="1">  1       -4 0.27503366E+00 0.12500191E+03</pdfrwt>
<totfact> 0.12859134E+03</totfact>
</mgrwt>
</event>
<event>
 5    1  0.3269032E-002  0.1249943E+03  0.7818608E-02  0.1235078E+00
         -4   -1    0    0    0  501 -0.00000000000E+00  0.00000000000E+00  0.15145636952E+02  0.15198790040E+02  0.12700000000E+01 0.  1.
          4   -1    0    0  501    0  0.00000000000E+00 -0.00000000000E+00 -0.25738270861E+03  0.25738584187E+03  0.12700000000E+01 0.  1.
         25    2    1    2    0    0  0.00000000000E+00  0.00000000000E+00 -0.24223707166E+03  0.27258463191E+03  0.12499433053E+03 0.  0.
    9000005    1    3    3    0    0  0.47535641764E+02  0.22635219991E+02 -0.47716543873E+02  0.71062359805E+02  0.10000000000E+01 0.  0.
    9000005    1    3    3    0    0 -0.47535641764E+02 -0.22635219991E+02 -0.19452052779E+03  0.20152227210E+03  0.10000000000E+01 0.  0.
<mgrwt>
<rscale>  0 0.12499433E+03</rscale>
<asrwt>0</asrwt>
<pdfrwt beam="2">  1        4 0.39601666E-01 0.12499433E+03</pdfrwt>
<pdfrwt beam="1">  1       -4 0.23344279E-02 0.12499433E+03</pdfrwt>
<totfact> 0.79181700E+03</totfact>
</mgrwt>
</event>
<event>
 5    1  0.3269032E-002  0.1249990E+03  0.7818608E-02  0.1235071E+00
         -4   -1    0    0    0  501 -0.00000000000E+00  0.00000000000E+00  0.54260637488E+03  0.54260786113E+03  0.12700000000E+01 0.  1.
          4   -1    0    0  501    0  0.00000000000E+00 -0.00000000000E+00 -0.71414199437E+01  0.72534666754E+01  0.12700000000E+01 0.  1.
         25    2    1    2    0    0  0.00000000000E+00  0.00000000000E+00  0.53546495493E+03  0.54986132780E+03  0.12499904740E+03 0.  0.
    9000005    1    3    3    0    0  0.57837076969E+02 -0.14037405534E+02  0.18392007270E+03  0.19331262082E+03  0.10000000000E+01 0.  0.
    9000005    1    3    3    0    0 -0.57837076969E+02  0.14037405534E+02  0.35154488223E+03  0.35654870698E+03  0.10000000000E+01 0.  0.
<mgrwt>
<rscale>  0 0.12499905E+03</rscale>
<asrwt>0</asrwt>
<pdfrwt beam="2">  1        4 0.11074134E-02 0.12499905E+03</pdfrwt>
<pdfrwt beam="1">  1       -4 0.83486628E-01 0.12499905E+03</pdfrwt>
<totfact> 0.52194691E+03</totfact>
</mgrwt>
</event>
<event>
 5    1  0.3269032E-002  0.1249963E+03  0.7818608E-02  0.1235075E+00
          4   -1    0    0  501    0  0.00000000000E+00  0.00000000000E+00  0.22712005751E+02  0.22747485690E+02  0.12700000000E+01 0. -1.
         -4   -1    0    0    0  501 -0.00000000000E+00 -0.00000000000E+00 -0.17180816613E+03  0.17181285997E+03  0.12700000000E+01 0. -1.
         25    2    1    2    0    0  0.00000000000E+00  0.00000000000E+00 -0.14909616038E+03  0.19456034566E+03  0.12499625219E+03 0.  0.
    9000005    1    3    3    0    0  0.67965001727E+01  0.38281675230E+02 -0.15069620922E+03  0.15563427176E+03  0.10000000000E+01 0.  0.
    9000005    1    3    3    0    0 -0.67965001727E+01 -0.38281675230E+02  0.16000488347E+01  0.38926073900E+02  0.10000000000E+01 0.  0.
<mgrwt>
<rscale>  0 0.12499625E+03</rscale>
<asrwt>0</asrwt>
<pdfrwt beam="1">  1        4 0.34972451E-02 0.12499625E+03</pdfrwt>
<pdfrwt beam="2">  1       -4 0.26435115E-01 0.12499625E+03</pdfrwt>
<totfact> 0.91067470E+03</totfact>
</mgrwt>
</event>
<event>
 4    1  0.3269032E-002  0.1250772E+03  0.7818608E-02  0.1234949E+00
          4   -1    0    0  501    0  0.00000000000E+00  0.00000000000E+00  0.28253938530E+03  0.28254223958E+03  0.12700000000E+01 0.  1.
         -4   -1    0    0    0  501 -0.00000000000E+00 -0.00000000000E+00 -0.13810535975E+02  0.13868806868E+02  0.12700000000E+01 0.  1.
    9000005    1    1    2    0    0 -0.38888949448E+02  0.20498921793E+02  0.23974894401E+03  0.24374805094E+03  0.10000000000E+01 0.  0.
    9000005    1    1    2    0    0  0.38888949448E+02 -0.20498921793E+02  0.28979905324E+02  0.52662995513E+02  0.10000000000E+01 0.  0.
<mgrwt>
<rscale>  0 0.12507723E+03</rscale>
<asrwt>0</asrwt>
<pdfrwt beam="1">  1        4 0.43472300E-01 0.12507723E+03</pdfrwt>
<pdfrwt beam="2">  1       -4 0.21293998E-02 0.12507723E+03</pdfrwt>
<totfact> 0.75920974E+03</totfact>
</mgrwt>
</event>
<event>
 5    1  0.3269032E-002  0.1250009E+03  0.7818608E-02  0.1235068E+00
          4   -1    0    0  501    0  0.00000000000E+00  0.00000000000E+00  0.53483082315E+02  0.53498158790E+02  0.12700000000E+01 0.  1.
         -4   -1    0    0    0  501 -0.00000000000E+00 -0.00000000000E+00 -0.73007275232E+02  0.73018320556E+02  0.12700000000E+01 0.  1.
         25    2    1    2    0    0  0.00000000000E+00  0.00000000000E+00 -0.19524192917E+02  0.12651647935E+03  0.12500090175E+03 0.  0.
    9000005    1    3    3    0    0  0.42824060945E+02  0.17038341774E+02 -0.52476882438E+02  0.69850042782E+02  0.10000000000E+01 0.  0.
    9000005    1    3    3    0    0 -0.42824060945E+02 -0.17038341774E+02  0.32952689521E+02  0.56666436564E+02  0.10000000000E+01 0.  0.
<mgrwt>
<rscale>  0 0.12500090E+03</rscale>
<asrwt>0</asrwt>
<pdfrwt beam="1">  1        4 0.82301758E-02 0.12500090E+03</pdfrwt>
<pdfrwt beam="2">  1       -4 0.11233898E-01 0.12500090E+03</pdfrwt>
<totfact> 0.10419457E+04</totfact>
</mgrwt>
</event>
<event>
 5    1  0.3269032E-002  0.1250023E+03  0.7818608E-02  0.1235066E+00
          4   -1    0    0  501    0  0.00000000000E+00  0.00000000000E+00  0.11256732682E+03  0.11257449075E+03  0.12700000000E+01 0.  1.
         -4   -1    0    0    0  501 -0.00000000000E+00 -0.00000000000E+00 -0.34682815403E+02  0.34706059763E+02  0.12700000000E+01 0.  1.
         25    2    1    2    0    0  0.00000000000E+00  0.00000000000E+00  0.77884511421E+02  0.14728055052E+03  0.12500225374E+03 0.  0.
    9000005    1    3    3    0    0  0.32035083684E+02  0.10983031124E+02  0.10082440820E+03  0.10636463157E+03  0.10000000000E+01 0.  0.
    9000005    1    3    3    0    0 -0.32035083684E+02 -0.10983031124E+02 -0.22939896779E+02  0.40915918951E+02  0.10000000000E+01 0.  0.
<mgrwt>
<rscale>  0 0.12500225E+03</rscale>
<asrwt>0</asrwt>
<pdfrwt beam="1">  1        4 0.17320389E-01 0.12500225E+03</pdfrwt>
<pdfrwt beam="2">  1       -4 0.53381570E-02 0.12500225E+03</pdfrwt>
<totfact> 0.99843502E+03</totfact>
</mgrwt>
</event>
<event>
 5    1  0.3269032E-002  0.1249954E+03  0.7818608E-02  0.1235077E+00
         -4   -1    0    0    0  501 -0.00000000000E+00  0.00000000000E+00  0.26094834372E+01  0.29021205711E+01  0.12700000000E+01 0. -1.
          4   -1    0    0  501    0  0.00000000000E+00 -0.00000000000E+00 -0.14170656154E+04  0.14170661845E+04  0.12700000000E+01 0. -1.
         25    2    1    2    0    0  0.00000000000E+00  0.00000000000E+00 -0.14144561320E+04  0.14199683051E+04  0.12499535253E+03 0.  0.
    9000005    1    3    3    0    0 -0.35302201522E+02 -0.18928462748E+02 -0.16236289060E+03  0.16723408857E+03  0.10000000000E+01 0.  0.
    9000005    1    3    3    0    0  0.35302201522E+02  0.18928462748E+02 -0.12520932414E+04  0.12527342165E+04  0.10000000000E+01 0.  0.
<mgrwt>
<rscale>  0 0.12499535E+03</rscale>
<asrwt>0</asrwt>
<pdfrwt beam="2">  1        4 0.21803207E+00 0.12499535E+03</pdfrwt>
<pdfrwt beam="1">  1       -4 0.42401445E-03 0.12499535E+03</pdfrwt>
<totfact> 0.19558495E+03</totfact>
</mgrwt>
</event>
<event>
 5    1  0.3269032E-002  0.1249862E+03  0.7818608E-02  0.1235091E+00
         -4   -1    0    0    0  501 -0.00000000000E+00  0.00000000000E+00  0.36802213401E+01  0.38931900945E+01  0.12700000000E+01 0.  1.
          4   -1    0    0  501    0  0.00000000000E+00 -0.00000000000E+00 -0.10311282041E+04  0.10311289862E+04  0.12700000000E+01 0.  1.
         25    2    1    2    0    0  0.00000000000E+00  0.00000000000E+00 -0.10274479828E+04  0.10350221763E+04  0.12498619185E+03 0.  0.
    9000005    1    3    3    0    0 -0.54668937175E+02  0.17831285899E+02 -0.31126194151E+03  0.31653063625E+03  0.10000000000E+01 0.  0.
    9000005    1    3    3    0    0  0.54668937175E+02 -0.17831285899E+02 -0.71618604127E+03  0.71849154007E+03  0.10000000000E+01 0.  0.
<mgrwt>
<rscale>  0 0.12498619E+03</rscale>
<asrwt>0</asrwt>
<pdfrwt beam="2">  1        4 0.15865133E+00 0.12498619E+03</pdfrwt>
<pdfrwt beam="1">  1       -4 0.58263109E-03 0.12498619E+03</pdfrwt>
<totfact> 0.29476002E+03</totfact>
</mgrwt>
</event>
<event>
 5    1  0.3269032E-002  0.1250027E+03  0.7818608E-02  0.1235065E+00
         -4   -1    0    0    0  501 -0.00000000000E+00  0.00000000000E+00  0.66337396703E+02  0.66349552382E+02  0.12700000000E+01 0. -1.
          4   -1    0    0  501    0  0.00000000000E+00 -0.00000000000E+00 -0.58862699165E+02  0.58876398098E+02  0.12700000000E+01 0. -1.
         25    2    1    2    0    0  0.00000000000E+00  0.00000000000E+00  0.74746975378E+01  0.12522595048E+03  0.12500267025E+03 0.  0.
    9000005    1    3    3    0    0 -0.45255725903E+02 -0.27753456777E+01  0.46821535752E+02  0.65184656790E+02  0.10000000000E+01 0.  0.
    9000005    1    3    3    0    0  0.45255725903E+02  0.27753456777E+01 -0.39346838214E+02  0.60041293691E+02  0.10000000000E+01 0.  0.
<mgrwt>
<rscale>  0 0.12500267E+03</rscale>
<asrwt>0</asrwt>
<pdfrwt beam="2">  1        4 0.90577888E-02 0.12500267E+03</pdfrwt>
<pdfrwt beam="1">  1       -4 0.10207742E-01 0.12500267E+03</pdfrwt>
<totfact> 0.10447326E+04</totfact>
</mgrwt>
</event>
<event>
 5    1  0.3269032E-002  0.1250044E+03  0.7818608E-02  0.1235062E+00
          4   -1    0    0  501    0  0.00000000000E+00  0.00000000000E+00  0.38371681179E+02  0.38392692228E+02  0.12700000000E+01 0.  1.
         -4   -1    0    0    0  501 -0.00000000000E+00 -0.00000000000E+00 -0.10175461625E+03  0.10176254138E+03  0.12700000000E+01 0.  1.
         25    2    1    2    0    0  0.00000000000E+00  0.00000000000E+00 -0.63382935067E+02  0.14015523360E+03  0.12500437212E+03 0.  0.
    9000005    1    3    3    0    0  0.53467951364E+02 -0.26877020710E+02 -0.51883303097E+02  0.79209047499E+02  0.10000000000E+01 0.  0.
    9000005    1    3    3    0    0 -0.53467951364E+02  0.26877020710E+02 -0.11499631970E+02  0.60946186105E+02  0.10000000000E+01 0.  0.
<mgrwt>
<rscale>  0 0.12500437E+03</rscale>
<asrwt>0</asrwt>
<pdfrwt beam="1">  1        4 0.59055615E-02 0.12500437E+03</pdfrwt>
<pdfrwt beam="2">  1       -4 0.15656782E-01 0.12500437E+03</pdfrwt>
<totfact> 0.10129372E+04</totfact>
</mgrwt>
</event>
<event>
 5    1  0.3269032E-002  0.1249984E+03  0.7818608E-02  0.1235072E+00
          4   -1    0    0  501    0  0.00000000000E+00  0.00000000000E+00  0.17812805780E+03  0.17813258511E+03  0.12700000000E+01 0.  1.
         -4   -1    0    0    0  501 -0.00000000000E+00 -0.00000000000E+00 -0.21905705885E+02  0.21942489610E+02  0.12700000000E+01 0.  1.
         25    2    1    2    0    0  0.00000000000E+00  0.00000000000E+00  0.15622235192E+03  0.20007507472E+03  0.12499844913E+03 0.  0.
    9000005    1    3    3    0    0  0.16845489889E+02  0.11551274288E+02  0.17264201791E+03  0.17384898278E+03  0.10000000000E+01 0.  0.
    9000005    1    3    3    0    0 -0.16845489889E+02 -0.11551274288E+02 -0.16419665986E+02  0.26226091938E+02  0.10000000000E+01 0.  0.
<mgrwt>
<rscale>  0 0.12499845E+03</rscale>
<asrwt>0</asrwt>
<pdfrwt beam="1">  1        4 0.27407495E-01 0.12499845E+03</pdfrwt>
<pdfrwt beam="2">  1       -4 0.33732863E-02 0.12499845E+03</pdfrwt>
<totfact> 0.90125973E+03</totfact>
</mgrwt>
</event>
<event>
 5    1  0.3269032E-002  0.1249954E+03  0.7818608E-02  0.1235076E+00
         -4   -1    0    0    0  501 -0.00000000000E+00  0.00000000000E+00  0.73442372242E+03  0.73442482049E+03  0.12700000000E+01 0. -1.
          4   -1    0    0  501    0  0.00000000000E+00 -0.00000000000E+00 -0.52414725741E+01  0.53931377458E+01  0.12700000000E+01 0. -1.
         25    2    1    2    0    0  0.00000000000E+00  0.00000000000E+00  0.72918224985E+03  0.73981795824E+03  0.12499543127E+03 0.  0.
    9000005    1    3    3    0    0  0.25655964967E+02 -0.18407909771E+02  0.45423136173E+02  0.55329386228E+02  0.10000000000E+01 0.  0.
    9000005    1    3    3    0    0 -0.25655964967E+02  0.18407909771E+02  0.68375911367E+03  0.68448857201E+03  0.10000000000E+01 0.  0.
<mgrwt>
<rscale>  0 0.12499543E+03</rscale>
<asrwt>0</asrwt>
<pdfrwt beam="2">  1        4 0.81813126E-03 0.12499543E+03</pdfrwt>
<pdfrwt beam="1">  1       -4 0.11300004E+00 0.12499543E+03</pdfrwt>
<totfact> 0.41070038E+03</totfact>
</mgrwt>
</event>
<event>
 5    1  0.3269032E-002  0.1249991E+03  0.7818608E-02  0.1235071E+00
         -4   -1    0    0    0  501 -0.00000000000E+00  0.00000000000E+00  0.73230917097E+01  0.74324001634E+01  0.12700000000E+01 0.  1.
          4   -1    0    0  501    0  0.00000000000E+00 -0.00000000000E+00 -0.52934650553E+03  0.52934802901E+03  0.12700000000E+01 0.  1.
         25    2    1    2    0    0  0.00000000000E+00  0.00000000000E+00 -0.52202341382E+03  0.53678042917E+03  0.12499913827E+03 0.  0.
    9000005    1    3    3    0    0  0.96977640846E+01 -0.36956741591E+01  0.36176733810E+01  0.11035950182E+02  0.10000000000E+01 0.  0.
    9000005    1    3    3    0    0 -0.96977640846E+01  0.36956741591E+01 -0.52564108720E+03  0.52574447899E+03  0.10000000000E+01 0.  0.
<mgrwt>
<rscale>  0 0.12499914E+03</rscale>
<asrwt>0</asrwt>
<pdfrwt beam="2">  1        4 0.81446419E-01 0.12499914E+03</pdfrwt>
<pdfrwt beam="1">  1       -4 0.11351554E-02 0.12499914E+03</pdfrwt>
<totfact> 0.53120490E+03</totfact>
</mgrwt>
</event>
<event>
 5    1  0.3269032E-002  0.1250107E+03  0.7818608E-02  0.1235053E+00
         -4   -1    0    0    0  501 -0.00000000000E+00  0.00000000000E+00  0.67010357614E+01  0.68203211270E+01  0.12700000000E+01 0.  1.
          4   -1    0    0  501    0  0.00000000000E+00 -0.00000000000E+00 -0.57776859297E+03  0.57776998877E+03  0.12700000000E+01 0.  1.
         25    2    1    2    0    0  0.00000000000E+00  0.00000000000E+00 -0.57106755721E+03  0.58459030990E+03  0.12501070166E+03 0.  0.
    9000005    1    3    3    0    0 -0.47202600118E+02  0.18313296586E+02 -0.45687211485E+03  0.45967008998E+03  0.10000000000E+01 0.  0.
    9000005    1    3    3    0    0  0.47202600118E+02 -0.18313296586E+02 -0.11419544236E+03  0.12492021992E+03  0.10000000000E+01 0.  0.
<mgrwt>
<rscale>  0 0.12501070E+03</rscale>
<asrwt>0</asrwt>
<pdfrwt beam="2">  1        4 0.88896720E-01 0.12501070E+03</pdfrwt>
<pdfrwt beam="1">  1       -4 0.10402122E-02 0.12501070E+03</pdfrwt>
<totfact> 0.49843303E+03</totfact>
</mgrwt>
</event>
<event>
 5    1  0.3269032E-002  0.1249988E+03  0.7818608E-02  0.1235071E+00
          4   -1    0    0  501    0  0.00000000000E+00  0.00000000000E+00  0.39057799062E+01  0.41070691102E+01  0.12700000000E+01 0. -1.
         -4   -1    0    0    0  501 -0.00000000000E+00 -0.00000000000E+00 -0.97477630738E+03  0.97477713470E+03  0.12700000000E+01 0. -1.
         25    2    1    2    0    0  0.00000000000E+00  0.00000000000E+00 -0.97087052747E+03  0.97888420381E+03  0.12499881338E+03 0.  0.
    9000005    1    3    3    0    0 -0.99626606666E+01  0.48140417297E+02 -0.78756146518E+03  0.78909493460E+03  0.10000000000E+01 0.  0.
    9000005    1    3    3    0    0  0.99626606666E+01 -0.48140417297E+02 -0.18330906230E+03  0.18978926921E+03  0.10000000000E+01 0.  0.
<mgrwt>
<rscale>  0 0.12499881E+03</rscale>
<asrwt>0</asrwt>
<pdfrwt beam="1">  1        4 0.61643742E-03 0.12499881E+03</pdfrwt>
<pdfrwt beam="2">  1       -4 0.14998094E+00 0.12499881E+03</pdfrwt>
<totfact> 0.31313002E+03</totfact>
</mgrwt>
</event>
<event>
 5    1  0.3269032E-002  0.1249983E+03  0.7818608E-02  0.1235072E+00
         -4   -1    0    0    0  501 -0.00000000000E+00  0.00000000000E+00  0.15196304445E+01  0.19804486077E+01  0.12700000000E+01 0.  1.
          4   -1    0    0  501    0  0.00000000000E+00 -0.00000000000E+00 -0.22315716169E+04  0.22315719783E+04  0.12700000000E+01 0.  1.
         25    2    1    2    0    0  0.00000000000E+00  0.00000000000E+00 -0.22300519865E+04  0.22335524269E+04  0.12499832547E+03 0.  0.
    9000005    1    3    3    0    0 -0.42569481641E+02 -0.42233648499E+02 -0.80076941303E+03  0.80301213856E+03  0.10000000000E+01 0.  0.
    9000005    1    3    3    0    0  0.42569481641E+02  0.42233648499E+02 -0.14292825735E+04  0.14305402884E+04  0.10000000000E+01 0.  0.
<mgrwt>
<rscale>  0 0.12499833E+03</rscale>
<asrwt>0</asrwt>
<pdfrwt beam="2">  1        4 0.34335191E+00 0.12499833E+03</pdfrwt>
<pdfrwt beam="1">  1       -4 0.26926643E-03 0.12499833E+03</pdfrwt>
<totfact> 0.71129639E+02</totfact>
</mgrwt>
</event>
<event>
 5    1  0.3269032E-002  0.1249993E+03  0.7818608E-02  0.1235070E+00
         -4   -1    0    0    0  501 -0.00000000000E+00  0.00000000000E+00  0.51548506906E+02  0.51564149020E+02  0.12700000000E+01 0.  1.
          4   -1    0    0  501    0  0.00000000000E+00 -0.00000000000E+00 -0.75744781215E+02  0.75755427405E+02  0.12700000000E+01 0.  1.
         25    2    1    2    0    0  0.00000000000E+00  0.00000000000E+00 -0.24196274309E+02  0.12731957643E+03  0.12499925940E+03 0.  0.
    9000005    1    3    3    0    0  0.20034874681E+02  0.59089274348E+02 -0.85309617572E+01  0.62981869256E+02  0.10000000000E+01 0.  0.
    9000005    1    3    3    0    0 -0.20034874681E+02 -0.59089274348E+02 -0.15665312552E+02  0.64337707169E+02  0.10000000000E+01 0.  0.
<mgrwt>
<rscale>  0 0.12499926E+03</rscale>
<asrwt>0</asrwt>
<pdfrwt beam="2">  1        4 0.11655065E-01 0.12499926E+03</pdfrwt>
<pdfrwt beam="1">  1       -4 0.79325617E-02 0.12499926E+03</pdfrwt>
<totfact> 0.10402384E+04</totfact>
</mgrwt>
</event>
<event>
 5    1  0.3269032E-002  0.1250002E+03  0.7818608E-02  0.1235069E+00
          4   -1    0    0  501    0  0.00000000000E+00  0.00000000000E+00  0.10279057223E+03  0.10279841750E+03  0.12700000000E+01 0. -1.
         -4   -1    0    0    0  501 -0.00000000000E+00 -0.00000000000E+00 -0.37982246485E+02  0.38003472842E+02  0.12700000000E+01 0. -1.
         25    2    1    2    0    0  0.00000000000E+00  0.00000000000E+00  0.64808325750E+02  0.14080189034E+03  0.12500021295E+03 0.  0.
    9000005    1    3    3    0    0  0.54248180970E+02 -0.15751489970E+02  0.62508885694E+02  0.84257553759E+02  0.10000000000E+01 0.  0.
    9000005    1    3    3    0    0 -0.54248180970E+02  0.15751489970E+02  0.22994400562E+01  0.56544336581E+02  0.10000000000E+01 0.  0.
<mgrwt>
<rscale>  0 0.12500021E+03</rscale>
<asrwt>0</asrwt>
<pdfrwt beam="1">  1        4 0.15816170E-01 0.12500021E+03</pdfrwt>
<pdfrwt beam="2">  1       -4 0.58456590E-02 0.12500021E+03</pdfrwt>
<totfact> 0.10116945E+04</totfact>
</mgrwt>
</event>
<event>
 5    1  0.3269032E-002  0.1250029E+03  0.7818608E-02  0.1235065E+00
         -4   -1    0    0    0  501 -0.00000000000E+00  0.00000000000E+00  0.24065799018E+02  0.24099285931E+02  0.12700000000E+01 0.  1.
          4   -1    0    0  501    0  0.00000000000E+00 -0.00000000000E+00 -0.16217399487E+03  0.16217896754E+03  0.12700000000E+01 0.  1.
         25    2    1    2    0    0  0.00000000000E+00  0.00000000000E+00 -0.13810819586E+03  0.18627825347E+03  0.12500285579E+03 0.  0.
    9000005    1    3    3    0    0 -0.61110563870E+02 -0.12959069432E+02 -0.66477318716E+02  0.91228681897E+02  0.10000000000E+01 0.  0.
    9000005    1    3    3    0    0  0.61110563870E+02  0.12959069432E+02 -0.71630877141E+02  0.95049571577E+02  0.10000000000E+01 0.  0.
<mgrwt>
<rscale>  0 0.12500286E+03</rscale>
<asrwt>0</asrwt>
<pdfrwt beam="2">  1        4 0.24952803E-01 0.12500286E+03</pdfrwt>
<pdfrwt beam="1">  1       -4 0.37053891E-02 0.12500286E+03</pdfrwt>
<totfact> 0.92493030E+03</totfact>
</mgrwt>
</event>
<event>
 5    1  0.3269032E-002  0.1249999E+03  0.7818608E-02  0.1235069E+00
          4   -1    0    0  501    0  0.00000000000E+00  0.00000000000E+00  0.39607662611E+03  0.39607866220E+03  0.12700000000E+01 0. -1.
         -4   -1    0    0    0  501 -0.00000000000E+00 -0.00000000000E+00 -0.98193892501E+01  0.99011769627E+01  0.12700000000E+01 0. -1.
         25    2    1    2    0    0  0.00000000000E+00  0.00000000000E+00  0.38625723686E+03  0.40597983917E+03  0.12499990712E+03 0.  0.
    9000005    1    3    3    0    0  0.59931301525E+02 -0.34123198184E+01  0.24955506699E+03  0.25667515714E+03  0.10000000000E+01 0.  0.
    9000005    1    3    3    0    0 -0.59931301525E+02  0.34123198184E+01  0.13670216987E+03  0.14930468203E+03  0.10000000000E+01 0.  0.
<mgrwt>
<rscale>  0 0.12499991E+03</rscale>
<asrwt>0</asrwt>
<pdfrwt beam="1">  1        4 0.60941302E-01 0.12499991E+03</pdfrwt>
<pdfrwt beam="2">  1       -4 0.15171235E-02 0.12499991E+03</pdfrwt>
<totfact> 0.63975459E+03</totfact>
</mgrwt>
</event>
<event>
 5    1  0.3269032E-002  0.1250030E+03  0.7818608E-02  0.1235065E+00
         -4   -1    0    0    0  501 -0.00000000000E+00  0.00000000000E+00  0.79502125751E+02  0.79512268858E+02  0.12700000000E+01 0.  1.
          4   -1    0    0  501    0  0.00000000000E+00 -0.00000000000E+00 -0.49114811910E+02  0.49131228856E+02  0.12700000000E+01 0.  1.
         25    2    1    2    0    0  0.00000000000E+00  0.00000000000E+00  0.30387313841E+02  0.12864349771E+03  0.12500304261E+03 0.  0.
    9000005    1    3    3    0    0 -0.44987240217E+02  0.94747332517E+01  0.58756295855E+02  0.74611826510E+02  0.10000000000E+01 0.  0.
    9000005    1    3    3    0    0  0.44987240217E+02 -0.94747332517E+01 -0.28368982014E+02  0.54031671204E+02  0.10000000000E+01 0.  0.
<mgrwt>
<rscale>  0 0.12500304E+03</rscale>
<asrwt>0</asrwt>
<pdfrwt beam="2">  1        4 0.75581682E-02 0.12500304E+03</pdfrwt>
<pdfrwt beam="1">  1       -4 0.12233139E-01 0.12500304E+03</pdfrwt>
<totfact> 0.10372901E+04</totfact>
</mgrwt>
</event>
<event>
 5    1  0.3269032E-002  0.1249985E+03  0.7818608E-02  0.1235072E+00
         -4   -1    0    0    0  501 -0.00000000000E+00  0.00000000000E+00  0.39526301259E+03  0.39526505287E+03  0.12700000000E+01 0.  1.
          4   -1    0    0  501    0  0.00000000000E+00 -0.00000000000E+00 -0.98395484614E+01  0.99211699877E+01  0.12700000000E+01 0.  1.
         25    2    1    2    0    0  0.00000000000E+00  0.00000000000E+00  0.38542346413E+03  0.40518622286E+03  0.12499851397E+03 0.  0.
    9000005    1    3    3    0    0  0.57944094463E+02 -0.51937909114E+01  0.26667709943E+03  0.27295085439E+03  0.10000000000E+01 0.  0.
    9000005    1    3    3    0    0 -0.57944094463E+02  0.51937909114E+01  0.11874636469E+03  0.13223536847E+03  0.10000000000E+01 0.  0.
<mgrwt>
<rscale>  0 0.12499851E+03</rscale>
<asrwt>0</asrwt>
<pdfrwt beam="2">  1        4 0.15202122E-02 0.12499851E+03</pdfrwt>
<pdfrwt beam="1">  1       -4 0.60816129E-01 0.12499851E+03</pdfrwt>
<totfact> 0.64053589E+03</totfact>
</mgrwt>
</event>
<event>
 5    1  0.3269032E-002  0.1249945E+03  0.7818608E-02  0.1235078E+00
          4   -1    0    0  501    0  0.00000000000E+00  0.00000000000E+00  0.72512523413E+02  0.72523644087E+02  0.12700000000E+01 0. -1.
         -4   -1    0    0    0  501 -0.00000000000E+00 -0.00000000000E+00 -0.53842560289E+02  0.53857536135E+02  0.12700000000E+01 0. -1.
         25    2    1    2    0    0  0.00000000000E+00  0.00000000000E+00  0.18669963124E+02  0.12638118022E+03  0.12499454065E+03 0.  0.
    9000005    1    3    3    0    0 -0.45557958534E+02 -0.14760700967E+01 -0.33885011602E+02  0.56805812907E+02  0.10000000000E+01 0.  0.
    9000005    1    3    3    0    0  0.45557958534E+02  0.14760700967E+01  0.52554974726E+02  0.69575367316E+02  0.10000000000E+01 0.  0.
<mgrwt>
<rscale>  0 0.12499454E+03</rscale>
<asrwt>0</asrwt>
<pdfrwt beam="1">  1        4 0.11157780E-01 0.12499454E+03</pdfrwt>
<pdfrwt beam="2">  1       -4 0.82854782E-02 0.12499454E+03</pdfrwt>
<totfact> 0.10423905E+04</totfact>
</mgrwt>
</event>
<event>
 5    1  0.3269032E-002  0.1249944E+03  0.7818608E-02  0.1235078E+00
         -4   -1    0    0    0  501 -0.00000000000E+00  0.00000000000E+00  0.45400321900E+01  0.47143177965E+01  0.12700000000E+01 0.  1.
          4   -1    0    0  501    0  0.00000000000E+00 -0.00000000000E+00 -0.84394680665E+03  0.84394776222E+03  0.12700000000E+01 0.  1.
         25    2    1    2    0    0  0.00000000000E+00  0.00000000000E+00 -0.83940677446E+03  0.84866208001E+03  0.12499437206E+03 0.  0.
    9000005    1    3    3    0    0  0.19565023835E+01 -0.41471784249E+02 -0.73679754980E+03  0.73796704952E+03  0.10000000000E+01 0.  0.
    9000005    1    3    3    0    0 -0.19565023835E+01  0.41471784249E+02 -0.10260922466E+03  0.11069503049E+03  0.10000000000E+01 0.  0.
<mgrwt>
<rscale>  0 0.12499437E+03</rscale>
<asrwt>0</asrwt>
<pdfrwt beam="2">  1        4 0.12985133E+00 0.12499437E+03</pdfrwt>
<pdfrwt beam="1">  1       -4 0.71194725E-03 0.12499437E+03</pdfrwt>
<totfact> 0.36186612E+03</totfact>
</mgrwt>
</event>
<event>
 5    1  0.3269032E-002  0.1250005E+03  0.7818608E-02  0.1235069E+00
          4   -1    0    0  501    0  0.00000000000E+00  0.00000000000E+00  0.33176533571E+03  0.33176776649E+03  0.12700000000E+01 0.  1.
         -4   -1    0    0    0  501 -0.00000000000E+00 -0.00000000000E+00 -0.11737499781E+02  0.11806006992E+02  0.12700000000E+01 0.  1.
         25    2    1    2    0    0  0.00000000000E+00  0.00000000000E+00  0.32002783593E+03  0.34357377348E+03  0.12500048821E+03 0.  0.
    9000005    1    3    3    0    0  0.12617433352E+02 -0.58891244020E+02  0.11419399656E+03  0.12910711482E+03  0.10000000000E+01 0.  0.
    9000005    1    3    3    0    0 -0.12617433352E+02  0.58891244020E+02  0.20583383938E+03  0.21446665866E+03  0.10000000000E+01 0.  0.
<mgrwt>
<rscale>  0 0.12500049E+03</rscale>
<asrwt>0</asrwt>
<pdfrwt beam="1">  1        4 0.51046277E-01 0.12500049E+03</pdfrwt>
<pdfrwt beam="2">  1       -4 0.18112260E-02 0.12500049E+03</pdfrwt>
<totfact> 0.70436591E+03</totfact>
</mgrwt>
</event>
<event>
 5    1  0.3269032E-002  0.1250010E+03  0.7818608E-02  0.1235068E+00
          4   -1    0    0  501    0  0.00000000000E+00  0.00000000000E+00  0.47698723881E+02  0.47715628046E+02  0.12700000000E+01 0. -1.
         -4   -1    0    0    0  501 -0.00000000000E+00 -0.00000000000E+00 -0.81859196135E+02  0.81869047215E+02  0.12700000000E+01 0. -1.
         25    2    1    2    0    0  0.00000000000E+00  0.00000000000E+00 -0.34160472254E+02  0.12958467526E+03  0.12500100079E+03 0.  0.
    9000005    1    3    3    0    0 -0.14087243582E+02  0.12767056105E+02 -0.78793526506E+02  0.81060890524E+02  0.10000000000E+01 0.  0.
    9000005    1    3    3    0    0  0.14087243582E+02 -0.12767056105E+02  0.44633054252E+02  0.48523784737E+02  0.10000000000E+01 0.  0.
<mgrwt>
<rscale>  0 0.12500100E+03</rscale>
<asrwt>0</asrwt>
<pdfrwt beam="1">  1        4 0.73403233E-02 0.12500100E+03</pdfrwt>
<pdfrwt beam="2">  1       -4 0.12595781E-01 0.12500100E+03</pdfrwt>
<totfact> 0.10353166E+04</totfact>
</mgrwt>
</event>
<event>
 5    1  0.3269032E-002  0.1250008E+03  0.7818608E-02  0.1235068E+00
          4   -1    0    0  501    0  0.00000000000E+00  0.00000000000E+00  0.31643450347E+02  0.31668925619E+02  0.12700000000E+01 0. -1.
         -4   -1    0    0    0  501 -0.00000000000E+00 -0.00000000000E+00 -0.12336888951E+03  0.12337542624E+03  0.12700000000E+01 0. -1.
         25    2    1    2    0    0  0.00000000000E+00  0.00000000000E+00 -0.91725439164E+02  0.15504435186E+03  0.12500077941E+03 0.  0.
    9000005    1    3    3    0    0 -0.48112181687E+02  0.10518340964E+02  0.18524700274E+01  0.49293500266E+02  0.10000000000E+01 0.  0.
    9000005    1    3    3    0    0  0.48112181687E+02 -0.10518340964E+02 -0.93577909191E+02  0.10575085159E+03  0.10000000000E+01 0.  0.
<mgrwt>
<rscale>  0 0.12500078E+03</rscale>
<asrwt>0</asrwt>
<pdfrwt beam="1">  1        4 0.48706857E-02 0.12500078E+03</pdfrwt>
<pdfrwt beam="2">  1       -4 0.18982291E-01 0.12500078E+03</pdfrwt>
<totfact> 0.98305070E+03</totfact>
</mgrwt>
</event>
<event>
 5    1  0.3269032E-002  0.1249985E+03  0.7818608E-02  0.1235072E+00
          4   -1    0    0  501    0  0.00000000000E+00  0.00000000000E+00  0.65582497911E+02  0.65594793484E+02  0.12700000000E+01 0.  1.
         -4   -1    0    0    0  501 -0.00000000000E+00 -0.00000000000E+00 -0.59536329158E+02  0.59549873129E+02  0.12700000000E+01 0.  1.
         25    2    1    2    0    0  0.00000000000E+00  0.00000000000E+00  0.60461687527E+01  0.12514466661E+03  0.12499852569E+03 0.  0.
    9000005    1    3    3    0    0  0.73027495188E+01 -0.42913040223E+02 -0.41865690148E+02  0.60403602403E+02  0.10000000000E+01 0.  0.
    9000005    1    3    3    0    0 -0.73027495188E+01  0.42913040223E+02  0.47911858901E+02  0.64741064210E+02  0.10000000000E+01 0.  0.
<mgrwt>
<rscale>  0 0.12499853E+03</rscale>
<asrwt>0</asrwt>
<pdfrwt beam="1">  1        4 0.10091603E-01 0.12499853E+03</pdfrwt>
<pdfrwt beam="2">  1       -4 0.91614230E-02 0.12499853E+03</pdfrwt>
<totfact> 0.10450069E+04</totfact>
</mgrwt>
</event>
<event>
 5    1  0.3269032E-002  0.1250060E+03  0.7818608E-02  0.1235060E+00
          4   -1    0    0  501    0  0.00000000000E+00  0.00000000000E+00  0.27718954602E+02  0.27748033160E+02  0.12700000000E+01 0. -1.
         -4   -1    0    0    0  501 -0.00000000000E+00 -0.00000000000E+00 -0.14083104275E+03  0.14083676900E+03  0.12700000000E+01 0. -1.
         25    2    1    2    0    0  0.00000000000E+00  0.00000000000E+00 -0.11311208815E+03  0.16858480216E+03  0.12500596399E+03 0.  0.
    9000005    1    3    3    0    0  0.52987528832E+02  0.29985818798E+02 -0.75570795550E+02  0.97050361569E+02  0.10000000000E+01 0.  0.
    9000005    1    3    3    0    0 -0.52987528832E+02 -0.29985818798E+02 -0.37541292601E+02  0.71534440592E+02  0.10000000000E+01 0.  0.
<mgrwt>
<rscale>  0 0.12500596E+03</rscale>
<asrwt>0</asrwt>
<pdfrwt beam="1">  1        4 0.42671319E-02 0.12500596E+03</pdfrwt>
<pdfrwt beam="2">  1       -4 0.21668991E-01 0.12500596E+03</pdfrwt>
<totfact> 0.95699945E+03</totfact>
</mgrwt>
</event>
<event>
 5    1  0.3269032E-002  0.1250081E+03  0.7818608E-02  0.1235057E+00
         -4   -1    0    0    0  501 -0.00000000000E+00  0.00000000000E+00  0.21808369937E+02  0.21845317560E+02  0.12700000000E+01 0. -1.
          4   -1    0    0  501    0  0.00000000000E+00 -0.00000000000E+00 -0.17894939200E+03  0.17895389852E+03  0.12700000000E+01 0. -1.
         25    2    1    2    0    0  0.00000000000E+00  0.00000000000E+00 -0.15714102206E+03  0.20079921608E+03  0.12500809720E+03 0.  0.
    9000005    1    3    3    0    0 -0.58814637710E+02 -0.14185331812E+02 -0.10373194259E+03  0.12009038746E+03  0.10000000000E+01 0.  0.
    9000005    1    3    3    0    0  0.58814637710E+02  0.14185331812E+02 -0.53409079477E+02  0.80708828625E+02  0.10000000000E+01 0.  0.
<mgrwt>
<rscale>  0 0.12500810E+03</rscale>
<asrwt>0</asrwt>
<pdfrwt beam="2">  1        4 0.27533864E-01 0.12500810E+03</pdfrwt>
<pdfrwt beam="1">  1       -4 0.33583227E-02 0.12500810E+03</pdfrwt>
<totfact> 0.89984583E+03</totfact>
</mgrwt>
</event>
<event>
 5    1  0.3269032E-002  0.1250026E+03  0.7818608E-02  0.1235065E+00
         -4   -1    0    0    0  501 -0.00000000000E+00  0.00000000000E+00  0.25011222047E+03  0.25011544480E+03  0.12700000000E+01 0.  1.
          4   -1    0    0  501    0  0.00000000000E+00 -0.00000000000E+00 -0.15589487834E+02  0.15641132661E+02  0.12700000000E+01 0.  1.
         25    2    1    2    0    0  0.00000000000E+00  0.00000000000E+00  0.23452273264E+03  0.26575657746E+03  0.12500258534E+03 0.  0.
    9000005    1    3    3    0    0 -0.46139832993E+01 -0.47087792265E+02  0.20406040657E+03  0.20947600949E+03  0.10000000000E+01 0.  0.
    9000005    1    3    3    0    0  0.46139832993E+01  0.47087792265E+02  0.30462326070E+02  0.56280567977E+02  0.10000000000E+01 0.  0.
<mgrwt>
<rscale>  0 0.12500259E+03</rscale>
<asrwt>0</asrwt>
<pdfrwt beam="2">  1        4 0.24026036E-02 0.12500259E+03</pdfrwt>
<pdfrwt beam="1">  1       -4 0.38483022E-01 0.12500259E+03</pdfrwt>
<totfact> 0.80100326E+03</totfact>
</mgrwt>
</event>
